                               Psi4 1.4a3.dev225

  ==> Input File <==

--------------------------------------------------------------------------
#psi4
#
memory 32 gb

molecule  {
0 1
  N        1.9483950     0.5259860     0.0099940
  C        1.2281250    -0.6055780    -0.0011110
  C       -0.1777080    -0.5183570    -0.0133480
  C       -0.7121930     0.7746180    -0.0067610
  N       -0.0315150     1.9321470    -0.0030770
  C        1.2882650     1.7066530     0.0061850
  N       -1.1633520    -1.4857590     0.0015620
  C       -2.2839740    -0.7772230     0.0077650
  N       -2.0759200     0.5789190     0.0016180
  N        1.8765300    -1.8041700    -0.0655800
  H        1.9224110     2.5904960     0.0146870
  H       -3.3269817    -1.2194988     0.0175268
  H       -2.7777110     1.3098630     0.0041890
  H        2.8553720    -1.7872280     0.1925460
  H        1.3468110    -2.6236890     0.2034770
units angstrom
no_reorient  #important for SAPT in psi4, default
symmetry c1  #important for SAPT in psi4, default
}

set PROPERTIES_ORIGIN ["COM"]
properties('MP2/aug-cc-pvtz', properties = ['dipole'])
--------------------------------------------------------------------------

    Molecular point group: c1
  Charge       = 0
  Multiplicity = 1
  Basis Set: AUG-CC-PVTZ
    Blend: AUG-CC-PVTZ
  Basis Set: (AUG-CC-PVTZ AUX)
    Blend: AUG-CC-PVTZ-JKFIT

    Orbital Energies [Eh]
    ---------------------

    Doubly Occupied:

       1A    -15.636588     2A    -15.584184     3A    -15.573058
       4A    -15.562725     5A    -15.554384     6A    -11.338169
       7A    -11.333779     8A    -11.320488     9A    -11.313999
      10A    -11.255356    11A     -1.368237    12A     -1.298389
      13A     -1.245671    14A     -1.187063    15A     -1.152729
      16A     -1.032526    17A     -0.892318    18A     -0.877000
      19A     -0.845981    20A     -0.774360    21A     -0.733909
      22A     -0.695712    23A     -0.673778    24A     -0.640106
      25A     -0.629040    26A     -0.609662    27A     -0.589029
      28A     -0.557794    29A     -0.498875    30A     -0.498482
      31A     -0.454165    32A     -0.427784    33A     -0.412092
      34A     -0.375377    35A     -0.311372

  @DF-RHF Final Energy:  -464.67913302040921

   => Energetics <=

    Nuclear Repulsion Energy =            501.4143717665006648
    One-Electron Energy =               -1625.6786501047381535
    Two-Electron Energy =                 659.5851453178283919
    Total Energy =                       -464.6791330204091537
  Basis Set: (AUG-CC-PVTZ AUX)
    Blend: AUG-CC-PVTZ-RI
    Molecular point group: c1

    Geometry (in Angstrom), charge = 0, multiplicity = 1:

       Center              X                  Y                   Z               Mass
    ------------   -----------------  -----------------  -----------------  -----------------
         N            1.949210430459     0.513570966332     0.013165778981    14.003074004430
         C            1.228940430459    -0.617993033668     0.002060778981    12.000000000000
         C           -0.176892569541    -0.530772033668    -0.010176221019    12.000000000000
         C           -0.711377569541     0.762202966332    -0.003589221019    12.000000000000
         N           -0.030699569541     1.919731966332     0.000094778981    14.003074004430
         C            1.289080430459     1.694237966332     0.009356778981    12.000000000000
         N           -1.162536569541    -1.498174033668     0.004733778981    14.003074004430
         C           -2.283158569541    -0.789638033668     0.010936778981    12.000000000000
         N           -2.075104569541     0.566503966332     0.004789778981    14.003074004430
         N            1.877345430459    -1.816585033668    -0.062408221019    14.003074004430
         H            1.923226430459     2.578080966332     0.017858778981     1.007825032230
         H           -3.326166269541    -1.231913833668     0.020698578981     1.007825032230
         H           -2.776895569541     1.297447966332     0.007360778981     1.007825032230
         H            2.856187430459    -1.799643033668     0.195717778981     1.007825032230
         H            1.347626430459    -2.636104033668     0.206648778981     1.007825032230

  Basis Set: AUG-CC-PVTZ
    Blend: AUG-CC-PVTZ
  Basis Set: (AUG-CC-PVTZ AUX)
    Blend: AUG-CC-PVTZ-JKFIT
	 Reference Energy          =    -464.6791330204092105 [Eh]
	 Singles Energy            =      -0.0000000000000000 [Eh]
	 Same-Spin Energy          =      -0.5064752534872481 [Eh]
	 Opposite-Spin Energy      =      -1.4768587177222283 [Eh]
	 Correlation Energy        =      -1.9833339712094764 [Eh]
	 Total Energy              =    -466.6624669916187145 [Eh]

	 ================> DF-SCS-MP2 Energies <==================
	-----------------------------------------------------------
	 SCS Same-Spin Scale       =       0.3333333333333333 [-]
	 SCS Opposite-Spin Scale   =       1.2000000000000000 [-]
	 SCS Same-Spin Energy      =      -0.1688250844957493 [Eh]
	 SCS Opposite-Spin Energy  =      -1.7722304612666739 [Eh]
	 SCS Correlation Energy    =      -1.9410555457624232 [Eh]
	 SCS Total Energy          =    -466.6201885661716346 [Eh]
	-----------------------------------------------------------

  Dipole Moment: [D]
     X:    -2.4638      Y:    -0.8682      Z:     0.7201     Total:     2.7097

*** Psi4 exiting successfully. Buy a developer a beer!
