                               Psi4 1.3.2 release

  ==> Input File <==

--------------------------------------------------------------------------
#psi4
#
memory 32 gb

molecule  {
0 1
  N        1.9514160     0.5241040     0.0000050
  C        1.2282460    -0.6072470    -0.0000030
  C       -0.2853586    -0.4193886    -0.0000041
  C       -0.7103380     0.7755800     0.0000000
  N       -0.0279430     1.9332850     0.0000050
  C        1.2911430     1.7045360     0.0000120
  N       -1.1651470    -1.4838950    -0.0000170
  C       -2.2855240    -0.7743080     0.0000440
  N       -2.0747130     0.5813540    -0.0000230
  N        1.8664710    -1.8000490    -0.0000060
  H        1.9266830     2.5875900     0.0000020
  H       -3.2831410    -1.1955370     0.0000680
  H       -2.7752520     1.3134440    -0.0000840
  H        2.8756040    -1.8180060     0.0000090
  H        1.3377970    -2.6593590     0.0000020
units angstrom
no_reorient  #important for SAPT in psi4, default
symmetry c1  #important for SAPT in psi4, default
}

set PROPERTIES_ORIGIN ["COM"]
properties('MP2/aug-cc-pvtz', properties = ['dipole'])
--------------------------------------------------------------------------

    Molecular point group: c1
  Charge       = 0
  Multiplicity = 1
  Basis Set: AUG-CC-PVTZ
    Blend: AUG-CC-PVTZ
  Basis Set: (AUG-CC-PVTZ AUX)
    Blend: AUG-CC-PVTZ-JKFIT

    Orbital Energies [Eh]
    ---------------------

    Doubly Occupied:

       1A    -15.626251     2A    -15.596819     3A    -15.570011
       4A    -15.554302     5A    -15.549109     6A    -11.351435
       7A    -11.324663     8A    -11.311679     9A    -11.292984
      10A    -11.248262    11A     -1.375723    12A     -1.296248
      13A     -1.245588    14A     -1.184896    15A     -1.149893
      16A     -1.040594    17A     -0.896348    18A     -0.857490
      19A     -0.852991    20A     -0.780333    21A     -0.737014
      22A     -0.707452    23A     -0.671736    24A     -0.643645
      25A     -0.632197    26A     -0.597526    27A     -0.582369
      28A     -0.556925    29A     -0.497893    30A     -0.494814
      31A     -0.458904    32A     -0.420611    33A     -0.407675
      34A     -0.379572    35A     -0.313493

  @DF-RHF Final Energy:  -464.65326486817037

   => Energetics <=

    Nuclear Repulsion Energy =            502.9177062066752910
    One-Electron Energy =               -1628.7270516074836451
    Two-Electron Energy =                 661.1560805326379295
    Total Energy =                       -464.6532648681703677
  Basis Set: (AUG-CC-PVTZ AUX)
    Blend: AUG-CC-PVTZ-RI
    Molecular point group: c1

    Geometry (in Angstrom), charge = 0, multiplicity = 1:

       Center              X                  Y                   Z               Mass
    ------------   -----------------  -----------------  -----------------  -----------------
         N            1.961462181749     0.502403366320     0.000004410121    14.003074004430
         C            1.238292181749    -0.628947633680    -0.000003589879    12.000000000000
         C           -0.275312418251    -0.441089233680    -0.000004689879    12.000000000000
         C           -0.700291818251     0.753879366320    -0.000000589879    12.000000000000
         N           -0.017896818251     1.911584366320     0.000004410121    14.003074004430
         C            1.301189181749     1.682835366320     0.000011410121    12.000000000000
         N           -1.155100818251    -1.505595633680    -0.000017589879    14.003074004430
         C           -2.275477818251    -0.796008633680     0.000043410121    12.000000000000
         N           -2.064666818251     0.559653366320    -0.000023589879    14.003074004430
         N            1.876517181749    -1.821749633680    -0.000006589879    14.003074004430
         H            1.936729181749     2.565889366320     0.000001410121     1.007825032230
         H           -3.273094818251    -1.217237633680     0.000067410121     1.007825032230
         H           -2.765205818251     1.291743366320    -0.000084589879     1.007825032230
         H            2.885650181749    -1.839706633680     0.000008410121     1.007825032230
         H            1.347843181749    -2.681059633680     0.000001410121     1.007825032230

  Basis Set: AUG-CC-PVTZ
    Blend: AUG-CC-PVTZ
  Basis Set: (AUG-CC-PVTZ AUX)
    Blend: AUG-CC-PVTZ-JKFIT
	 Reference Energy          =    -464.6532648681703677 [Eh]
	 Singles Energy            =      -0.0000000000000000 [Eh]
	 Same-Spin Energy          =      -0.5047953240465782 [Eh]
	 Opposite-Spin Energy      =      -1.4754378623029276 [Eh]
	 Correlation Energy        =      -1.9802331863495057 [Eh]
	 Total Energy              =    -466.6334980545198619 [Eh]

	 ================> DF-SCS-MP2 Energies <==================
	-----------------------------------------------------------
	 SCS Same-Spin Scale       =       0.3333333333333333 [-]
	 SCS Opposite-Spin Scale   =       1.2000000000000000 [-]
	 SCS Same-Spin Energy      =      -0.1682651080155261 [Eh]
	 SCS Opposite-Spin Energy  =      -1.7705254347635131 [Eh]
	 SCS Correlation Energy    =      -1.9387905427790391 [Eh]
	 SCS Total Energy          =    -466.5920554109493992 [Eh]
	-----------------------------------------------------------

  Dipole Moment: [D]
     X:    -1.9410      Y:    -1.4386      Z:    -0.0000     Total:     2.4160

*** Psi4 exiting successfully. Buy a developer a beer!
