                               Psi4 1.3.2 release

  ==> Input File <==

--------------------------------------------------------------------------
#psi4
#
memory 32 gb

molecule  {
0 1
  N        1.9514160     0.5241040     0.0000050
  C        1.2282460    -0.6072470    -0.0000030
  C       -0.1789070    -0.5171830    -0.0000110
  C       -0.7304388     0.7876658    -0.0000001
  N       -0.0279430     1.9332850     0.0000050
  C        1.2911430     1.7045360     0.0000120
  N       -1.1651470    -1.4838950    -0.0000170
  C       -2.2855240    -0.7743080     0.0000440
  N       -2.0747130     0.5813540    -0.0000230
  N        1.8664710    -1.8000490    -0.0000060
  H        1.9266830     2.5875900     0.0000020
  H       -3.2831410    -1.1955370     0.0000680
  H       -2.7752520     1.3134440    -0.0000840
  H        2.8756040    -1.8180060     0.0000090
  H        1.3377970    -2.6593590     0.0000020
units angstrom
no_reorient  #important for SAPT in psi4, default
symmetry c1  #important for SAPT in psi4, default
}

set PROPERTIES_ORIGIN ["COM"]
properties('MP2/aug-cc-pvtz', properties = ['dipole'])
--------------------------------------------------------------------------

    Molecular point group: c1
  Charge       = 0
  Multiplicity = 1
  Basis Set: AUG-CC-PVTZ
    Blend: AUG-CC-PVTZ
  Basis Set: (AUG-CC-PVTZ AUX)
    Blend: AUG-CC-PVTZ-JKFIT

    Orbital Energies [Eh]
    ---------------------

    Doubly Occupied:

       1A    -15.636876     2A    -15.584763     3A    -15.573214
       4A    -15.558649     5A    -15.551182     6A    -11.337892
       7A    -11.326324     8A    -11.319412     9A    -11.312306
      10A    -11.253330    11A     -1.369112    12A     -1.296698
      13A     -1.244482    14A     -1.188163    15A     -1.150831
      16A     -1.029314    17A     -0.895803    18A     -0.875896
      19A     -0.846883    20A     -0.778939    21A     -0.739209
      22A     -0.698572    23A     -0.677408    24A     -0.638886
      25A     -0.632556    26A     -0.611203    27A     -0.592124
      28A     -0.558359    29A     -0.496605    30A     -0.496443
      31A     -0.451743    32A     -0.425867    33A     -0.408622
      34A     -0.371454    35A     -0.305747

  @DF-RHF Final Energy:  -464.68104344743347

   => Energetics <=

    Nuclear Repulsion Energy =            501.6087423623108634
    One-Electron Energy =               -1626.1098363346930000
    Two-Electron Energy =                 659.8200505249485559
    Total Energy =                       -464.6810434474334670
  Basis Set: (AUG-CC-PVTZ AUX)
    Blend: AUG-CC-PVTZ-RI
    Molecular point group: c1

    Geometry (in Angstrom), charge = 0, multiplicity = 1:

       Center              X                  Y                   Z               Mass
    ------------   -----------------  -----------------  -----------------  -----------------
         N            1.953789652237     0.510018834421     0.000005032092    14.003074004430
         C            1.230619652237    -0.621332165579    -0.000002967908    12.000000000000
         C           -0.176533347763    -0.531268165579    -0.000010967908    12.000000000000
         C           -0.728065147763     0.773580634421    -0.000000067908    12.000000000000
         N           -0.025569347763     1.919199834421     0.000005032092    14.003074004430
         C            1.293516652237     1.690450834421     0.000012032092    12.000000000000
         N           -1.162773347763    -1.497980165579    -0.000016967908    14.003074004430
         C           -2.283150347763    -0.788393165579     0.000044032092    12.000000000000
         N           -2.072339347763     0.567268834421    -0.000022967908    14.003074004430
         N            1.868844652237    -1.814134165579    -0.000005967908    14.003074004430
         H            1.929056652237     2.573504834421     0.000002032092     1.007825032230
         H           -3.280767347763    -1.209622165579     0.000068032092     1.007825032230
         H           -2.772878347763     1.299358834421    -0.000083967908     1.007825032230
         H            2.877977652237    -1.832091165579     0.000009032092     1.007825032230
         H            1.340170652237    -2.673444165579     0.000002032092     1.007825032230

  Basis Set: AUG-CC-PVTZ
    Blend: AUG-CC-PVTZ
  Basis Set: (AUG-CC-PVTZ AUX)
    Blend: AUG-CC-PVTZ-JKFIT
	 Reference Energy          =    -464.6810434474334670 [Eh]
	 Singles Energy            =      -0.0000000000000000 [Eh]
	 Same-Spin Energy          =      -0.5065509446368962 [Eh]
	 Opposite-Spin Energy      =      -1.4763698984911033 [Eh]
	 Correlation Energy        =      -1.9829208431279994 [Eh]
	 Total Energy              =    -466.6639642905614664 [Eh]

	 ================> DF-SCS-MP2 Energies <==================
	-----------------------------------------------------------
	 SCS Same-Spin Scale       =       0.3333333333333333 [-]
	 SCS Opposite-Spin Scale   =       1.2000000000000000 [-]
	 SCS Same-Spin Energy      =      -0.1688503148789654 [Eh]
	 SCS Opposite-Spin Energy  =      -1.7716438781893240 [Eh]
	 SCS Correlation Energy    =      -1.9404941930682895 [Eh]
	 SCS Total Energy          =    -466.6215376405017423 [Eh]
	-----------------------------------------------------------

  Dipole Moment: [D]
     X:    -2.3413      Y:    -1.1814      Z:    -0.0000     Total:     2.6225

*** Psi4 exiting successfully. Buy a developer a beer!
