                               Psi4 1.3.2 release

  ==> Input File <==

--------------------------------------------------------------------------
#psi4
#
memory 32 gb

molecule  {
0 1
  N        1.9904590     0.4981765     0.0000051
  C        1.2282460    -0.6072470    -0.0000030
  C       -0.1789070    -0.5171830    -0.0000110
  C       -0.7103380     0.7755800     0.0000000
  N       -0.0279430     1.9332850     0.0000050
  C        1.2911430     1.7045360     0.0000120
  N       -1.1651470    -1.4838950    -0.0000170
  C       -2.2855240    -0.7743080     0.0000440
  N       -2.0747130     0.5813540    -0.0000230
  N        1.8664710    -1.8000490    -0.0000060
  H        1.9266830     2.5875900     0.0000020
  H       -3.2831410    -1.1955370     0.0000680
  H       -2.7752520     1.3134440    -0.0000840
  H        2.8756040    -1.8180060     0.0000090
  H        1.3377970    -2.6593590     0.0000020
units angstrom
no_reorient  #important for SAPT in psi4, default
symmetry c1  #important for SAPT in psi4, default
}

set PROPERTIES_ORIGIN ["COM"]
properties('MP2/aug-cc-pvtz', properties = ['dipole'])
--------------------------------------------------------------------------

    Molecular point group: c1
  Charge       = 0
  Multiplicity = 1
  Basis Set: AUG-CC-PVTZ
    Blend: AUG-CC-PVTZ
  Basis Set: (AUG-CC-PVTZ AUX)
    Blend: AUG-CC-PVTZ-JKFIT

    Orbital Energies [Eh]
    ---------------------

    Doubly Occupied:

       1A    -15.636006     2A    -15.582832     3A    -15.572916
       4A    -15.563835     5A    -15.556144     6A    -11.337157
       7A    -11.326824     8A    -11.319425     9A    -11.318195
      10A    -11.253941    11A     -1.366742    12A     -1.293462
      13A     -1.245614    14A     -1.185306    15A     -1.147290
      16A     -1.031144    17A     -0.890452    18A     -0.877645
      19A     -0.847426    20A     -0.776854    21A     -0.736226
      22A     -0.699552    23A     -0.672068    24A     -0.637899
      25A     -0.630435    26A     -0.612983    27A     -0.586365
      28A     -0.555828    29A     -0.498846    30A     -0.496248
      31A     -0.457462    32A     -0.423858    33A     -0.413715
      34A     -0.371140    35A     -0.308781

  @DF-RHF Final Energy:  -464.67790542161379

   => Energetics <=

    Nuclear Repulsion Energy =            500.8763079122322779
    One-Electron Energy =               -1624.6471974399646570
    Two-Electron Energy =                 659.0929841061185925
    Total Energy =                       -464.6779054216137865
  Basis Set: (AUG-CC-PVTZ AUX)
    Blend: AUG-CC-PVTZ-RI
    Molecular point group: c1

    Geometry (in Angstrom), charge = 0, multiplicity = 1:

       Center              X                  Y                   Z               Mass
    ------------   -----------------  -----------------  -----------------  -----------------
         N            1.986998476801     0.487853477255     0.000005112838    14.003074004430
         C            1.224785476801    -0.617570022745    -0.000002987162    12.000000000000
         C           -0.182367523199    -0.527506022745    -0.000010987162    12.000000000000
         C           -0.713798523199     0.765256977255     0.000000012838    12.000000000000
         N           -0.031403523199     1.922961977255     0.000005012838    14.003074004430
         C            1.287682476801     1.694212977255     0.000012012838    12.000000000000
         N           -1.168607523199    -1.494218022745    -0.000016987162    14.003074004430
         C           -2.288984523199    -0.784631022745     0.000044012838    12.000000000000
         N           -2.078173523199     0.571030977255    -0.000022987162    14.003074004430
         N            1.863010476801    -1.810372022745    -0.000005987162    14.003074004430
         H            1.923222476801     2.577266977255     0.000002012838     1.007825032230
         H           -3.286601523199    -1.205860022745     0.000068012838     1.007825032230
         H           -2.778712523199     1.303120977255    -0.000083987162     1.007825032230
         H            2.872143476801    -1.828329022745     0.000009012838     1.007825032230
         H            1.334336476801    -2.669682022745     0.000002012838     1.007825032230

  Basis Set: AUG-CC-PVTZ
    Blend: AUG-CC-PVTZ
  Basis Set: (AUG-CC-PVTZ AUX)
    Blend: AUG-CC-PVTZ-JKFIT
	 Reference Energy          =    -464.6779054216137865 [Eh]
	 Singles Energy            =      -0.0000000000000000 [Eh]
	 Same-Spin Energy          =      -0.5065558895491231 [Eh]
	 Opposite-Spin Energy      =      -1.4775583833541108 [Eh]
	 Correlation Energy        =      -1.9841142729032339 [Eh]
	 Total Energy              =    -466.6620196945170278 [Eh]

	 ================> DF-SCS-MP2 Energies <==================
	-----------------------------------------------------------
	 SCS Same-Spin Scale       =       0.3333333333333333 [-]
	 SCS Opposite-Spin Scale   =       1.2000000000000000 [-]
	 SCS Same-Spin Energy      =      -0.1688519631830410 [Eh]
	 SCS Opposite-Spin Energy  =      -1.7730700600249329 [Eh]
	 SCS Correlation Energy    =      -1.9419220232079739 [Eh]
	 SCS Total Energy          =    -466.6198274448217376 [Eh]
	-----------------------------------------------------------

  Dipole Moment: [D]
     X:    -2.3900      Y:    -1.0789      Z:    -0.0000     Total:     2.6222

*** Psi4 exiting successfully. Buy a developer a beer!
