                               Psi4 1.3.2 release

  ==> Input File <==

--------------------------------------------------------------------------
#psi4
#
memory 32 gb

molecule  {
0 1
  N        1.9514160     0.5241040     0.0000050
  C        1.2282460    -0.6072470    -0.0000030
  C       -0.1789070    -0.5171830    -0.0000110
  C       -0.7139355     0.7993620    -0.0000014
  N       -0.0279430     1.9332850     0.0000050
  C        1.2911430     1.7045360     0.0000120
  N       -1.1651470    -1.4838950    -0.0000170
  C       -2.2855240    -0.7743080     0.0000440
  N       -2.0747130     0.5813540    -0.0000230
  N        1.8664710    -1.8000490    -0.0000060
  H        1.9266830     2.5875900     0.0000020
  H       -3.2831410    -1.1955370     0.0000680
  H       -2.7752520     1.3134440    -0.0000840
  H        2.8756040    -1.8180060     0.0000090
  H        1.3377970    -2.6593590     0.0000020
units angstrom
no_reorient  #important for SAPT in psi4, default
symmetry c1  #important for SAPT in psi4, default
}

set PROPERTIES_ORIGIN ["COM"]
properties('MP2/aug-cc-pvtz', properties = ['dipole'])
--------------------------------------------------------------------------

    Molecular point group: c1
  Charge       = 0
  Multiplicity = 1
  Basis Set: AUG-CC-PVTZ
    Blend: AUG-CC-PVTZ
  Basis Set: (AUG-CC-PVTZ AUX)
    Blend: AUG-CC-PVTZ-JKFIT

    Orbital Energies [Eh]
    ---------------------

    Doubly Occupied:

       1A    -15.634891     2A    -15.584196     3A    -15.572262
       4A    -15.559144     5A    -15.552643     6A    -11.337203
       7A    -11.326751     8A    -11.320158     9A    -11.313440
      10A    -11.253827    11A     -1.365228    12A     -1.297814
      13A     -1.247731    14A     -1.185564    15A     -1.153478
      16A     -1.028809    17A     -0.894222    18A     -0.877832
      19A     -0.844765    20A     -0.778485    21A     -0.737823
      22A     -0.699135    23A     -0.678230    24A     -0.637116
      25A     -0.632481    26A     -0.609846    27A     -0.590795
      28A     -0.557613    29A     -0.499108    30A     -0.497641
      31A     -0.452680    32A     -0.424408    33A     -0.409847
      34A     -0.373874    35A     -0.304317

  @DF-RHF Final Energy:  -464.68076913179544

   => Energetics <=

    Nuclear Repulsion Energy =            501.5887194753551626
    One-Electron Energy =               -1626.0722580437106899
    Two-Electron Energy =                 659.8027694365600837
    Total Energy =                       -464.6807691317953868
  Basis Set: (AUG-CC-PVTZ AUX)
    Blend: AUG-CC-PVTZ-RI
    Molecular point group: c1

    Geometry (in Angstrom), charge = 0, multiplicity = 1:

       Center              X                  Y                   Z               Mass
    ------------   -----------------  -----------------  -----------------  -----------------
         N            1.952323284163     0.508979591708     0.000005147601    14.003074004430
         C            1.229153284163    -0.622371408292    -0.000002852399    12.000000000000
         C           -0.177999715837    -0.532307408292    -0.000010852399    12.000000000000
         C           -0.713028215837     0.784237591708    -0.000001252399    12.000000000000
         N           -0.027035715837     1.918160591708     0.000005147601    14.003074004430
         C            1.292050284163     1.689411591708     0.000012147601    12.000000000000
         N           -1.164239715837    -1.499019408292    -0.000016852399    14.003074004430
         C           -2.284616715837    -0.789432408292     0.000044147601    12.000000000000
         N           -2.073805715837     0.566229591708    -0.000022852399    14.003074004430
         N            1.867378284163    -1.815173408292    -0.000005852399    14.003074004430
         H            1.927590284163     2.572465591708     0.000002147601     1.007825032230
         H           -3.282233715837    -1.210661408292     0.000068147601     1.007825032230
         H           -2.774344715837     1.298319591708    -0.000083852399     1.007825032230
         H            2.876511284163    -1.833130408292     0.000009147601     1.007825032230
         H            1.338704284163    -2.674483408292     0.000002147601     1.007825032230

  Basis Set: AUG-CC-PVTZ
    Blend: AUG-CC-PVTZ
  Basis Set: (AUG-CC-PVTZ AUX)
    Blend: AUG-CC-PVTZ-JKFIT
	 Reference Energy          =    -464.6807691317954436 [Eh]
	 Singles Energy            =      -0.0000000000000000 [Eh]
	 Same-Spin Energy          =      -0.5066601000297954 [Eh]
	 Opposite-Spin Energy      =      -1.4763848843590324 [Eh]
	 Correlation Energy        =      -1.9830449843888278 [Eh]
	 Total Energy              =    -466.6638141161842555 [Eh]

	 ================> DF-SCS-MP2 Energies <==================
	-----------------------------------------------------------
	 SCS Same-Spin Scale       =       0.3333333333333333 [-]
	 SCS Opposite-Spin Scale   =       1.2000000000000000 [-]
	 SCS Same-Spin Energy      =      -0.1688867000099318 [Eh]
	 SCS Opposite-Spin Energy  =      -1.7716618612308388 [Eh]
	 SCS Correlation Energy    =      -1.9405485612407707 [Eh]
	 SCS Total Energy          =    -466.6213176930361897 [Eh]
	-----------------------------------------------------------

  Dipole Moment: [D]
     X:    -2.2783      Y:    -1.1465      Z:    -0.0000     Total:     2.5505

*** Psi4 exiting successfully. Buy a developer a beer!
