                               Psi4 1.3.2 release

  ==> Input File <==

--------------------------------------------------------------------------
#psi4
#
memory 32 gb

molecule  {
0 1
  N        1.9514160     0.5241040     0.0000050
  C        1.2282460    -0.6072470    -0.0000030
  C       -0.0466877    -0.4545514    -0.0000111
  C       -0.7103380     0.7755800     0.0000000
  N       -0.0279430     1.9332850     0.0000050
  C        1.2911430     1.7045360     0.0000120
  N       -1.1651470    -1.4838950    -0.0000170
  C       -2.2855240    -0.7743080     0.0000440
  N       -2.0747130     0.5813540    -0.0000230
  N        1.8664710    -1.8000490    -0.0000060
  H        1.9266830     2.5875900     0.0000020
  H       -3.2831410    -1.1955370     0.0000680
  H       -2.7752520     1.3134440    -0.0000840
  H        2.8756040    -1.8180060     0.0000090
  H        1.3377970    -2.6593590     0.0000020
units angstrom
no_reorient  #important for SAPT in psi4, default
symmetry c1  #important for SAPT in psi4, default
}

set PROPERTIES_ORIGIN ["COM"]
properties('MP2/aug-cc-pvtz', properties = ['dipole'])
--------------------------------------------------------------------------

    Molecular point group: c1
  Charge       = 0
  Multiplicity = 1
  Basis Set: AUG-CC-PVTZ
    Blend: AUG-CC-PVTZ
  Basis Set: (AUG-CC-PVTZ AUX)
    Blend: AUG-CC-PVTZ-JKFIT

    Orbital Energies [Eh]
    ---------------------

    Doubly Occupied:

       1A    -15.635700     2A    -15.579314     3A    -15.574086
       4A    -15.562029     5A    -15.551578     6A    -11.332129
       7A    -11.331719     8A    -11.321250     9A    -11.312520
      10A    -11.248226    11A     -1.359907    12A     -1.302476
      13A     -1.243619    14A     -1.167390    15A     -1.148190
      16A     -1.048603    17A     -0.909269    18A     -0.877149
      19A     -0.838335    20A     -0.780227    21A     -0.737420
      22A     -0.695438    23A     -0.672695    24A     -0.644665
      25A     -0.638305    26A     -0.619208    27A     -0.588884
      28A     -0.562908    29A     -0.495505    30A     -0.494037
      31A     -0.430411    32A     -0.415158    33A     -0.413042
      34A     -0.370512    35A     -0.327137

  @DF-RHF Final Energy:  -464.65381081063168

   => Energetics <=

    Nuclear Repulsion Energy =            502.2473047217127942
    One-Electron Energy =               -1627.3441445437983930
    Two-Electron Energy =                 660.4430290114540867
    Total Energy =                       -464.6538108106316258
  Basis Set: (AUG-CC-PVTZ AUX)
    Blend: AUG-CC-PVTZ-RI
    Molecular point group: c1

    Geometry (in Angstrom), charge = 0, multiplicity = 1:

       Center              X                  Y                   Z               Mass
    ------------   -----------------  -----------------  -----------------  -----------------
         N            1.940255551077     0.505527687354     0.000005032092    14.003074004430
         C            1.217085551077    -0.625823312646    -0.000002967908    12.000000000000
         C           -0.057848148923    -0.473127712646    -0.000011067908    12.000000000000
         C           -0.721498448923     0.757003687354     0.000000032092    12.000000000000
         N           -0.039103448923     1.914708687354     0.000005032092    14.003074004430
         C            1.279982551077     1.685959687354     0.000012032092    12.000000000000
         N           -1.176307448923    -1.502471312646    -0.000016967908    14.003074004430
         C           -2.296684448923    -0.792884312646     0.000044032092    12.000000000000
         N           -2.085873448923     0.562777687354    -0.000022967908    14.003074004430
         N            1.855310551077    -1.818625312646    -0.000005967908    14.003074004430
         H            1.915522551077     2.569013687354     0.000002032092     1.007825032230
         H           -3.294301448923    -1.214113312646     0.000068032092     1.007825032230
         H           -2.786412448923     1.294867687354    -0.000083967908     1.007825032230
         H            2.864443551077    -1.836582312646     0.000009032092     1.007825032230
         H            1.326636551077    -2.677935312646     0.000002032092     1.007825032230

  Basis Set: AUG-CC-PVTZ
    Blend: AUG-CC-PVTZ
  Basis Set: (AUG-CC-PVTZ AUX)
    Blend: AUG-CC-PVTZ-JKFIT
	 Reference Energy          =    -464.6538108106316827 [Eh]
	 Singles Energy            =      -0.0000000000000000 [Eh]
	 Same-Spin Energy          =      -0.5055298305568139 [Eh]
	 Opposite-Spin Energy      =      -1.4772862547445855 [Eh]
	 Correlation Energy        =      -1.9828160853013994 [Eh]
	 Total Energy              =    -466.6366268959330910 [Eh]

	 ================> DF-SCS-MP2 Energies <==================
	-----------------------------------------------------------
	 SCS Same-Spin Scale       =       0.3333333333333333 [-]
	 SCS Opposite-Spin Scale   =       1.2000000000000000 [-]
	 SCS Same-Spin Energy      =      -0.1685099435189379 [Eh]
	 SCS Opposite-Spin Energy  =      -1.7727435056935026 [Eh]
	 SCS Correlation Energy    =      -1.9412534492124405 [Eh]
	 SCS Total Energy          =    -466.5950642598441505 [Eh]
	-----------------------------------------------------------

  Dipole Moment: [D]
     X:    -2.3190      Y:    -0.9307      Z:    -0.0000     Total:     2.4988

*** Psi4 exiting successfully. Buy a developer a beer!
