                               Psi4 1.3.2 release

  ==> Input File <==

--------------------------------------------------------------------------
#psi4
#
memory 32 gb

molecule  {
0 1
  N        1.9514160     0.5241040     0.0000050
  C        1.2282460    -0.6072470    -0.0000030
  C       -0.1789070    -0.5171830    -0.0000110
  C       -0.7103380     0.7755800     0.0000000
  N       -0.0687620     1.9563950     0.0000041
  C        1.2911430     1.7045360     0.0000120
  N       -1.1651470    -1.4838950    -0.0000170
  C       -2.2855240    -0.7743080     0.0000440
  N       -2.0747130     0.5813540    -0.0000230
  N        1.8664710    -1.8000490    -0.0000060
  H        1.9266830     2.5875900     0.0000020
  H       -3.2831410    -1.1955370     0.0000680
  H       -2.7752520     1.3134440    -0.0000840
  H        2.8756040    -1.8180060     0.0000090
  H        1.3377970    -2.6593590     0.0000020
units angstrom
no_reorient  #important for SAPT in psi4, default
symmetry c1  #important for SAPT in psi4, default
}

set PROPERTIES_ORIGIN ["COM"]
properties('MP2/aug-cc-pvtz', properties = ['dipole'])
--------------------------------------------------------------------------

    Molecular point group: c1
  Charge       = 0
  Multiplicity = 1
  Basis Set: AUG-CC-PVTZ
    Blend: AUG-CC-PVTZ
  Basis Set: (AUG-CC-PVTZ AUX)
    Blend: AUG-CC-PVTZ-JKFIT

    Orbital Energies [Eh]
    ---------------------

    Doubly Occupied:

       1A    -15.631746     2A    -15.587062     3A    -15.571010
       4A    -15.564136     5A    -15.556480     6A    -11.340317
       7A    -11.326075     8A    -11.319562     9A    -11.317633
      10A    -11.252596    11A     -1.364996    12A     -1.295670
      13A     -1.240774    14A     -1.185184    15A     -1.151245
      16A     -1.029248    17A     -0.895646    18A     -0.873408
      19A     -0.846092    20A     -0.774901    21A     -0.737895
      22A     -0.700340    23A     -0.672097    24A     -0.636391
      25A     -0.631286    26A     -0.613529    27A     -0.584065
      28A     -0.557936    29A     -0.500800    30A     -0.492665
      31A     -0.455068    32A     -0.424135    33A     -0.413704
      34A     -0.375663    35A     -0.304636

  @DF-RHF Final Energy:  -464.67726210787600

   => Energetics <=

    Nuclear Repulsion Energy =            500.9050263240497998
    One-Electron Energy =               -1624.7165920517604718
    Two-Electron Energy =                 659.1343036198347818
    Total Energy =                       -464.6772621078760039
  Basis Set: (AUG-CC-PVTZ AUX)
    Blend: AUG-CC-PVTZ-RI
    Molecular point group: c1

    Geometry (in Angstrom), charge = 0, multiplicity = 1:

       Center              X                  Y                   Z               Mass
    ------------   -----------------  -----------------  -----------------  -----------------
         N            1.956235937919     0.508696542705     0.000005116523    14.003074004430
         C            1.233065937919    -0.622654457295    -0.000002883477    12.000000000000
         C           -0.174087062081    -0.532590457295    -0.000010883477    12.000000000000
         C           -0.705518062081     0.760172542705     0.000000116523    12.000000000000
         N           -0.063942062081     1.940987542705     0.000004216523    14.003074004430
         C            1.295962937919     1.689128542705     0.000012116523    12.000000000000
         N           -1.160327062081    -1.499302457295    -0.000016883477    14.003074004430
         C           -2.280704062081    -0.789715457295     0.000044116523    12.000000000000
         N           -2.069893062081     0.565946542705    -0.000022883477    14.003074004430
         N            1.871290937919    -1.815456457295    -0.000005883477    14.003074004430
         H            1.931502937919     2.572182542705     0.000002116523     1.007825032230
         H           -3.278321062081    -1.210944457295     0.000068116523     1.007825032230
         H           -2.770432062081     1.298036542705    -0.000083883477     1.007825032230
         H            2.880423937919    -1.833413457295     0.000009116523     1.007825032230
         H            1.342616937919    -2.674766457295     0.000002116523     1.007825032230

  Basis Set: AUG-CC-PVTZ
    Blend: AUG-CC-PVTZ
  Basis Set: (AUG-CC-PVTZ AUX)
    Blend: AUG-CC-PVTZ-JKFIT
	 Reference Energy          =    -464.6772621078760039 [Eh]
	 Singles Energy            =      -0.0000000000000000 [Eh]
	 Same-Spin Energy          =      -0.5068144122105496 [Eh]
	 Opposite-Spin Energy      =      -1.4778840070504313 [Eh]
	 Correlation Energy        =      -1.9846984192609809 [Eh]
	 Total Energy              =    -466.6619605271370119 [Eh]

	 ================> DF-SCS-MP2 Energies <==================
	-----------------------------------------------------------
	 SCS Same-Spin Scale       =       0.3333333333333333 [-]
	 SCS Opposite-Spin Scale   =       1.2000000000000000 [-]
	 SCS Same-Spin Energy      =      -0.1689381374035165 [Eh]
	 SCS Opposite-Spin Energy  =      -1.7734608084605175 [Eh]
	 SCS Correlation Energy    =      -1.9423989458640341 [Eh]
	 SCS Total Energy          =    -466.6196610537400602 [Eh]
	-----------------------------------------------------------

  Dipole Moment: [D]
     X:    -2.1255      Y:    -1.2573      Z:    -0.0000     Total:     2.4696

*** Psi4 exiting successfully. Buy a developer a beer!
