                               Psi4 1.3.2 release

  ==> Input File <==

--------------------------------------------------------------------------
#psi4
#
memory 32 gb

molecule  {
0 1
  N        1.9719168     0.5358071     0.0000053
  C        1.2282460    -0.6072470    -0.0000030
  C       -0.1789070    -0.5171830    -0.0000110
  C       -0.7103380     0.7755800     0.0000000
  N       -0.0279430     1.9332850     0.0000050
  C        1.2911430     1.7045360     0.0000120
  N       -1.1651470    -1.4838950    -0.0000170
  C       -2.2855240    -0.7743080     0.0000440
  N       -2.0747130     0.5813540    -0.0000230
  N        1.8664710    -1.8000490    -0.0000060
  H        1.9266830     2.5875900     0.0000020
  H       -3.2831410    -1.1955370     0.0000680
  H       -2.7752520     1.3134440    -0.0000840
  H        2.8756040    -1.8180060     0.0000090
  H        1.3377970    -2.6593590     0.0000020
units angstrom
no_reorient  #important for SAPT in psi4, default
symmetry c1  #important for SAPT in psi4, default
}

set PROPERTIES_ORIGIN ["COM"]
properties('MP2/aug-cc-pvtz', properties = ['dipole'])
--------------------------------------------------------------------------

    Molecular point group: c1
  Charge       = 0
  Multiplicity = 1
  Basis Set: AUG-CC-PVTZ
    Blend: AUG-CC-PVTZ
  Basis Set: (AUG-CC-PVTZ AUX)
    Blend: AUG-CC-PVTZ-JKFIT

    Orbital Energies [Eh]
    ---------------------

    Doubly Occupied:

       1A    -15.634959     2A    -15.587343     3A    -15.572313
       4A    -15.558622     5A    -15.554420     6A    -11.341520
       7A    -11.327296     8A    -11.319277     9A    -11.311489
      10A    -11.253337    11A     -1.366468    12A     -1.294394
      13A     -1.245447    14A     -1.186064    15A     -1.149422
      16A     -1.032355    17A     -0.894876    18A     -0.873953
      19A     -0.846686    20A     -0.777845    21A     -0.738459
      22A     -0.700050    23A     -0.674388    24A     -0.637598
      25A     -0.631749    26A     -0.612940    27A     -0.588214
      28A     -0.556367    29A     -0.497356    30A     -0.496442
      31A     -0.453380    32A     -0.424879    33A     -0.412346
      34A     -0.373006    35A     -0.307571

  @DF-RHF Final Energy:  -464.68072890404881

   => Energetics <=

    Nuclear Repulsion Energy =            501.1959630098173193
    One-Electron Energy =               -1625.2877210383899182
    Two-Electron Energy =                 659.4110291245239068
    Total Energy =                       -464.6807289040488058
  Basis Set: (AUG-CC-PVTZ AUX)
    Blend: AUG-CC-PVTZ-RI
    Molecular point group: c1

    Geometry (in Angstrom), charge = 0, multiplicity = 1:

       Center              X                  Y                   Z               Mass
    ------------   -----------------  -----------------  -----------------  -----------------
         N            1.970378817761     0.521582362796     0.000005292101    14.003074004430
         C            1.226708017761    -0.621471737204    -0.000003007899    12.000000000000
         C           -0.180444982239    -0.531407737204    -0.000011007899    12.000000000000
         C           -0.711875982239     0.761355262796    -0.000000007899    12.000000000000
         N           -0.029480982239     1.919060262796     0.000004992101    14.003074004430
         C            1.289605017761     1.690311262796     0.000011992101    12.000000000000
         N           -1.166684982239    -1.498119737204    -0.000017007899    14.003074004430
         C           -2.287061982239    -0.788532737204     0.000043992101    12.000000000000
         N           -2.076250982239     0.567129262796    -0.000023007899    14.003074004430
         N            1.864933017761    -1.814273737204    -0.000006007899    14.003074004430
         H            1.925145017761     2.573365262796     0.000001992101     1.007825032230
         H           -3.284678982239    -1.209761737204     0.000067992101     1.007825032230
         H           -2.776789982239     1.299219262796    -0.000084007899     1.007825032230
         H            2.874066017761    -1.832230737204     0.000008992101     1.007825032230
         H            1.336259017761    -2.673583737204     0.000001992101     1.007825032230

  Basis Set: AUG-CC-PVTZ
    Blend: AUG-CC-PVTZ
  Basis Set: (AUG-CC-PVTZ AUX)
    Blend: AUG-CC-PVTZ-JKFIT
	 Reference Energy          =    -464.6807289040488058 [Eh]
	 Singles Energy            =      -0.0000000000000000 [Eh]
	 Same-Spin Energy          =      -0.5062741282312044 [Eh]
	 Opposite-Spin Energy      =      -1.4765946967995598 [Eh]
	 Correlation Energy        =      -1.9828688250307642 [Eh]
	 Total Energy              =    -466.6635977290795836 [Eh]

	 ================> DF-SCS-MP2 Energies <==================
	-----------------------------------------------------------
	 SCS Same-Spin Scale       =       0.3333333333333333 [-]
	 SCS Opposite-Spin Scale   =       1.2000000000000000 [-]
	 SCS Same-Spin Energy      =      -0.1687580427437348 [Eh]
	 SCS Opposite-Spin Energy  =      -1.7719136361594716 [Eh]
	 SCS Correlation Energy    =      -1.9406716789032064 [Eh]
	 SCS Total Energy          =    -466.6214005829519920 [Eh]
	-----------------------------------------------------------

  Dipole Moment: [D]
     X:    -2.2897      Y:    -1.2605      Z:    -0.0000     Total:     2.6137

*** Psi4 exiting successfully. Buy a developer a beer!
