                               Psi4 1.3.2 release

  ==> Input File <==

--------------------------------------------------------------------------
#psi4
#
memory 32 gb

molecule  {
0 1
  N        1.9514160     0.5241040     0.0000050
  C        1.2086113    -0.5944536    -0.0000029
  C       -0.1789070    -0.5171830    -0.0000110
  C       -0.7103380     0.7755800     0.0000000
  N       -0.0279430     1.9332850     0.0000050
  C        1.2911430     1.7045360     0.0000120
  N       -1.1651470    -1.4838950    -0.0000170
  C       -2.2855240    -0.7743080     0.0000440
  N       -2.0747130     0.5813540    -0.0000230
  N        1.8664710    -1.8000490    -0.0000060
  H        1.9266830     2.5875900     0.0000020
  H       -3.2831410    -1.1955370     0.0000680
  H       -2.7752520     1.3134440    -0.0000840
  H        2.8756040    -1.8180060     0.0000090
  H        1.3377970    -2.6593590     0.0000020
units angstrom
no_reorient  #important for SAPT in psi4, default
symmetry c1  #important for SAPT in psi4, default
}

set PROPERTIES_ORIGIN ["COM"]
properties('MP2/aug-cc-pvtz', properties = ['dipole'])
--------------------------------------------------------------------------

    Molecular point group: c1
  Charge       = 0
  Multiplicity = 1
  Basis Set: AUG-CC-PVTZ
    Blend: AUG-CC-PVTZ
  Basis Set: (AUG-CC-PVTZ AUX)
    Blend: AUG-CC-PVTZ-JKFIT

    Orbital Energies [Eh]
    ---------------------

    Doubly Occupied:

       1A    -15.636034     2A    -15.581269     3A    -15.572993
       4A    -15.561149     5A    -15.553272     6A    -11.337128
       7A    -11.328873     8A    -11.320592     9A    -11.312917
      10A    -11.252660    11A     -1.368193    12A     -1.296821
      13A     -1.241364    14A     -1.185014    15A     -1.150492
      16A     -1.036223    17A     -0.896198    18A     -0.877595
      19A     -0.848044    20A     -0.776602    21A     -0.734909
      22A     -0.699051    23A     -0.674040    24A     -0.639440
      25A     -0.629722    26A     -0.615937    27A     -0.590214
      28A     -0.556275    29A     -0.498676    30A     -0.495566
      31A     -0.454951    32A     -0.424073    33A     -0.412935
      34A     -0.373573    35A     -0.310648

  @DF-RHF Final Energy:  -464.68122902402490

   => Energetics <=

    Nuclear Repulsion Energy =            502.0420582626859982
    One-Electron Energy =               -1626.9596831184801431
    Two-Electron Energy =                 660.2363958317693005
    Total Energy =                       -464.6812290240249013
  Basis Set: (AUG-CC-PVTZ AUX)
    Blend: AUG-CC-PVTZ-RI
    Molecular point group: c1

    Geometry (in Angstrom), charge = 0, multiplicity = 1:

       Center              X                  Y                   Z               Mass
    ------------   -----------------  -----------------  -----------------  -----------------
         N            1.953748237844     0.509955962023     0.000005014321    14.003074004430
         C            1.210943537844    -0.608601637977    -0.000002885679    12.000000000000
         C           -0.176574762156    -0.531331037977    -0.000010985679    12.000000000000
         C           -0.708005762156     0.761431962023     0.000000014321    12.000000000000
         N           -0.025610762156     1.919136962023     0.000005014321    14.003074004430
         C            1.293475237844     1.690387962023     0.000012014321    12.000000000000
         N           -1.162814762156    -1.498043037977    -0.000016985679    14.003074004430
         C           -2.283191762156    -0.788456037977     0.000044014321    12.000000000000
         N           -2.072380762156     0.567205962023    -0.000022985679    14.003074004430
         N            1.868803237844    -1.814197037977    -0.000005985679    14.003074004430
         H            1.929015237844     2.573441962023     0.000002014321     1.007825032230
         H           -3.280808762156    -1.209685037977     0.000068014321     1.007825032230
         H           -2.772919762156     1.299295962023    -0.000083985679     1.007825032230
         H            2.877936237844    -1.832154037977     0.000009014321     1.007825032230
         H            1.340129237844    -2.673507037977     0.000002014321     1.007825032230

  Basis Set: AUG-CC-PVTZ
    Blend: AUG-CC-PVTZ
  Basis Set: (AUG-CC-PVTZ AUX)
    Blend: AUG-CC-PVTZ-JKFIT
	 Reference Energy          =    -464.6812290240249013 [Eh]
	 Singles Energy            =      -0.0000000000000000 [Eh]
	 Same-Spin Energy          =      -0.5062949499232324 [Eh]
	 Opposite-Spin Energy      =      -1.4763651357808631 [Eh]
	 Correlation Energy        =      -1.9826600857040955 [Eh]
	 Total Energy              =    -466.6638891097289843 [Eh]

	 ================> DF-SCS-MP2 Energies <==================
	-----------------------------------------------------------
	 SCS Same-Spin Scale       =       0.3333333333333333 [-]
	 SCS Opposite-Spin Scale   =       1.2000000000000000 [-]
	 SCS Same-Spin Energy      =      -0.1687649833077441 [Eh]
	 SCS Opposite-Spin Energy  =      -1.7716381629370357 [Eh]
	 SCS Correlation Energy    =      -1.9404031462447797 [Eh]
	 SCS Total Energy          =    -466.6216321702696632 [Eh]
	-----------------------------------------------------------

  Dipole Moment: [D]
     X:    -2.3975      Y:    -1.0201      Z:    -0.0000     Total:     2.6055

*** Psi4 exiting successfully. Buy a developer a beer!
