                               Psi4 1.3.2 release

  ==> Input File <==

--------------------------------------------------------------------------
#psi4
#
memory 32 gb

molecule  {
0 1
  N        1.9514160     0.5241040     0.0000050
  C        1.2282460    -0.6072470    -0.0000030
  C       -0.1789070    -0.5171830    -0.0000110
  C       -0.6900293     0.7638469     0.0000001
  N       -0.0279430     1.9332850     0.0000050
  C        1.2911430     1.7045360     0.0000120
  N       -1.1651470    -1.4838950    -0.0000170
  C       -2.2855240    -0.7743080     0.0000440
  N       -2.0747130     0.5813540    -0.0000230
  N        1.8664710    -1.8000490    -0.0000060
  H        1.9266830     2.5875900     0.0000020
  H       -3.2831410    -1.1955370     0.0000680
  H       -2.7752520     1.3134440    -0.0000840
  H        2.8756040    -1.8180060     0.0000090
  H        1.3377970    -2.6593590     0.0000020
units angstrom
no_reorient  #important for SAPT in psi4, default
symmetry c1  #important for SAPT in psi4, default
}

set PROPERTIES_ORIGIN ["COM"]
properties('MP2/aug-cc-pvtz', properties = ['dipole'])
--------------------------------------------------------------------------

    Molecular point group: c1
  Charge       = 0
  Multiplicity = 1
  Basis Set: AUG-CC-PVTZ
    Blend: AUG-CC-PVTZ
  Basis Set: (AUG-CC-PVTZ AUX)
    Blend: AUG-CC-PVTZ-JKFIT

    Orbital Energies [Eh]
    ---------------------

    Doubly Occupied:

       1A    -15.632259     2A    -15.586507     3A    -15.570228
       4A    -15.560216     5A    -15.552186     6A    -11.339744
       7A    -11.327014     8A    -11.316956     9A    -11.312542
      10A    -11.252246    11A     -1.363656    12A     -1.297828
      13A     -1.246075    14A     -1.183013    15A     -1.151293
      16A     -1.035027    17A     -0.893940    18A     -0.874928
      19A     -0.845914    20A     -0.777841    21A     -0.737536
      22A     -0.700684    23A     -0.673868    24A     -0.636683
      25A     -0.632326    26A     -0.614393    27A     -0.586843
      28A     -0.557608    29A     -0.497609    30A     -0.497080
      31A     -0.453574    32A     -0.422633    33A     -0.412574
      34A     -0.374815    35A     -0.309517

  @DF-RHF Final Energy:  -464.68170367019360

   => Energetics <=

    Nuclear Repulsion Energy =            502.0160957412913945
    One-Electron Energy =               -1626.9412886249681378
    Two-Electron Energy =                 660.2434892134832580
    Total Energy =                       -464.6817036701935422
  Basis Set: (AUG-CC-PVTZ AUX)
    Blend: AUG-CC-PVTZ-RI
    Molecular point group: c1

    Geometry (in Angstrom), charge = 0, multiplicity = 1:

       Center              X                  Y                   Z               Mass
    ------------   -----------------  -----------------  -----------------  -----------------
         N            1.950199146054     0.512135215661     0.000005014321    14.003074004430
         C            1.227029146054    -0.619215784339    -0.000002985679    12.000000000000
         C           -0.180123853946    -0.529151784339    -0.000010985679    12.000000000000
         C           -0.691246153946     0.751878115661     0.000000114321    12.000000000000
         N           -0.029159853946     1.921316215661     0.000005014321    14.003074004430
         C            1.289926146054     1.692567215661     0.000012014321    12.000000000000
         N           -1.166363853946    -1.495863784339    -0.000016985679    14.003074004430
         C           -2.286740853946    -0.786276784339     0.000044014321    12.000000000000
         N           -2.075929853946     0.569385215661    -0.000022985679    14.003074004430
         N            1.865254146054    -1.812017784339    -0.000005985679    14.003074004430
         H            1.925466146054     2.575621215661     0.000002014321     1.007825032230
         H           -3.284357853946    -1.207505784339     0.000068014321     1.007825032230
         H           -2.776468853946     1.301475215661    -0.000083985679     1.007825032230
         H            2.874387146054    -1.829974784339     0.000009014321     1.007825032230
         H            1.336580146054    -2.671327784339     0.000002014321     1.007825032230

  Basis Set: AUG-CC-PVTZ
    Blend: AUG-CC-PVTZ
  Basis Set: (AUG-CC-PVTZ AUX)
    Blend: AUG-CC-PVTZ-JKFIT
	 Reference Energy          =    -464.6817036701935990 [Eh]
	 Singles Energy            =      -0.0000000000000000 [Eh]
	 Same-Spin Energy          =      -0.5060856631041851 [Eh]
	 Opposite-Spin Energy      =      -1.4761876735568153 [Eh]
	 Correlation Energy        =      -1.9822733366610006 [Eh]
	 Total Energy              =    -466.6639770068546227 [Eh]

	 ================> DF-SCS-MP2 Energies <==================
	-----------------------------------------------------------
	 SCS Same-Spin Scale       =       0.3333333333333333 [-]
	 SCS Opposite-Spin Scale   =       1.2000000000000000 [-]
	 SCS Same-Spin Energy      =      -0.1686952210347284 [Eh]
	 SCS Opposite-Spin Energy  =      -1.7714252082681783 [Eh]
	 SCS Correlation Energy    =      -1.9401204293029066 [Eh]
	 SCS Total Energy          =    -466.6218240994965072 [Eh]
	-----------------------------------------------------------

  Dipole Moment: [D]
     X:    -2.1684      Y:    -1.1841      Z:    -0.0000     Total:     2.4706

*** Psi4 exiting successfully. Buy a developer a beer!
