                               Psi4 1.3.2 release

  ==> Input File <==

--------------------------------------------------------------------------
#psi4
#
memory 32 gb

molecule  {
0 1
  N        1.9922103     0.5478663     0.0000055
  C        1.2282460    -0.6072470    -0.0000030
  C       -0.1789070    -0.5171830    -0.0000110
  C       -0.7103380     0.7755800     0.0000000
  N       -0.0279430     1.9332850     0.0000050
  C        1.2911430     1.7045360     0.0000120
  N       -1.1651470    -1.4838950    -0.0000170
  C       -2.2855240    -0.7743080     0.0000440
  N       -2.0747130     0.5813540    -0.0000230
  N        1.8664710    -1.8000490    -0.0000060
  H        1.9266830     2.5875900     0.0000020
  H       -3.2831410    -1.1955370     0.0000680
  H       -2.7752520     1.3134440    -0.0000840
  H        2.8756040    -1.8180060     0.0000090
  H        1.3377970    -2.6593590     0.0000020
units angstrom
no_reorient  #important for SAPT in psi4, default
symmetry c1  #important for SAPT in psi4, default
}

set PROPERTIES_ORIGIN ["COM"]
properties('MP2/aug-cc-pvtz', properties = ['dipole'])
--------------------------------------------------------------------------

    Molecular point group: c1
  Charge       = 0
  Multiplicity = 1
  Basis Set: AUG-CC-PVTZ
    Blend: AUG-CC-PVTZ
  Basis Set: (AUG-CC-PVTZ AUX)
    Blend: AUG-CC-PVTZ-JKFIT

    Orbital Energies [Eh]
    ---------------------

    Doubly Occupied:

       1A    -15.635308     2A    -15.589005     3A    -15.572886
       4A    -15.557868     5A    -15.557130     6A    -11.344082
       7A    -11.327886     8A    -11.320377     9A    -11.310634
      10A    -11.253837    11A     -1.366720    12A     -1.291666
      13A     -1.245657    14A     -1.186529    15A     -1.147771
      16A     -1.032641    17A     -0.895270    18A     -0.872209
      19A     -0.846974    20A     -0.777324    21A     -0.738603
      22A     -0.700412    23A     -0.673257    24A     -0.637556
      25A     -0.631027    26A     -0.612921    27A     -0.586602
      28A     -0.554799    29A     -0.497905    30A     -0.495843
      31A     -0.453979    32A     -0.425475    33A     -0.413872
      34A     -0.372996    35A     -0.307470

  @DF-RHF Final Energy:  -464.67851827203901

   => Energetics <=

    Nuclear Repulsion Energy =            500.5891240636494786
    One-Electron Energy =               -1624.0662997152351181
    Two-Electron Energy =                 658.7986573795466256
    Total Energy =                       -464.6785182720390139
  Basis Set: (AUG-CC-PVTZ AUX)
    Blend: AUG-CC-PVTZ-RI
    Molecular point group: c1

    Geometry (in Angstrom), charge = 0, multiplicity = 1:

       Center              X                  Y                   Z               Mass
    ------------   -----------------  -----------------  -----------------  -----------------
         N            1.988568193926     0.532391209227     0.000005471364    14.003074004430
         C            1.224603893926    -0.622722090773    -0.000003028636    12.000000000000
         C           -0.182549106074    -0.532658090773    -0.000011028636    12.000000000000
         C           -0.713980106074     0.760104909227    -0.000000028636    12.000000000000
         N           -0.031585106074     1.917809909227     0.000004971364    14.003074004430
         C            1.287500893926     1.689060909227     0.000011971364    12.000000000000
         N           -1.168789106074    -1.499370090773    -0.000017028636    14.003074004430
         C           -2.289166106074    -0.789783090773     0.000043971364    12.000000000000
         N           -2.078355106074     0.565878909227    -0.000023028636    14.003074004430
         N            1.862828893926    -1.815524090773    -0.000006028636    14.003074004430
         H            1.923040893926     2.572114909227     0.000001971364     1.007825032230
         H           -3.286783106074    -1.211012090773     0.000067971364     1.007825032230
         H           -2.778894106074     1.297968909227    -0.000084028636     1.007825032230
         H            2.871961893926    -1.833481090773     0.000008971364     1.007825032230
         H            1.334154893926    -2.674834090773     0.000001971364     1.007825032230

  Basis Set: AUG-CC-PVTZ
    Blend: AUG-CC-PVTZ
  Basis Set: (AUG-CC-PVTZ AUX)
    Blend: AUG-CC-PVTZ-JKFIT
	 Reference Energy          =    -464.6785182720390139 [Eh]
	 Singles Energy            =      -0.0000000000000000 [Eh]
	 Same-Spin Energy          =      -0.5062584593459414 [Eh]
	 Opposite-Spin Energy      =      -1.4769993851843997 [Eh]
	 Correlation Energy        =      -1.9832578445303410 [Eh]
	 Total Energy              =    -466.6617761165693423 [Eh]

	 ================> DF-SCS-MP2 Energies <==================
	-----------------------------------------------------------
	 SCS Same-Spin Scale       =       0.3333333333333333 [-]
	 SCS Opposite-Spin Scale   =       1.2000000000000000 [-]
	 SCS Same-Spin Energy      =      -0.1687528197819805 [Eh]
	 SCS Opposite-Spin Energy  =      -1.7723992622212796 [Eh]
	 SCS Correlation Energy    =      -1.9411520820032602 [Eh]
	 SCS Total Energy          =    -466.6196703540422845 [Eh]
	-----------------------------------------------------------

  Dipole Moment: [D]
     X:    -2.3210      Y:    -1.3363      Z:    -0.0000     Total:     2.6782

*** Psi4 exiting successfully. Buy a developer a beer!
