                               Psi4 1.3.2 release

  ==> Input File <==

--------------------------------------------------------------------------
#psi4
#
memory 32 gb

molecule  {
0 1
  N        1.9514160     0.5241040     0.0000050
  C        1.2282460    -0.6072470    -0.0000030
  C       -0.1789070    -0.5171830    -0.0000110
  C       -0.7103380     0.7755800     0.0000000
  N       -0.0279430     1.9332850     0.0000050
  C        1.2911430     1.7045360     0.0000120
  N       -1.1651470    -1.4838950    -0.0000170
  C       -2.2855240    -0.7743080     0.0000440
  N       -2.0747130     0.5813540    -0.0000230
  N        1.8664710    -1.8000490    -0.0000060
  H        1.9266830     2.5875900     0.0000020
  H       -3.4673901    -1.2733334     0.0000724
  H       -2.7752520     1.3134440    -0.0000840
  H        2.8756040    -1.8180060     0.0000090
  H        1.3377970    -2.6593590     0.0000020
units angstrom
no_reorient  #important for SAPT in psi4, default
symmetry c1  #important for SAPT in psi4, default
}

set PROPERTIES_ORIGIN ["COM"]
properties('MP2/aug-cc-pvtz', properties = ['dipole'])
--------------------------------------------------------------------------

    Molecular point group: c1
  Charge       = 0
  Multiplicity = 1
  Basis Set: AUG-CC-PVTZ
    Blend: AUG-CC-PVTZ
  Basis Set: (AUG-CC-PVTZ AUX)
    Blend: AUG-CC-PVTZ-JKFIT

    Orbital Energies [Eh]
    ---------------------

    Doubly Occupied:

       1A    -15.636417     2A    -15.585892     3A    -15.572991
       4A    -15.559979     5A    -15.552139     6A    -11.346156
       7A    -11.339310     8A    -11.319025     9A    -11.312777
      10A    -11.253994    11A     -1.367185    12A     -1.297666
      13A     -1.245709    14A     -1.186710    15A     -1.151523
      16A     -1.029173    17A     -0.888224    18A     -0.875556
      19A     -0.840798    20A     -0.772249    21A     -0.736331
      22A     -0.692183    23A     -0.675168    24A     -0.638646
      25A     -0.626565    26A     -0.604279    27A     -0.572586
      28A     -0.558604    29A     -0.497347    30A     -0.496877
      31A     -0.451958    32A     -0.425247    33A     -0.411134
      34A     -0.373613    35A     -0.308115

  @DF-RHF Final Energy:  -464.65892971960324

   => Energetics <=

    Nuclear Repulsion Energy =            500.8376319554106431
    One-Electron Energy =               -1624.5888763520686098
    Two-Electron Energy =                 659.0923146770546737
    Total Energy =                       -464.6589297196032931
  Basis Set: (AUG-CC-PVTZ AUX)
    Blend: AUG-CC-PVTZ-RI
    Molecular point group: c1

    Geometry (in Angstrom), charge = 0, multiplicity = 1:

       Center              X                  Y                   Z               Mass
    ------------   -----------------  -----------------  -----------------  -----------------
         N            1.953378568217     0.511673238882     0.000004990372    14.003074004430
         C            1.230208568217    -0.619677761118    -0.000003009628    12.000000000000
         C           -0.176944431783    -0.529613761118    -0.000011009628    12.000000000000
         C           -0.708375431783     0.763149238882    -0.000000009628    12.000000000000
         N           -0.025980431783     1.920854238882     0.000004990372    14.003074004430
         C            1.293105568217     1.692105238882     0.000011990372    12.000000000000
         N           -1.163184431783    -1.496325761118    -0.000017009628    14.003074004430
         C           -2.283561431783    -0.786738761118     0.000043990372    12.000000000000
         N           -2.072750431783     0.568923238882    -0.000023009628    14.003074004430
         N            1.868433568217    -1.812479761118    -0.000006009628    14.003074004430
         H            1.928645568217     2.575159238882     0.000001990372     1.007825032230
         H           -3.465427531783    -1.285764161118     0.000072390372     1.007825032230
         H           -2.773289431783     1.301013238882    -0.000084009628     1.007825032230
         H            2.877566568217    -1.830436761118     0.000008990372     1.007825032230
         H            1.339759568217    -2.671789761118     0.000001990372     1.007825032230

  Basis Set: AUG-CC-PVTZ
    Blend: AUG-CC-PVTZ
  Basis Set: (AUG-CC-PVTZ AUX)
    Blend: AUG-CC-PVTZ-JKFIT
	 Reference Energy          =    -464.6589297196032362 [Eh]
	 Singles Energy            =      -0.0000000000000000 [Eh]
	 Same-Spin Energy          =      -0.5069273404970078 [Eh]
	 Opposite-Spin Energy      =      -1.4783688655166802 [Eh]
	 Correlation Energy        =      -1.9852962060136881 [Eh]
	 Total Energy              =    -466.6442259256169223 [Eh]

	 ================> DF-SCS-MP2 Energies <==================
	-----------------------------------------------------------
	 SCS Same-Spin Scale       =       0.3333333333333333 [-]
	 SCS Opposite-Spin Scale   =       1.2000000000000000 [-]
	 SCS Same-Spin Energy      =      -0.1689757801656693 [Eh]
	 SCS Opposite-Spin Energy  =      -1.7740426386200163 [Eh]
	 SCS Correlation Energy    =      -1.9430184187856856 [Eh]
	 SCS Total Energy          =    -466.6019481383889342 [Eh]
	-----------------------------------------------------------

  Dipole Moment: [D]
     X:    -2.2355      Y:    -1.1964      Z:    -0.0000     Total:     2.5355

*** Psi4 exiting successfully. Buy a developer a beer!
