                               Psi4 1.3.2 release

  ==> Input File <==

--------------------------------------------------------------------------
#psi4
#
memory 32 gb

molecule  {
0 1
  N        1.9514160     0.5241040     0.0000050
  C        1.2282460    -0.6072470    -0.0000030
  C       -0.0832608    -0.6255689    -0.0000180
  C       -0.7103380     0.7755800     0.0000000
  N       -0.0279430     1.9332850     0.0000050
  C        1.2911430     1.7045360     0.0000120
  N       -1.1651470    -1.4838950    -0.0000170
  C       -2.2855240    -0.7743080     0.0000440
  N       -2.0747130     0.5813540    -0.0000230
  N        1.8664710    -1.8000490    -0.0000060
  H        1.9266830     2.5875900     0.0000020
  H       -3.2831410    -1.1955370     0.0000680
  H       -2.7752520     1.3134440    -0.0000840
  H        2.8756040    -1.8180060     0.0000090
  H        1.3377970    -2.6593590     0.0000020
units angstrom
no_reorient  #important for SAPT in psi4, default
symmetry c1  #important for SAPT in psi4, default
}

set PROPERTIES_ORIGIN ["COM"]
properties('MP2/aug-cc-pvtz', properties = ['dipole'])
--------------------------------------------------------------------------

    Molecular point group: c1
  Charge       = 0
  Multiplicity = 1
  Basis Set: AUG-CC-PVTZ
    Blend: AUG-CC-PVTZ
  Basis Set: (AUG-CC-PVTZ AUX)
    Blend: AUG-CC-PVTZ-JKFIT

    Orbital Energies [Eh]
    ---------------------

    Doubly Occupied:

       1A    -15.642162     2A    -15.575036     3A    -15.571582
       4A    -15.563640     5A    -15.552647     6A    -11.337809
       7A    -11.332382     8A    -11.321393     9A    -11.314367
      10A    -11.257852    11A     -1.361340    12A     -1.298090
      13A     -1.246080    14A     -1.185547    15A     -1.150769
      16A     -1.032671    17A     -0.904501    18A     -0.884377
      19A     -0.837259    20A     -0.775885    21A     -0.742224
      22A     -0.695077    23A     -0.679901    24A     -0.635295
      25A     -0.633711    26A     -0.610819    27A     -0.590827
      28A     -0.560181    29A     -0.500869    30A     -0.497951
      31A     -0.443392    32A     -0.426071    33A     -0.404964
      34A     -0.369190    35A     -0.305258

  @DF-RHF Final Energy:  -464.65180187870794

   => Energetics <=

    Nuclear Repulsion Energy =            500.9143692706977049
    One-Electron Energy =               -1624.6501081461367448
    Two-Electron Energy =                 659.0839369967310404
    Total Energy =                       -464.6518018787079427
  Basis Set: (AUG-CC-PVTZ AUX)
    Blend: AUG-CC-PVTZ-RI
    Molecular point group: c1

    Geometry (in Angstrom), charge = 0, multiplicity = 1:

       Center              X                  Y                   Z               Mass
    ------------   -----------------  -----------------  -----------------  -----------------
         N            1.943505181527     0.520723109003     0.000005645178    14.003074004430
         C            1.220335181527    -0.610627890997    -0.000002354822    12.000000000000
         C           -0.091171618473    -0.628949790997    -0.000017354822    12.000000000000
         C           -0.718248818473     0.772199109003     0.000000645178    12.000000000000
         N           -0.035853818473     1.929904109003     0.000005645178    14.003074004430
         C            1.283232181527     1.701155109003     0.000012645178    12.000000000000
         N           -1.173057818473    -1.487275890997    -0.000016354822    14.003074004430
         C           -2.293434818473    -0.777688890997     0.000044645178    12.000000000000
         N           -2.082623818473     0.577973109003    -0.000022354822    14.003074004430
         N            1.858560181527    -1.803429890997    -0.000005354822    14.003074004430
         H            1.918772181527     2.584209109003     0.000002645178     1.007825032230
         H           -3.291051818473    -1.198917890997     0.000068645178     1.007825032230
         H           -2.783162818473     1.310063109003    -0.000083354822     1.007825032230
         H            2.867693181527    -1.821386890997     0.000009645178     1.007825032230
         H            1.329886181527    -2.662739890997     0.000002645178     1.007825032230

  Basis Set: AUG-CC-PVTZ
    Blend: AUG-CC-PVTZ
  Basis Set: (AUG-CC-PVTZ AUX)
    Blend: AUG-CC-PVTZ-JKFIT
	 Reference Energy          =    -464.6518018787079427 [Eh]
	 Singles Energy            =      -0.0000000000000000 [Eh]
	 Same-Spin Energy          =      -0.5077949585059964 [Eh]
	 Opposite-Spin Energy      =      -1.4785496715134383 [Eh]
	 Correlation Energy        =      -1.9863446300194347 [Eh]
	 Total Energy              =    -466.6381465087274023 [Eh]

	 ================> DF-SCS-MP2 Energies <==================
	-----------------------------------------------------------
	 SCS Same-Spin Scale       =       0.3333333333333333 [-]
	 SCS Opposite-Spin Scale   =       1.2000000000000000 [-]
	 SCS Same-Spin Energy      =      -0.1692649861686655 [Eh]
	 SCS Opposite-Spin Energy  =      -1.7742596058161260 [Eh]
	 SCS Correlation Energy    =      -1.9435245919847914 [Eh]
	 SCS Total Energy          =    -466.5953264706927257 [Eh]
	-----------------------------------------------------------

  Dipole Moment: [D]
     X:    -2.5493      Y:    -0.9054      Z:    -0.0000     Total:     2.7053

*** Psi4 exiting successfully. Buy a developer a beer!
