                               Psi4 1.4a3.dev225

  ==> Input File <==

--------------------------------------------------------------------------
#psi4
#
memory 32 gb

molecule  {
0 1
  N        1.9483950     0.5259860     0.0099940
  C        1.2281250    -0.6055780    -0.0011110
  C       -0.1777080    -0.5183570    -0.0133480
  C       -0.7121930     0.7746180    -0.0067610
  N       -0.0315150     1.9321470    -0.0030770
  C        1.2882650     1.7066530     0.0061850
  N       -1.1633520    -1.4857590     0.0015620
  C       -2.2839740    -0.7772230     0.0077650
  N       -2.0759200     0.5789190     0.0016180
  N        1.9002940    -1.8480983    -0.0679428
  H        1.9224110     2.5904960     0.0146870
  H       -3.2809510    -1.1999800     0.0170960
  H       -2.7777110     1.3098630     0.0041890
  H        2.8553720    -1.7872280     0.1925460
  H        1.3468110    -2.6236890     0.2034770
units angstrom
no_reorient  #important for SAPT in psi4, default
symmetry c1  #important for SAPT in psi4, default
}

set PROPERTIES_ORIGIN ["COM"]
properties('MP2/aug-cc-pvtz', properties = ['dipole'])
--------------------------------------------------------------------------

    Molecular point group: c1
  Charge       = 0
  Multiplicity = 1
  Basis Set: AUG-CC-PVTZ
    Blend: AUG-CC-PVTZ
  Basis Set: (AUG-CC-PVTZ AUX)
    Blend: AUG-CC-PVTZ-JKFIT

    Orbital Energies [Eh]
    ---------------------

    Doubly Occupied:

       1A    -15.638120     2A    -15.578547     3A    -15.574290
       4A    -15.566530     5A    -15.558359     6A    -11.341807
       7A    -11.330827     8A    -11.322957     9A    -11.315984
      10A    -11.258530    11A     -1.370069    12A     -1.296636
      13A     -1.239919    14A     -1.186854    15A     -1.154414
      16A     -1.036450    17A     -0.896477    18A     -0.877975
      19A     -0.849613    20A     -0.774484    21A     -0.730943
      22A     -0.702320    23A     -0.676347    24A     -0.640978
      25A     -0.628024    26A     -0.616262    27A     -0.593035
      28A     -0.554065    29A     -0.501005    30A     -0.495933
      31A     -0.456633    32A     -0.428519    33A     -0.413911
      34A     -0.377397    35A     -0.315132

  @DF-RHF Final Energy:  -464.67873666520245

   => Energetics <=

    Nuclear Repulsion Energy =            500.4710421948981320
    One-Electron Energy =               -1623.7008687221673426
    Two-Electron Energy =                 658.5510898620668740
    Total Energy =                       -464.6787366652024502
  Basis Set: (AUG-CC-PVTZ AUX)
    Blend: AUG-CC-PVTZ-RI
    Molecular point group: c1

    Geometry (in Angstrom), charge = 0, multiplicity = 1:

       Center              X                  Y                   Z               Mass
    ------------   -----------------  -----------------  -----------------  -----------------
         N            1.946402971575     0.517979999143     0.013413979785    14.003074004430
         C            1.226132971575    -0.613584000857     0.002308979785    12.000000000000
         C           -0.179700028425    -0.526363000857    -0.009928020215    12.000000000000
         C           -0.714185028425     0.766611999143    -0.003341020215    12.000000000000
         N           -0.033507028425     1.924140999143     0.000342979785    14.003074004430
         C            1.286272971575     1.698646999143     0.009604979785    12.000000000000
         N           -1.165344028425    -1.493765000857     0.004981979785    14.003074004430
         C           -2.285966028425    -0.785229000857     0.011184979785    12.000000000000
         N           -2.077912028425     0.570912999143     0.005037979785    14.003074004430
         N            1.898301971575    -1.856104300857    -0.064522820215    14.003074004430
         H            1.920418971575     2.582489999143     0.018106979785     1.007825032230
         H           -3.282943028425    -1.207986000857     0.020515979785     1.007825032230
         H           -2.779703028425     1.301856999143     0.007608979785     1.007825032230
         H            2.853379971575    -1.795234000857     0.195965979785     1.007825032230
         H            1.344818971575    -2.631695000857     0.206896979785     1.007825032230

  Basis Set: AUG-CC-PVTZ
    Blend: AUG-CC-PVTZ
  Basis Set: (AUG-CC-PVTZ AUX)
    Blend: AUG-CC-PVTZ-JKFIT
	 Reference Energy          =    -464.6787366652024502 [Eh]
	 Singles Energy            =      -0.0000000000000000 [Eh]
	 Same-Spin Energy          =      -0.5061499868867859 [Eh]
	 Opposite-Spin Energy      =      -1.4765430102785513 [Eh]
	 Correlation Energy        =      -1.9826929971653371 [Eh]
	 Total Energy              =    -466.6614296623677660 [Eh]

	 ================> DF-SCS-MP2 Energies <==================
	-----------------------------------------------------------
	 SCS Same-Spin Scale       =       0.3333333333333333 [-]
	 SCS Opposite-Spin Scale   =       1.2000000000000000 [-]
	 SCS Same-Spin Energy      =      -0.1687166622955953 [Eh]
	 SCS Opposite-Spin Energy  =      -1.7718516123342616 [Eh]
	 SCS Correlation Energy    =      -1.9405682746298569 [Eh]
	 SCS Total Energy          =    -466.6193049398323183 [Eh]
	-----------------------------------------------------------

  Dipole Moment: [D]
     X:    -2.6835      Y:    -0.5443      Z:     0.7451     Total:     2.8377

*** Psi4 exiting successfully. Buy a developer a beer!
