                               Psi4 1.3.2 release

  ==> Input File <==

--------------------------------------------------------------------------
#psi4
#
memory 32 gb

molecule  {
0 1
  N        1.9514160     0.5241040     0.0000050
  C        1.2282460    -0.6072470    -0.0000030
  C       -0.1341140    -0.4978488    -0.0000111
  C       -0.7103380     0.7755800     0.0000000
  N       -0.0279430     1.9332850     0.0000050
  C        1.2911430     1.7045360     0.0000120
  N       -1.1651470    -1.4838950    -0.0000170
  C       -2.2855240    -0.7743080     0.0000440
  N       -2.0747130     0.5813540    -0.0000230
  N        1.8664710    -1.8000490    -0.0000060
  H        1.9266830     2.5875900     0.0000020
  H       -3.2831410    -1.1955370     0.0000680
  H       -2.7752520     1.3134440    -0.0000840
  H        2.8756040    -1.8180060     0.0000090
  H        1.3377970    -2.6593590     0.0000020
units angstrom
no_reorient  #important for SAPT in psi4, default
symmetry c1  #important for SAPT in psi4, default
}

set PROPERTIES_ORIGIN ["COM"]
properties('MP2/aug-cc-pvtz', properties = ['dipole'])
--------------------------------------------------------------------------

    Molecular point group: c1
  Charge       = 0
  Multiplicity = 1
  Basis Set: AUG-CC-PVTZ
    Blend: AUG-CC-PVTZ
  Basis Set: (AUG-CC-PVTZ AUX)
    Blend: AUG-CC-PVTZ-JKFIT

    Orbital Energies [Eh]
    ---------------------

    Doubly Occupied:

       1A    -15.634784     2A    -15.583531     3A    -15.572853
       4A    -15.560151     5A    -15.551557     6A    -11.333504
       7A    -11.328584     8A    -11.322773     9A    -11.312476
      10A    -11.251057    11A     -1.363095    12A     -1.298627
      13A     -1.244358    14A     -1.178358    15A     -1.150582
      16A     -1.037438    17A     -0.898476    18A     -0.877294
      19A     -0.843030    20A     -0.779042    21A     -0.737695
      22A     -0.697972    23A     -0.673631    24A     -0.637269
      25A     -0.633422    26A     -0.620386    27A     -0.589772
      28A     -0.559287    29A     -0.496181    30A     -0.495979
      31A     -0.445607    32A     -0.419998    33A     -0.412700
      34A     -0.372295    35A     -0.314116

  @DF-RHF Final Energy:  -464.67945819858670

   => Energetics <=

    Nuclear Repulsion Energy =            501.8906814205407727
    One-Electron Energy =               -1626.6845191169882128
    Two-Electron Energy =                 660.1143794978607957
    Total Energy =                       -464.6794581985867580
  Basis Set: (AUG-CC-PVTZ AUX)
    Blend: AUG-CC-PVTZ-RI
    Molecular point group: c1

    Geometry (in Angstrom), charge = 0, multiplicity = 1:

       Center              X                  Y                   Z               Mass
    ------------   -----------------  -----------------  -----------------  -----------------
         N            1.948023642013     0.509374792178     0.000005032092    14.003074004430
         C            1.224853642013    -0.621976207822    -0.000002967908    12.000000000000
         C           -0.137506357987    -0.512578007822    -0.000011067908    12.000000000000
         C           -0.713730357987     0.760850792178     0.000000032092    12.000000000000
         N           -0.031335357987     1.918555792178     0.000005032092    14.003074004430
         C            1.287750642013     1.689806792178     0.000012032092    12.000000000000
         N           -1.168539357987    -1.498624207822    -0.000016967908    14.003074004430
         C           -2.288916357987    -0.789037207822     0.000044032092    12.000000000000
         N           -2.078105357987     0.566624792178    -0.000022967908    14.003074004430
         N            1.863078642013    -1.814778207822    -0.000005967908    14.003074004430
         H            1.923290642013     2.572860792178     0.000002032092     1.007825032230
         H           -3.286533357987    -1.210266207822     0.000068032092     1.007825032230
         H           -2.778644357987     1.298714792178    -0.000083967908     1.007825032230
         H            2.872211642013    -1.832735207822     0.000009032092     1.007825032230
         H            1.334404642013    -2.674088207822     0.000002032092     1.007825032230

  Basis Set: AUG-CC-PVTZ
    Blend: AUG-CC-PVTZ
  Basis Set: (AUG-CC-PVTZ AUX)
    Blend: AUG-CC-PVTZ-JKFIT
	 Reference Energy          =    -464.6794581985867012 [Eh]
	 Singles Energy            =      -0.0000000000000000 [Eh]
	 Same-Spin Energy          =      -0.5058581654839781 [Eh]
	 Opposite-Spin Energy      =      -1.4762367066640325 [Eh]
	 Correlation Energy        =      -1.9820948721480107 [Eh]
	 Total Energy              =    -466.6615530707347261 [Eh]

	 ================> DF-SCS-MP2 Energies <==================
	-----------------------------------------------------------
	 SCS Same-Spin Scale       =       0.3333333333333333 [-]
	 SCS Opposite-Spin Scale   =       1.2000000000000000 [-]
	 SCS Same-Spin Energy      =      -0.1686193884946594 [Eh]
	 SCS Opposite-Spin Energy  =      -1.7714840479968390 [Eh]
	 SCS Correlation Energy    =      -1.9401034364914984 [Eh]
	 SCS Total Energy          =    -466.6195616350781847 [Eh]
	-----------------------------------------------------------

  Dipole Moment: [D]
     X:    -2.2771      Y:    -1.1004      Z:    -0.0000     Total:     2.5290

*** Psi4 exiting successfully. Buy a developer a beer!
