                               Psi4 1.3.2 release

  ==> Input File <==

--------------------------------------------------------------------------
#psi4
#
memory 32 gb

molecule  {
0 1
  N        1.9514160     0.5241040     0.0000050
  C        1.2282460    -0.6072470    -0.0000030
  C       -0.1789070    -0.5171830    -0.0000110
  C       -0.7103380     0.7755800     0.0000000
  N       -0.0279430     1.9332850     0.0000050
  C        1.2911430     1.7045360     0.0000120
  N       -1.1651470    -1.4838950    -0.0000170
  C       -2.2855240    -0.7743080     0.0000440
  N       -2.0747130     0.5813540    -0.0000230
  N        1.8664710    -1.8000490    -0.0000060
  H        1.9266830     2.5875900     0.0000020
  H       -3.2831410    -1.1955370     0.0000680
  H       -2.7061154     1.2411936    -0.0000780
  H        2.8756040    -1.8180060     0.0000090
  H        1.3377970    -2.6593590     0.0000020
units angstrom
no_reorient  #important for SAPT in psi4, default
symmetry c1  #important for SAPT in psi4, default
}

set PROPERTIES_ORIGIN ["COM"]
properties('MP2/aug-cc-pvtz', properties = ['dipole'])
--------------------------------------------------------------------------

    Molecular point group: c1
  Charge       = 0
  Multiplicity = 1
  Basis Set: AUG-CC-PVTZ
    Blend: AUG-CC-PVTZ
  Basis Set: (AUG-CC-PVTZ AUX)
    Blend: AUG-CC-PVTZ-JKFIT

    Orbital Energies [Eh]
    ---------------------

    Doubly Occupied:

       1A    -15.625721     2A    -15.586133     3A    -15.572741
       4A    -15.560059     5A    -15.552344     6A    -11.339386
       7A    -11.327580     8A    -11.318920     9A    -11.313016
      10A    -11.253380    11A     -1.371194    12A     -1.298963
      13A     -1.246097    14A     -1.194650    15A     -1.153271
      16A     -1.033150    17A     -0.898185    18A     -0.882523
      19A     -0.861433    20A     -0.782939    21A     -0.741280
      22A     -0.702828    23A     -0.676666    24A     -0.639027
      25A     -0.636355    26A     -0.614682    27A     -0.591043
      28A     -0.559110    29A     -0.498076    30A     -0.497415
      31A     -0.453516    32A     -0.425907    33A     -0.411393
      34A     -0.374127    35A     -0.308331

  @DF-RHF Final Energy:  -464.67576496767572

   => Energetics <=

    Nuclear Repulsion Energy =            502.4863496169949144
    One-Electron Energy =               -1627.7213488631684868
    Two-Electron Energy =                 660.5592342784979110
    Total Energy =                       -464.6757649676757183
  Basis Set: (AUG-CC-PVTZ AUX)
    Blend: AUG-CC-PVTZ-RI
    Molecular point group: c1

    Geometry (in Angstrom), charge = 0, multiplicity = 1:

       Center              X                  Y                   Z               Mass
    ------------   -----------------  -----------------  -----------------  -----------------
         N            1.951487713337     0.511631852643     0.000004978432    14.003074004430
         C            1.228317713337    -0.619719147357    -0.000003021568    12.000000000000
         C           -0.178835286663    -0.529655147357    -0.000011021568    12.000000000000
         C           -0.710266286663     0.763107852643    -0.000000021568    12.000000000000
         N           -0.027871286663     1.920812852643     0.000004978432    14.003074004430
         C            1.291214713337     1.692063852643     0.000011978432    12.000000000000
         N           -1.165075286663    -1.496367147357    -0.000017021568    14.003074004430
         C           -2.285452286663    -0.786780147357     0.000043978432    12.000000000000
         N           -2.074641286663     0.568881852643    -0.000023021568    14.003074004430
         N            1.866542713337    -1.812521147357    -0.000006021568    14.003074004430
         H            1.926754713337     2.575117852643     0.000001978432     1.007825032230
         H           -3.283069286663    -1.208009147357     0.000067978432     1.007825032230
         H           -2.706043686663     1.228721452643    -0.000078021568     1.007825032230
         H            2.875675713337    -1.830478147357     0.000008978432     1.007825032230
         H            1.337868713337    -2.671831147357     0.000001978432     1.007825032230

  Basis Set: AUG-CC-PVTZ
    Blend: AUG-CC-PVTZ
  Basis Set: (AUG-CC-PVTZ AUX)
    Blend: AUG-CC-PVTZ-JKFIT
	 Reference Energy          =    -464.6757649676757183 [Eh]
	 Singles Energy            =      -0.0000000000000000 [Eh]
	 Same-Spin Energy          =      -0.5054988017151161 [Eh]
	 Opposite-Spin Energy      =      -1.4746524218548132 [Eh]
	 Correlation Energy        =      -1.9801512235699292 [Eh]
	 Total Energy              =    -466.6559161912456375 [Eh]

	 ================> DF-SCS-MP2 Energies <==================
	-----------------------------------------------------------
	 SCS Same-Spin Scale       =       0.3333333333333333 [-]
	 SCS Opposite-Spin Scale   =       1.2000000000000000 [-]
	 SCS Same-Spin Energy      =      -0.1684996005717053 [Eh]
	 SCS Opposite-Spin Energy  =      -1.7695829062257757 [Eh]
	 SCS Correlation Energy    =      -1.9380825067974812 [Eh]
	 SCS Total Energy          =    -466.6138474744731752 [Eh]
	-----------------------------------------------------------

  Dipole Moment: [D]
     X:    -2.1483      Y:    -1.2816      Z:    -0.0000     Total:     2.5015

*** Psi4 exiting successfully. Buy a developer a beer!
