                               Psi4 1.4a3.dev225

  ==> Input File <==

--------------------------------------------------------------------------
#psi4
#
memory 32 gb

molecule  {
0 1
  N        1.9483950     0.5259860     0.0099940
  C        1.2281250    -0.6055780    -0.0011110
  C       -0.1777080    -0.5183570    -0.0133480
  C       -0.7121930     0.7746180    -0.0067610
  N       -0.0315150     1.9321470    -0.0030770
  C        1.2882650     1.7066530     0.0061850
  N       -1.1633520    -1.4857590     0.0015620
  C       -2.2839740    -0.7772230     0.0077650
  N       -2.0759200     0.5789190     0.0016180
  N        1.8765300    -1.8041700    -0.0655800
  H        1.9224110     2.5904960     0.0146870
  H       -3.2809510    -1.1999800     0.0170960
  H       -2.7430823     1.2737958     0.0040621
  H        2.8553720    -1.7872280     0.1925460
  H        1.3468110    -2.6236890     0.2034770
units angstrom
no_reorient  #important for SAPT in psi4, default
symmetry c1  #important for SAPT in psi4, default
}

set PROPERTIES_ORIGIN ["COM"]
properties('MP2/aug-cc-pvtz', properties = ['dipole'])
--------------------------------------------------------------------------

    Molecular point group: c1
  Charge       = 0
  Multiplicity = 1
  Basis Set: AUG-CC-PVTZ
    Blend: AUG-CC-PVTZ
  Basis Set: (AUG-CC-PVTZ AUX)
    Blend: AUG-CC-PVTZ-JKFIT

    Orbital Energies [Eh]
    ---------------------

    Doubly Occupied:

       1A    -15.631979     2A    -15.584404     3A    -15.573349
       4A    -15.562947     5A    -15.554641     6A    -11.338384
       7A    -11.328980     8A    -11.320701     9A    -11.314262
      10A    -11.255399    11A     -1.370326    12A     -1.299140
      13A     -1.246033    14A     -1.190988    15A     -1.153752
      16A     -1.034122    17A     -0.896063    18A     -0.879697
      19A     -0.856143    20A     -0.778761    21A     -0.736255
      22A     -0.699556    23A     -0.674623    24A     -0.641038
      25A     -0.632996    26A     -0.612702    27A     -0.592112
      28A     -0.558235    29A     -0.499396    30A     -0.498747
      31A     -0.454748    32A     -0.428370    33A     -0.412384
      34A     -0.375820    35A     -0.311664

  @DF-RHF Final Energy:  -464.68140845138862

   => Energetics <=

    Nuclear Repulsion Energy =            502.0036644716858518
    One-Electron Energy =               -1626.7727135082379846
    Two-Electron Energy =                 660.0876405851635127
    Total Energy =                       -464.6814084513886201
  Basis Set: (AUG-CC-PVTZ AUX)
    Blend: AUG-CC-PVTZ-RI
    Molecular point group: c1

    Geometry (in Angstrom), charge = 0, multiplicity = 1:

       Center              X                  Y                   Z               Mass
    ------------   -----------------  -----------------  -----------------  -----------------
         N            1.948608521117     0.513694456422     0.013169940739    14.003074004430
         C            1.228338521117    -0.617869543578     0.002064940739    12.000000000000
         C           -0.177494478883    -0.530648543578    -0.010172059261    12.000000000000
         C           -0.711979478883     0.762326456422    -0.003585059261    12.000000000000
         N           -0.031301478883     1.919855456422     0.000098940739    14.003074004430
         C            1.288478521117     1.694361456422     0.009360940739    12.000000000000
         N           -1.163138478883    -1.498050543578     0.004737940739    14.003074004430
         C           -2.283760478883    -0.789514543578     0.010940940739    12.000000000000
         N           -2.075706478883     0.566627456422     0.004793940739    14.003074004430
         N            1.876743521117    -1.816461543578    -0.062404059261    14.003074004430
         H            1.922624521117     2.578204456422     0.017862940739     1.007825032230
         H           -3.280737478883    -1.212271543578     0.020271940739     1.007825032230
         H           -2.742868778883     1.261504256422     0.007238040739     1.007825032230
         H            2.855585521117    -1.799519543578     0.195721940739     1.007825032230
         H            1.347024521117    -2.635980543578     0.206652940739     1.007825032230

  Basis Set: AUG-CC-PVTZ
    Blend: AUG-CC-PVTZ
  Basis Set: (AUG-CC-PVTZ AUX)
    Blend: AUG-CC-PVTZ-JKFIT
	 Reference Energy          =    -464.6814084513886201 [Eh]
	 Singles Energy            =      -0.0000000000000000 [Eh]
	 Same-Spin Energy          =      -0.5059286246391388 [Eh]
	 Opposite-Spin Energy      =      -1.4756140003325582 [Eh]
	 Correlation Energy        =      -1.9815426249716970 [Eh]
	 Total Energy              =    -466.6629510763603434 [Eh]

	 ================> DF-SCS-MP2 Energies <==================
	-----------------------------------------------------------
	 SCS Same-Spin Scale       =       0.3333333333333333 [-]
	 SCS Opposite-Spin Scale   =       1.2000000000000000 [-]
	 SCS Same-Spin Energy      =      -0.1686428748797129 [Eh]
	 SCS Opposite-Spin Energy  =      -1.7707368003990698 [Eh]
	 SCS Correlation Energy    =      -1.9393796752787826 [Eh]
	 SCS Total Energy          =    -466.6207881266673780 [Eh]
	-----------------------------------------------------------

  Dipole Moment: [D]
     X:    -2.4091      Y:    -0.9124      Z:     0.7200     Total:     2.6748

*** Psi4 exiting successfully. Buy a developer a beer!
