                               Psi4 1.3.2 release

  ==> Input File <==

--------------------------------------------------------------------------
#psi4
#
memory 32 gb

molecule  {
0 1
  N        1.9514160     0.5241040     0.0000050
  C        1.2282460    -0.6072470    -0.0000030
  C       -0.1789070    -0.5171830    -0.0000110
  C       -0.6695190     0.7524700     0.0000002
  N       -0.0279430     1.9332850     0.0000050
  C        1.2911430     1.7045360     0.0000120
  N       -1.1651470    -1.4838950    -0.0000170
  C       -2.2855240    -0.7743080     0.0000440
  N       -2.0747130     0.5813540    -0.0000230
  N        1.8664710    -1.8000490    -0.0000060
  H        1.9266830     2.5875900     0.0000020
  H       -3.2831410    -1.1955370     0.0000680
  H       -2.7752520     1.3134440    -0.0000840
  H        2.8756040    -1.8180060     0.0000090
  H        1.3377970    -2.6593590     0.0000020
units angstrom
no_reorient  #important for SAPT in psi4, default
symmetry c1  #important for SAPT in psi4, default
}

set PROPERTIES_ORIGIN ["COM"]
properties('MP2/aug-cc-pvtz', properties = ['dipole'])
--------------------------------------------------------------------------

    Molecular point group: c1
  Charge       = 0
  Multiplicity = 1
  Basis Set: AUG-CC-PVTZ
    Blend: AUG-CC-PVTZ
  Basis Set: (AUG-CC-PVTZ AUX)
    Blend: AUG-CC-PVTZ-JKFIT

    Orbital Energies [Eh]
    ---------------------

    Doubly Occupied:

       1A    -15.629837     2A    -15.587402     3A    -15.568761
       4A    -15.561062     5A    -15.552681     6A    -11.340708
       7A    -11.327301     8A    -11.315845     9A    -11.312765
      10A    -11.251657    11A     -1.361353    12A     -1.298314
      13A     -1.246949    14A     -1.180498    15A     -1.151434
      16A     -1.038225    17A     -0.893393    18A     -0.874305
      19A     -0.845538    20A     -0.777238    21A     -0.736863
      22A     -0.701625    23A     -0.672402    24A     -0.635909
      25A     -0.631931    26A     -0.615576    27A     -0.583541
      28A     -0.557160    29A     -0.498376    30A     -0.497419
      31A     -0.454397    32A     -0.420998    33A     -0.414331
      34A     -0.376602    35A     -0.311393

  @DF-RHF Final Energy:  -464.67999028656459

   => Energetics <=

    Nuclear Repulsion Energy =            502.2229159155126013
    One-Electron Energy =               -1627.3582297481907517
    Two-Electron Energy =                 660.4553235461135046
    Total Energy =                       -464.6799902865645890
  Basis Set: (AUG-CC-PVTZ AUX)
    Blend: AUG-CC-PVTZ-RI
    Molecular point group: c1

    Geometry (in Angstrom), charge = 0, multiplicity = 1:

       Center              X                  Y                   Z               Mass
    ------------   -----------------  -----------------  -----------------  -----------------
         N            1.948376743922     0.513146087605     0.000005005436    14.003074004430
         C            1.225206743922    -0.618204912395    -0.000002994564    12.000000000000
         C           -0.181946256078    -0.528140912395    -0.000010994564    12.000000000000
         C           -0.672558256078     0.741512087605     0.000000205436    12.000000000000
         N           -0.030982256078     1.922327087605     0.000005005436    14.003074004430
         C            1.288103743922     1.693578087605     0.000012005436    12.000000000000
         N           -1.168186256078    -1.494852912395    -0.000016994564    14.003074004430
         C           -2.288563256078    -0.785265912395     0.000044005436    12.000000000000
         N           -2.077752256078     0.570396087605    -0.000022994564    14.003074004430
         N            1.863431743922    -1.811006912395    -0.000005994564    14.003074004430
         H            1.923643743922     2.576632087605     0.000002005436     1.007825032230
         H           -3.286180256078    -1.206494912395     0.000068005436     1.007825032230
         H           -2.778291256078     1.302486087605    -0.000083994564     1.007825032230
         H            2.872564743922    -1.828963912395     0.000009005436     1.007825032230
         H            1.334757743922    -2.670316912395     0.000002005436     1.007825032230

  Basis Set: AUG-CC-PVTZ
    Blend: AUG-CC-PVTZ
  Basis Set: (AUG-CC-PVTZ AUX)
    Blend: AUG-CC-PVTZ-JKFIT
	 Reference Energy          =    -464.6799902865645890 [Eh]
	 Singles Energy            =      -0.0000000000000000 [Eh]
	 Same-Spin Energy          =      -0.5058944935028926 [Eh]
	 Opposite-Spin Energy      =      -1.4761894197090442 [Eh]
	 Correlation Energy        =      -1.9820839132119368 [Eh]
	 Total Energy              =    -466.6620741997764981 [Eh]

	 ================> DF-SCS-MP2 Energies <==================
	-----------------------------------------------------------
	 SCS Same-Spin Scale       =       0.3333333333333333 [-]
	 SCS Opposite-Spin Scale   =       1.2000000000000000 [-]
	 SCS Same-Spin Energy      =      -0.1686314978342975 [Eh]
	 SCS Opposite-Spin Energy  =      -1.7714273036508530 [Eh]
	 SCS Correlation Energy    =      -1.9400588014851505 [Eh]
	 SCS Total Energy          =    -466.6200490880497114 [Eh]
	-----------------------------------------------------------

  Dipole Moment: [D]
     X:    -2.0789      Y:    -1.1838      Z:    -0.0000     Total:     2.3923

*** Psi4 exiting successfully. Buy a developer a beer!
