                               Psi4 1.3.2 release

  ==> Input File <==

--------------------------------------------------------------------------
#psi4
#
memory 32 gb

molecule  {
0 1
  N        1.9514160     0.5241040     0.0000050
  C        1.2282460    -0.6072470    -0.0000030
  C       -0.1789070    -0.5171830    -0.0000110
  C       -0.7381143     0.9171320    -0.0000082
  N       -0.0279430     1.9332850     0.0000050
  C        1.2911430     1.7045360     0.0000120
  N       -1.1651470    -1.4838950    -0.0000170
  C       -2.2855240    -0.7743080     0.0000440
  N       -2.0747130     0.5813540    -0.0000230
  N        1.8664710    -1.8000490    -0.0000060
  H        1.9266830     2.5875900     0.0000020
  H       -3.2831410    -1.1955370     0.0000680
  H       -2.7752520     1.3134440    -0.0000840
  H        2.8756040    -1.8180060     0.0000090
  H        1.3377970    -2.6593590     0.0000020
units angstrom
no_reorient  #important for SAPT in psi4, default
symmetry c1  #important for SAPT in psi4, default
}

set PROPERTIES_ORIGIN ["COM"]
properties('MP2/aug-cc-pvtz', properties = ['dipole'])
--------------------------------------------------------------------------

    Molecular point group: c1
  Charge       = 0
  Multiplicity = 1
  Basis Set: AUG-CC-PVTZ
    Blend: AUG-CC-PVTZ
  Basis Set: (AUG-CC-PVTZ AUX)
    Blend: AUG-CC-PVTZ-JKFIT

    Orbital Energies [Eh]
    ---------------------

    Doubly Occupied:

       1A    -15.635980     2A    -15.577233     3A    -15.574328
       4A    -15.558058     5A    -15.557689     6A    -11.329143
       7A    -11.328136     8A    -11.327346     9A    -11.318586
      10A    -11.255982    11A     -1.362274    12A     -1.303300
      13A     -1.258871    14A     -1.185564    15A     -1.163385
      16A     -1.015027    17A     -0.897298    18A     -0.886234
      19A     -0.834470    20A     -0.779715    21A     -0.736410
      22A     -0.703341    23A     -0.683055    24A     -0.636289
      25A     -0.633763    26A     -0.604366    27A     -0.582877
      28A     -0.555782    29A     -0.511388    30A     -0.499992
      31A     -0.451409    32A     -0.424902    33A     -0.400226
      34A     -0.378606    35A     -0.288786

  @DF-RHF Final Energy:  -464.65196119317523

   => Energetics <=

    Nuclear Repulsion Energy =            500.5455315281074036
    One-Electron Energy =               -1623.9153584807211246
    Two-Electron Energy =                 658.7178657594384958
    Total Energy =                       -464.6519611931752252
  Basis Set: (AUG-CC-PVTZ AUX)
    Blend: AUG-CC-PVTZ-RI
    Molecular point group: c1

    Geometry (in Angstrom), charge = 0, multiplicity = 1:

       Center              X                  Y                   Z               Mass
    ------------   -----------------  -----------------  -----------------  -----------------
         N            1.954471643606     0.498515371335     0.000005751801    14.003074004430
         C            1.231301643606    -0.632835628665    -0.000002248199    12.000000000000
         C           -0.175851356394    -0.542771628665    -0.000010248199    12.000000000000
         C           -0.735058656394     0.891543371335    -0.000007448199    12.000000000000
         N           -0.024887356394     1.907696371335     0.000005751801    14.003074004430
         C            1.294198643606     1.678947371335     0.000012751801    12.000000000000
         N           -1.162091356394    -1.509483628665    -0.000016248199    14.003074004430
         C           -2.282468356394    -0.799896628665     0.000044751801    12.000000000000
         N           -2.071657356394     0.555765371335    -0.000022248199    14.003074004430
         N            1.869526643606    -1.825637628665    -0.000005248199    14.003074004430
         H            1.929738643606     2.562001371335     0.000002751801     1.007825032230
         H           -3.280085356394    -1.221125628665     0.000068751801     1.007825032230
         H           -2.772196356394     1.287855371335    -0.000083248199     1.007825032230
         H            2.878659643606    -1.843594628665     0.000009751801     1.007825032230
         H            1.340852643606    -2.684947628665     0.000002751801     1.007825032230

  Basis Set: AUG-CC-PVTZ
    Blend: AUG-CC-PVTZ
  Basis Set: (AUG-CC-PVTZ AUX)
    Blend: AUG-CC-PVTZ-JKFIT
	 Reference Energy          =    -464.6519611931752252 [Eh]
	 Singles Energy            =      -0.0000000000000000 [Eh]
	 Same-Spin Energy          =      -0.5085821404410458 [Eh]
	 Opposite-Spin Energy      =      -1.4783132730741482 [Eh]
	 Correlation Energy        =      -1.9868954135151939 [Eh]
	 Total Energy              =    -466.6388566066904104 [Eh]

	 ================> DF-SCS-MP2 Energies <==================
	-----------------------------------------------------------
	 SCS Same-Spin Scale       =       0.3333333333333333 [-]
	 SCS Opposite-Spin Scale   =       1.2000000000000000 [-]
	 SCS Same-Spin Energy      =      -0.1695273801470152 [Eh]
	 SCS Opposite-Spin Energy  =      -1.7739759276889777 [Eh]
	 SCS Correlation Energy    =      -1.9435033078359929 [Eh]
	 SCS Total Energy          =    -466.5954645010112358 [Eh]
	-----------------------------------------------------------

  Dipole Moment: [D]
     X:    -2.3809      Y:    -0.9334      Z:    -0.0000     Total:     2.5573

*** Psi4 exiting successfully. Buy a developer a beer!
