                               Psi4 1.3.2 release

  ==> Input File <==

--------------------------------------------------------------------------
#psi4
#
memory 32 gb

molecule  {
0 1
  N        1.9514160     0.5241040     0.0000050
  C        1.2242456    -0.6563011    -0.0000036
  C       -0.1789070    -0.5171830    -0.0000110
  C       -0.7103380     0.7755800     0.0000000
  N       -0.0279430     1.9332850     0.0000050
  C        1.2911430     1.7045360     0.0000120
  N       -1.1651470    -1.4838950    -0.0000170
  C       -2.2855240    -0.7743080     0.0000440
  N       -2.0747130     0.5813540    -0.0000230
  N        1.8664710    -1.8000490    -0.0000060
  H        1.9266830     2.5875900     0.0000020
  H       -3.2831410    -1.1955370     0.0000680
  H       -2.7752520     1.3134440    -0.0000840
  H        2.8756040    -1.8180060     0.0000090
  H        1.3377970    -2.6593590     0.0000020
units angstrom
no_reorient  #important for SAPT in psi4, default
symmetry c1  #important for SAPT in psi4, default
}

set PROPERTIES_ORIGIN ["COM"]
properties('MP2/aug-cc-pvtz', properties = ['dipole'])
--------------------------------------------------------------------------

    Molecular point group: c1
  Charge       = 0
  Multiplicity = 1
  Basis Set: AUG-CC-PVTZ
    Blend: AUG-CC-PVTZ
  Basis Set: (AUG-CC-PVTZ AUX)
    Blend: AUG-CC-PVTZ-JKFIT

    Orbital Energies [Eh]
    ---------------------

    Doubly Occupied:

       1A    -15.633162     2A    -15.594740     3A    -15.569830
       4A    -15.553804     5A    -15.549476     6A    -11.340557
       7A    -11.324673     8A    -11.317839     9A    -11.308754
      10A    -11.251079    11A     -1.364418    12A     -1.296757
      13A     -1.252514    14A     -1.186830    15A     -1.142645
      16A     -1.030235    17A     -0.894910    18A     -0.871000
      19A     -0.844373    20A     -0.782498    21A     -0.746250
      22A     -0.700019    23A     -0.673826    24A     -0.638469
      25A     -0.636073    26A     -0.609619    27A     -0.587300
      28A     -0.559736    29A     -0.499882    30A     -0.493654
      31A     -0.446245    32A     -0.425550    33A     -0.406918
      34A     -0.368193    35A     -0.304608

  @DF-RHF Final Energy:  -464.67809974827338

   => Energetics <=

    Nuclear Repulsion Energy =            501.5296007565690388
    One-Electron Energy =               -1626.0025275789651005
    Two-Electron Energy =                 659.7948270741226224
    Total Energy =                       -464.6780997482733255
  Basis Set: (AUG-CC-PVTZ AUX)
    Blend: AUG-CC-PVTZ-RI
    Molecular point group: c1

    Geometry (in Angstrom), charge = 0, multiplicity = 1:

       Center              X                  Y                   Z               Mass
    ------------   -----------------  -----------------  -----------------  -----------------
         N            1.952359083046     0.515451299287     0.000005076518    14.003074004430
         C            1.225188683046    -0.664953800713    -0.000003523482    12.000000000000
         C           -0.177963916954    -0.525835700713    -0.000010923482    12.000000000000
         C           -0.709394916954     0.766927299287     0.000000076518    12.000000000000
         N           -0.026999916954     1.924632299287     0.000005076518    14.003074004430
         C            1.292086083046     1.695883299287     0.000012076518    12.000000000000
         N           -1.164203916954    -1.492547700713    -0.000016923482    14.003074004430
         C           -2.284580916954    -0.782960700713     0.000044076518    12.000000000000
         N           -2.073769916954     0.572701299287    -0.000022923482    14.003074004430
         N            1.867414083046    -1.808701700713    -0.000005923482    14.003074004430
         H            1.927626083046     2.578937299287     0.000002076518     1.007825032230
         H           -3.282197916954    -1.204189700713     0.000068076518     1.007825032230
         H           -2.774308916954     1.304791299287    -0.000083923482     1.007825032230
         H            2.876547083046    -1.826658700713     0.000009076518     1.007825032230
         H            1.338740083046    -2.668011700713     0.000002076518     1.007825032230

  Basis Set: AUG-CC-PVTZ
    Blend: AUG-CC-PVTZ
  Basis Set: (AUG-CC-PVTZ AUX)
    Blend: AUG-CC-PVTZ-JKFIT
	 Reference Energy          =    -464.6780997482733824 [Eh]
	 Singles Energy            =      -0.0000000000000000 [Eh]
	 Same-Spin Energy          =      -0.5064097325914629 [Eh]
	 Opposite-Spin Energy      =      -1.4765720724733238 [Eh]
	 Correlation Energy        =      -1.9829818050647867 [Eh]
	 Total Energy              =    -466.6610815533381924 [Eh]

	 ================> DF-SCS-MP2 Energies <==================
	-----------------------------------------------------------
	 SCS Same-Spin Scale       =       0.3333333333333333 [-]
	 SCS Opposite-Spin Scale   =       1.2000000000000000 [-]
	 SCS Same-Spin Energy      =      -0.1688032441971543 [Eh]
	 SCS Opposite-Spin Energy  =      -1.7718864869679884 [Eh]
	 SCS Correlation Energy    =      -1.9406897311651428 [Eh]
	 SCS Total Energy          =    -466.6187894794385329 [Eh]
	-----------------------------------------------------------

  Dipole Moment: [D]
     X:    -2.0708      Y:    -1.5767      Z:    -0.0000     Total:     2.6027

*** Psi4 exiting successfully. Buy a developer a beer!
