                               Psi4 1.3.2 release

  ==> Input File <==

--------------------------------------------------------------------------
#psi4
#
memory 32 gb

molecule  {
0 1
  N        1.9514160     0.5241040     0.0000050
  C        1.2282460    -0.6072470    -0.0000030
  C       -0.1789070    -0.5171830    -0.0000110
  C       -0.5855866     0.7105923     0.0000006
  N       -0.0279430     1.9332850     0.0000050
  C        1.2911430     1.7045360     0.0000120
  N       -1.1651470    -1.4838950    -0.0000170
  C       -2.2855240    -0.7743080     0.0000440
  N       -2.0747130     0.5813540    -0.0000230
  N        1.8664710    -1.8000490    -0.0000060
  H        1.9266830     2.5875900     0.0000020
  H       -3.2831410    -1.1955370     0.0000680
  H       -2.7752520     1.3134440    -0.0000840
  H        2.8756040    -1.8180060     0.0000090
  H        1.3377970    -2.6593590     0.0000020
units angstrom
no_reorient  #important for SAPT in psi4, default
symmetry c1  #important for SAPT in psi4, default
}

set PROPERTIES_ORIGIN ["COM"]
properties('MP2/aug-cc-pvtz', properties = ['dipole'])
--------------------------------------------------------------------------

    Molecular point group: c1
  Charge       = 0
  Multiplicity = 1
  Basis Set: AUG-CC-PVTZ
    Blend: AUG-CC-PVTZ
  Basis Set: (AUG-CC-PVTZ AUX)
    Blend: AUG-CC-PVTZ-JKFIT

    Orbital Energies [Eh]
    ---------------------

    Doubly Occupied:

       1A    -15.619223     2A    -15.591111     3A    -15.564973
       4A    -15.563085     5A    -15.554680     6A    -11.344869
       7A    -11.327977     8A    -11.314424     9A    -11.312557
      10A    -11.249263    11A     -1.355256    12A     -1.299474
      13A     -1.250942    14A     -1.171947    15A     -1.150708
      16A     -1.053127    17A     -0.893615    18A     -0.871086
      19A     -0.844391    20A     -0.774710    21A     -0.735080
      22A     -0.704070    23A     -0.669216    24A     -0.635065
      25A     -0.630359    26A     -0.617298    27A     -0.564993
      28A     -0.554902    29A     -0.502669    30A     -0.499485
      31A     -0.456983    32A     -0.420197    33A     -0.414636
      34A     -0.384198    35A     -0.318652

  @DF-RHF Final Energy:  -464.65975270837544

   => Energetics <=

    Nuclear Repulsion Energy =            503.0712823152493911
    One-Electron Energy =               -1629.0316327470952729
    Two-Electron Energy =                 661.3005977234704460
    Total Energy =                       -464.6597527083754358
  Basis Set: (AUG-CC-PVTZ AUX)
    Blend: AUG-CC-PVTZ-RI
    Molecular point group: c1

    Geometry (in Angstrom), charge = 0, multiplicity = 1:

       Center              X                  Y                   Z               Mass
    ------------   -----------------  -----------------  -----------------  -----------------
         N            1.940919096558     0.516867047794     0.000004969895    14.003074004430
         C            1.217749096558    -0.614483952206    -0.000003030105    12.000000000000
         C           -0.189403903442    -0.524419952206    -0.000011030105    12.000000000000
         C           -0.596083503442     0.703355347794     0.000000569895    12.000000000000
         N           -0.038439903442     1.926048047794     0.000004969895    14.003074004430
         C            1.280646096558     1.697299047794     0.000011969895    12.000000000000
         N           -1.175643903442    -1.491131952206    -0.000017030105    14.003074004430
         C           -2.296020903442    -0.781544952206     0.000043969895    12.000000000000
         N           -2.085209903442     0.574117047794    -0.000023030105    14.003074004430
         N            1.855974096558    -1.807285952206    -0.000006030105    14.003074004430
         H            1.916186096558     2.580353047794     0.000001969895     1.007825032230
         H           -3.293637903442    -1.202773952206     0.000067969895     1.007825032230
         H           -2.785748903442     1.306207047794    -0.000084030105     1.007825032230
         H            2.865107096558    -1.825242952206     0.000008969895     1.007825032230
         H            1.327300096558    -2.666595952206     0.000001969895     1.007825032230

  Basis Set: AUG-CC-PVTZ
    Blend: AUG-CC-PVTZ
  Basis Set: (AUG-CC-PVTZ AUX)
    Blend: AUG-CC-PVTZ-JKFIT
	 Reference Energy          =    -464.6597527083754358 [Eh]
	 Singles Energy            =      -0.0000000000000000 [Eh]
	 Same-Spin Energy          =      -0.5054610347687929 [Eh]
	 Opposite-Spin Energy      =      -1.4768057856584997 [Eh]
	 Correlation Energy        =      -1.9822668204272926 [Eh]
	 Total Energy              =    -466.6420195288027344 [Eh]

	 ================> DF-SCS-MP2 Energies <==================
	-----------------------------------------------------------
	 SCS Same-Spin Scale       =       0.3333333333333333 [-]
	 SCS Opposite-Spin Scale   =       1.2000000000000000 [-]
	 SCS Same-Spin Energy      =      -0.1684870115895976 [Eh]
	 SCS Opposite-Spin Energy  =      -1.7721669427901996 [Eh]
	 SCS Correlation Energy    =      -1.9406539543797972 [Eh]
	 SCS Total Energy          =    -466.6004066627552334 [Eh]
	-----------------------------------------------------------

  Dipole Moment: [D]
     X:    -1.7026      Y:    -1.1733      Z:    -0.0000     Total:     2.0677

*** Psi4 exiting successfully. Buy a developer a beer!
