                               Psi4 1.3.2 release

  ==> Input File <==

--------------------------------------------------------------------------
#psi4
#
memory 32 gb

molecule  {
0 1
  N        1.9514160     0.5241040     0.0000050
  C        1.2282460    -0.6072470    -0.0000030
  C       -0.1789070    -0.5171830    -0.0000110
  C       -0.7103380     0.7755800     0.0000000
  N       -0.0279430     1.9332850     0.0000050
  C        1.2911430     1.7045360     0.0000120
  N       -1.1651470    -1.4838950    -0.0000170
  C       -2.2855240    -0.7743080     0.0000440
  N       -2.0747130     0.5813540    -0.0000230
  N        1.8664710    -1.8000490    -0.0000060
  H        1.8682682     2.5064253     0.0000029
  H       -3.2831410    -1.1955370     0.0000680
  H       -2.7752520     1.3134440    -0.0000840
  H        2.8756040    -1.8180060     0.0000090
  H        1.3377970    -2.6593590     0.0000020
units angstrom
no_reorient  #important for SAPT in psi4, default
symmetry c1  #important for SAPT in psi4, default
}

set PROPERTIES_ORIGIN ["COM"]
properties('MP2/aug-cc-pvtz', properties = ['dipole'])
--------------------------------------------------------------------------

    Molecular point group: c1
  Charge       = 0
  Multiplicity = 1
  Basis Set: AUG-CC-PVTZ
    Blend: AUG-CC-PVTZ
  Basis Set: (AUG-CC-PVTZ AUX)
    Blend: AUG-CC-PVTZ-JKFIT

    Orbital Energies [Eh]
    ---------------------

    Doubly Occupied:

       1A    -15.634312     2A    -15.585261     3A    -15.571510
       4A    -15.558720     5A    -15.550927     6A    -11.338137
       7A    -11.326522     8A    -11.317544     9A    -11.300758
      10A    -11.252625    11A     -1.365978    12A     -1.297211
      13A     -1.245193    14A     -1.185409    15A     -1.150508
      16A     -1.034142    17A     -0.898327    18A     -0.881461
      19A     -0.846160    20A     -0.780432    21A     -0.740888
      22A     -0.705029    23A     -0.675350    24A     -0.637341
      25A     -0.635201    26A     -0.612728    27A     -0.598909
      28A     -0.557607    29A     -0.499619    30A     -0.496422
      31A     -0.454072    32A     -0.424014    33A     -0.410187
      34A     -0.372602    35A     -0.307382

  @DF-RHF Final Energy:  -464.67632432045758

   => Energetics <=

    Nuclear Repulsion Energy =            502.3969847563525377
    One-Electron Energy =               -1627.6496424129336447
    Two-Electron Energy =                 660.5763333361235254
    Total Energy =                       -464.6763243204575247
  Basis Set: (AUG-CC-PVTZ AUX)
    Blend: AUG-CC-PVTZ-RI
    Molecular point group: c1

    Geometry (in Angstrom), charge = 0, multiplicity = 1:

       Center              X                  Y                   Z               Mass
    ------------   -----------------  -----------------  -----------------  -----------------
         N            1.952439547585     0.511698374344     0.000005016490    14.003074004430
         C            1.229269547585    -0.619652625656    -0.000002983510    12.000000000000
         C           -0.177883452415    -0.529588625656    -0.000010983510    12.000000000000
         C           -0.709314452415     0.763174374344     0.000000016490    12.000000000000
         N           -0.026919452415     1.920879374344     0.000005016490    14.003074004430
         C            1.292166547585     1.692130374344     0.000012016490    12.000000000000
         N           -1.164123452415    -1.496300625656    -0.000016983510    14.003074004430
         C           -2.284500452415    -0.786713625656     0.000044016490    12.000000000000
         N           -2.073689452415     0.568948374344    -0.000022983510    14.003074004430
         N            1.867494547585    -1.812454625656    -0.000005983510    14.003074004430
         H            1.869291747585     2.494019674344     0.000002916490     1.007825032230
         H           -3.282117452415    -1.207942625656     0.000068016490     1.007825032230
         H           -2.774228452415     1.301038374344    -0.000083983510     1.007825032230
         H            2.876627547585    -1.830411625656     0.000009016490     1.007825032230
         H            1.338820547585    -2.671764625656     0.000002016490     1.007825032230

  Basis Set: AUG-CC-PVTZ
    Blend: AUG-CC-PVTZ
  Basis Set: (AUG-CC-PVTZ AUX)
    Blend: AUG-CC-PVTZ-JKFIT
	 Reference Energy          =    -464.6763243204575815 [Eh]
	 Singles Energy            =      -0.0000000000000000 [Eh]
	 Same-Spin Energy          =      -0.5061098705624215 [Eh]
	 Opposite-Spin Energy      =      -1.4757741877859853 [Eh]
	 Correlation Energy        =      -1.9818840583484070 [Eh]
	 Total Energy              =    -466.6582083788059663 [Eh]

	 ================> DF-SCS-MP2 Energies <==================
	-----------------------------------------------------------
	 SCS Same-Spin Scale       =       0.3333333333333333 [-]
	 SCS Opposite-Spin Scale   =       1.2000000000000000 [-]
	 SCS Same-Spin Energy      =      -0.1687032901874738 [Eh]
	 SCS Opposite-Spin Energy  =      -1.7709290253431824 [Eh]
	 SCS Correlation Energy    =      -1.9396323155306563 [Eh]
	 SCS Total Energy          =    -466.6159566359882547 [Eh]
	-----------------------------------------------------------

  Dipole Moment: [D]
     X:    -2.2461      Y:    -1.1596      Z:    -0.0000     Total:     2.5278

*** Psi4 exiting successfully. Buy a developer a beer!
