                               Psi4 1.3.2 release

  ==> Input File <==

--------------------------------------------------------------------------
#psi4
#
memory 32 gb

molecule  {
0 1
  N        1.9514160     0.5241040     0.0000050
  C        1.2282460    -0.6072470    -0.0000030
  C       -0.1789070    -0.5171830    -0.0000110
  C       -0.7103380     0.7755800     0.0000000
  N       -0.0279430     1.9332850     0.0000050
  C        1.2911430     1.7045360     0.0000120
  N       -1.2173745    -1.5603200    -0.0000101
  C       -2.2855240    -0.7743080     0.0000440
  N       -2.0747130     0.5813540    -0.0000230
  N        1.8664710    -1.8000490    -0.0000060
  H        1.9266830     2.5875900     0.0000020
  H       -3.2831410    -1.1955370     0.0000680
  H       -2.7752520     1.3134440    -0.0000840
  H        2.8756040    -1.8180060     0.0000090
  H        1.3377970    -2.6593590     0.0000020
units angstrom
no_reorient  #important for SAPT in psi4, default
symmetry c1  #important for SAPT in psi4, default
}

set PROPERTIES_ORIGIN ["COM"]
properties('MP2/aug-cc-pvtz', properties = ['dipole'])
--------------------------------------------------------------------------

    Molecular point group: c1
  Charge       = 0
  Multiplicity = 1
  Basis Set: AUG-CC-PVTZ
    Blend: AUG-CC-PVTZ
  Basis Set: (AUG-CC-PVTZ AUX)
    Blend: AUG-CC-PVTZ-JKFIT

    Orbital Energies [Eh]
    ---------------------

    Doubly Occupied:

       1A    -15.635041     2A    -15.585304     3A    -15.581440
       4A    -15.561704     5A    -15.552723     6A    -11.339511
       7A    -11.329957     8A    -11.323723     9A    -11.314839
      10A    -11.258112    11A     -1.360034    12A     -1.297683
      13A     -1.244382    14A     -1.178364    15A     -1.151096
      16A     -1.033708    17A     -0.893516    18A     -0.875519
      19A     -0.843547    20A     -0.779036    21A     -0.736053
      22A     -0.700361    23A     -0.670821    24A     -0.634944
      25A     -0.627468    26A     -0.606570    27A     -0.584618
      28A     -0.558962    29A     -0.503899    30A     -0.496400
      31A     -0.451172    32A     -0.419081    33A     -0.414982
      34A     -0.373426    35A     -0.315349

  @DF-RHF Final Energy:  -464.67415731196934

   => Energetics <=

    Nuclear Repulsion Energy =            499.3782182416168780
    One-Electron Energy =               -1621.6380597984721135
    Two-Electron Energy =                 657.5856842448858970
    Total Energy =                       -464.6741573119693385
  Basis Set: (AUG-CC-PVTZ AUX)
    Blend: AUG-CC-PVTZ-RI
    Molecular point group: c1

    Geometry (in Angstrom), charge = 0, multiplicity = 1:

       Center              X                  Y                   Z               Mass
    ------------   -----------------  -----------------  -----------------  -----------------
         N            1.957418823905     0.519016791351     0.000004307783    14.003074004430
         C            1.234248823905    -0.612334208649    -0.000003692217    12.000000000000
         C           -0.172904176095    -0.522270208649    -0.000011692217    12.000000000000
         C           -0.704335176095     0.770492791351    -0.000000692217    12.000000000000
         N           -0.021940176095     1.928197791351     0.000004307783    14.003074004430
         C            1.297145823905     1.699448791351     0.000011307783    12.000000000000
         N           -1.211371676095    -1.565407208649    -0.000010792217    14.003074004430
         C           -2.279521176095    -0.779395208649     0.000043307783    12.000000000000
         N           -2.068710176095     0.576266791351    -0.000023692217    14.003074004430
         N            1.872473823905    -1.805136208649    -0.000006692217    14.003074004430
         H            1.932685823905     2.582502791351     0.000001307783     1.007825032230
         H           -3.277138176095    -1.200624208649     0.000067307783     1.007825032230
         H           -2.769249176095     1.308356791351    -0.000084692217     1.007825032230
         H            2.881606823905    -1.823093208649     0.000008307783     1.007825032230
         H            1.343799823905    -2.664446208649     0.000001307783     1.007825032230

  Basis Set: AUG-CC-PVTZ
    Blend: AUG-CC-PVTZ
  Basis Set: (AUG-CC-PVTZ AUX)
    Blend: AUG-CC-PVTZ-JKFIT
	 Reference Energy          =    -464.6741573119693385 [Eh]
	 Singles Energy            =      -0.0000000000000000 [Eh]
	 Same-Spin Energy          =      -0.5055663152696637 [Eh]
	 Opposite-Spin Energy      =      -1.4773133885221172 [Eh]
	 Correlation Energy        =      -1.9828797037917809 [Eh]
	 Total Energy              =    -466.6570370157611478 [Eh]

	 ================> DF-SCS-MP2 Energies <==================
	-----------------------------------------------------------
	 SCS Same-Spin Scale       =       0.3333333333333333 [-]
	 SCS Opposite-Spin Scale   =       1.2000000000000000 [-]
	 SCS Same-Spin Energy      =      -0.1685221050898879 [Eh]
	 SCS Opposite-Spin Energy  =      -1.7727760662265406 [Eh]
	 SCS Correlation Energy    =      -1.9412981713164286 [Eh]
	 SCS Total Energy          =    -466.6154554832857571 [Eh]
	-----------------------------------------------------------

  Dipole Moment: [D]
     X:    -2.1106      Y:    -1.0393      Z:    -0.0000     Total:     2.3526

*** Psi4 exiting successfully. Buy a developer a beer!
