                               Psi4 1.4a3.dev225

  ==> Input File <==

--------------------------------------------------------------------------
#psi4
#
memory 32 gb

molecule  {
0 1
  N        1.9483950     0.5259860     0.0099940
  C        1.2281250    -0.6055780    -0.0011110
  C       -0.1777080    -0.5183570    -0.0133480
  C       -0.7121930     0.7746180    -0.0067610
  N       -0.0315150     1.9321470    -0.0030770
  C        1.2882650     1.7066530     0.0061850
  N       -1.1633520    -1.4857590     0.0015620
  C       -2.2839740    -0.7772230     0.0077650
  N       -2.0759200     0.5789190     0.0016180
  N        1.8765300    -1.8041700    -0.0655800
  H        1.9224110     2.5904960     0.0146870
  H       -3.2809510    -1.1999800     0.0170960
  H       -2.7915625     1.3242899     0.0042397
  H        2.8553720    -1.7872280     0.1925460
  H        1.3468110    -2.6236890     0.2034770
units angstrom
no_reorient  #important for SAPT in psi4, default
symmetry c1  #important for SAPT in psi4, default
}

set PROPERTIES_ORIGIN ["COM"]
properties('MP2/aug-cc-pvtz', properties = ['dipole'])
--------------------------------------------------------------------------

    Molecular point group: c1
  Charge       = 0
  Multiplicity = 1
  Basis Set: AUG-CC-PVTZ
    Blend: AUG-CC-PVTZ
  Basis Set: (AUG-CC-PVTZ AUX)
    Blend: AUG-CC-PVTZ-JKFIT

    Orbital Energies [Eh]
    ---------------------

    Doubly Occupied:

       1A    -15.637777     2A    -15.584051     3A    -15.572637
       4A    -15.562487     5A    -15.554175     6A    -11.337973
       7A    -11.328366     8A    -11.320176     9A    -11.313818
      10A    -11.255005    11A     -1.367284    12A     -1.298054
      13A     -1.245435    14A     -1.185366    15A     -1.152223
      16A     -1.033375    17A     -0.894493    18A     -0.876266
      19A     -0.844290    20A     -0.775520    21A     -0.733987
      22A     -0.696801    23A     -0.673967    24A     -0.639834
      25A     -0.630740    26A     -0.611324    27A     -0.591059
      28A     -0.557480    29A     -0.498651    30A     -0.498263
      31A     -0.454160    32A     -0.427282    33A     -0.411863
      34A     -0.375075    35A     -0.311169

  @DF-RHF Final Energy:  -464.68055412755814

   => Energetics <=

    Nuclear Repulsion Energy =            501.5541104349724719
    One-Electron Energy =               -1625.9684765212591628
    Two-Electron Energy =                 659.7338119587285519
    Total Energy =                       -464.6805541275581390
  Basis Set: (AUG-CC-PVTZ AUX)
    Blend: AUG-CC-PVTZ-RI
    Molecular point group: c1

    Geometry (in Angstrom), charge = 0, multiplicity = 1:

       Center              X                  Y                   Z               Mass
    ------------   -----------------  -----------------  -----------------  -----------------
         N            1.948970297739     0.513317651356     0.013168615424    14.003074004430
         C            1.228700297739    -0.618246348644     0.002063615424    12.000000000000
         C           -0.177132702261    -0.531025348644    -0.010173384576    12.000000000000
         C           -0.711617702261     0.761949651356    -0.003586384576    12.000000000000
         N           -0.030939702261     1.919478651356     0.000097615424    14.003074004430
         C            1.288840297739     1.693984651356     0.009359615424    12.000000000000
         N           -1.162776702261    -1.498427348644     0.004736615424    14.003074004430
         C           -2.283398702261    -0.789891348644     0.010939615424    12.000000000000
         N           -2.075344702261     0.566250651356     0.004792615424    14.003074004430
         N            1.877105297739    -1.816838348644    -0.062405384576    14.003074004430
         H            1.922986297739     2.577827651356     0.017861615424     1.007825032230
         H           -3.280375702261    -1.212648348644     0.020270615424     1.007825032230
         H           -2.790987202261     1.311621551356     0.007414315424     1.007825032230
         H            2.855947297739    -1.799896348644     0.195720615424     1.007825032230
         H            1.347386297739    -2.636357348644     0.206651615424     1.007825032230

  Basis Set: AUG-CC-PVTZ
    Blend: AUG-CC-PVTZ
  Basis Set: (AUG-CC-PVTZ AUX)
    Blend: AUG-CC-PVTZ-JKFIT
	 Reference Energy          =    -464.6805541275581390 [Eh]
	 Singles Energy            =      -0.0000000000000000 [Eh]
	 Same-Spin Energy          =      -0.5065194005323346 [Eh]
	 Opposite-Spin Energy      =      -1.4768479002648665 [Eh]
	 Correlation Energy        =      -1.9833673007972010 [Eh]
	 Total Energy              =    -466.6639214283553656 [Eh]

	 ================> DF-SCS-MP2 Energies <==================
	-----------------------------------------------------------
	 SCS Same-Spin Scale       =       0.3333333333333333 [-]
	 SCS Opposite-Spin Scale   =       1.2000000000000000 [-]
	 SCS Same-Spin Energy      =      -0.1688398001774448 [Eh]
	 SCS Opposite-Spin Energy  =      -1.7722174803178397 [Eh]
	 SCS Correlation Energy    =      -1.9410572804952846 [Eh]
	 SCS Total Energy          =    -466.6216114080534112 [Eh]
	-----------------------------------------------------------

  Dipole Moment: [D]
     X:    -2.4850      Y:    -0.8430      Z:     0.7201     Total:     2.7211

*** Psi4 exiting successfully. Buy a developer a beer!
