                               Psi4 1.3.2 release

  ==> Input File <==

--------------------------------------------------------------------------
#psi4
#
memory 32 gb

molecule  {
0 1
  N        1.9514160     0.5241040     0.0000050
  C        1.1139492    -0.5254575    -0.0000026
  C       -0.1789070    -0.5171830    -0.0000110
  C       -0.7103380     0.7755800     0.0000000
  N       -0.0279430     1.9332850     0.0000050
  C        1.2911430     1.7045360     0.0000120
  N       -1.1651470    -1.4838950    -0.0000170
  C       -2.2855240    -0.7743080     0.0000440
  N       -2.0747130     0.5813540    -0.0000230
  N        1.8664710    -1.8000490    -0.0000060
  H        1.9266830     2.5875900     0.0000020
  H       -3.2831410    -1.1955370     0.0000680
  H       -2.7752520     1.3134440    -0.0000840
  H        2.8756040    -1.8180060     0.0000090
  H        1.3377970    -2.6593590     0.0000020
units angstrom
no_reorient  #important for SAPT in psi4, default
symmetry c1  #important for SAPT in psi4, default
}

set PROPERTIES_ORIGIN ["COM"]
properties('MP2/aug-cc-pvtz', properties = ['dipole'])
--------------------------------------------------------------------------

    Molecular point group: c1
  Charge       = 0
  Multiplicity = 1
  Basis Set: AUG-CC-PVTZ
    Blend: AUG-CC-PVTZ
  Basis Set: (AUG-CC-PVTZ AUX)
    Blend: AUG-CC-PVTZ-JKFIT

    Orbital Energies [Eh]
    ---------------------

    Doubly Occupied:

       1A    -15.643307     2A    -15.579552     3A    -15.569393
       4A    -15.561008     5A    -15.559362     6A    -11.340002
       7A    -11.333049     8A    -11.328300     9A    -11.315955
      10A    -11.251373    11A     -1.378463    12A     -1.301880
      13A     -1.230466    14A     -1.181187    15A     -1.138792
      16A     -1.058448    17A     -0.910528    18A     -0.883602
      19A     -0.856018    20A     -0.771833    21A     -0.725020
      22A     -0.699128    23A     -0.666007    24A     -0.649400
      25A     -0.628516    26A     -0.608629    27A     -0.582820
      28A     -0.554304    29A     -0.507344    30A     -0.491789
      31A     -0.466126    32A     -0.421039    33A     -0.418739
      34A     -0.375850    35A     -0.325866

  @DF-RHF Final Energy:  -464.65361688485382

   => Energetics <=

    Nuclear Repulsion Energy =            503.3449125384601643
    One-Electron Energy =               -1629.3708713978076048
    Two-Electron Energy =                 661.3723419744935654
    Total Energy =                       -464.6536168848538182
  Basis Set: (AUG-CC-PVTZ AUX)
    Blend: AUG-CC-PVTZ-RI
    Molecular point group: c1

    Geometry (in Angstrom), charge = 0, multiplicity = 1:

       Center              X                  Y                   Z               Mass
    ------------   -----------------  -----------------  -----------------  -----------------
         N            1.962159251475     0.503825450048     0.000004987665    14.003074004430
         C            1.124692451475    -0.545736049952    -0.000002612335    12.000000000000
         C           -0.168163748525    -0.537461549952    -0.000011012335    12.000000000000
         C           -0.699594748525     0.755301450048    -0.000000012335    12.000000000000
         N           -0.017199748525     1.913006450048     0.000004987665    14.003074004430
         C            1.301886251475     1.684257450048     0.000011987665    12.000000000000
         N           -1.154403748525    -1.504173549952    -0.000017012335    14.003074004430
         C           -2.274780748525    -0.794586549952     0.000043987665    12.000000000000
         N           -2.063969748525     0.561075450048    -0.000023012335    14.003074004430
         N            1.877214251475    -1.820327549952    -0.000006012335    14.003074004430
         H            1.937426251475     2.567311450048     0.000001987665     1.007825032230
         H           -3.272397748525    -1.215815549952     0.000067987665     1.007825032230
         H           -2.764508748525     1.293165450048    -0.000084012335     1.007825032230
         H            2.886347251475    -1.838284549952     0.000008987665     1.007825032230
         H            1.348540251475    -2.679637549952     0.000001987665     1.007825032230

  Basis Set: AUG-CC-PVTZ
    Blend: AUG-CC-PVTZ
  Basis Set: (AUG-CC-PVTZ AUX)
    Blend: AUG-CC-PVTZ-JKFIT
	 Reference Energy          =    -464.6536168848538182 [Eh]
	 Singles Energy            =      -0.0000000000000000 [Eh]
	 Same-Spin Energy          =      -0.5063679151195681 [Eh]
	 Opposite-Spin Energy      =      -1.4776635325407834 [Eh]
	 Correlation Energy        =      -1.9840314476603516 [Eh]
	 Total Energy              =    -466.6376483325141749 [Eh]

	 ================> DF-SCS-MP2 Energies <==================
	-----------------------------------------------------------
	 SCS Same-Spin Scale       =       0.3333333333333333 [-]
	 SCS Opposite-Spin Scale   =       1.2000000000000000 [-]
	 SCS Same-Spin Energy      =      -0.1687893050398560 [Eh]
	 SCS Opposite-Spin Energy  =      -1.7731962390489400 [Eh]
	 SCS Correlation Energy    =      -1.9419855440887961 [Eh]
	 SCS Total Energy          =    -466.5956024289426409 [Eh]
	-----------------------------------------------------------

  Dipole Moment: [D]
     X:    -3.1082      Y:    -0.1984      Z:    -0.0000     Total:     3.1145

*** Psi4 exiting successfully. Buy a developer a beer!
