                               Psi4 1.3.2 release

  ==> Input File <==

--------------------------------------------------------------------------
#psi4
#
memory 32 gb

molecule  {
0 1
  N        1.9514160     0.5241040     0.0000050
  C        1.2299517    -0.4596661    -0.0000029
  C       -0.1789070    -0.5171830    -0.0000110
  C       -0.7103380     0.7755800     0.0000000
  N       -0.0279430     1.9332850     0.0000050
  C        1.2911430     1.7045360     0.0000120
  N       -1.1651470    -1.4838950    -0.0000170
  C       -2.2855240    -0.7743080     0.0000440
  N       -2.0747130     0.5813540    -0.0000230
  N        1.8664710    -1.8000490    -0.0000060
  H        1.9266830     2.5875900     0.0000020
  H       -3.2831410    -1.1955370     0.0000680
  H       -2.7752520     1.3134440    -0.0000840
  H        2.8756040    -1.8180060     0.0000090
  H        1.3377970    -2.6593590     0.0000020
units angstrom
no_reorient  #important for SAPT in psi4, default
symmetry c1  #important for SAPT in psi4, default
}

set PROPERTIES_ORIGIN ["COM"]
properties('MP2/aug-cc-pvtz', properties = ['dipole'])
--------------------------------------------------------------------------

    Molecular point group: c1
  Charge       = 0
  Multiplicity = 1
  Basis Set: AUG-CC-PVTZ
    Blend: AUG-CC-PVTZ
  Basis Set: (AUG-CC-PVTZ AUX)
    Blend: AUG-CC-PVTZ-JKFIT

    Orbital Energies [Eh]
    ---------------------

    Doubly Occupied:

       1A    -15.638785     2A    -15.577410     3A    -15.575866
       4A    -15.558236     5A    -15.557090     6A    -11.332831
       7A    -11.331963     8A    -11.324170     9A    -11.319163
      10A    -11.259298    11A     -1.374174    12A     -1.327266
      13A     -1.235222    14A     -1.182846    15A     -1.148382
      16A     -1.037275    17A     -0.904258    18A     -0.885809
      19A     -0.850392    20A     -0.780855    21A     -0.722541
      22A     -0.692622    23A     -0.673969    24A     -0.645129
      25A     -0.633402    26A     -0.602412    27A     -0.583081
      28A     -0.569448    29A     -0.507913    30A     -0.487023
      31A     -0.470712    32A     -0.416527    33A     -0.416264
      34A     -0.385853    35A     -0.315248

  @DF-RHF Final Energy:  -464.65234126120242

   => Energetics <=

    Nuclear Repulsion Energy =            503.0095833642254206
    One-Electron Energy =               -1628.6769771440474415
    Two-Electron Energy =                 661.0150525186196546
    Total Energy =                       -464.6523412612024231
  Basis Set: (AUG-CC-PVTZ AUX)
    Blend: AUG-CC-PVTZ-RI
    Molecular point group: c1

    Geometry (in Angstrom), charge = 0, multiplicity = 1:

       Center              X                  Y                   Z               Mass
    ------------   -----------------  -----------------  -----------------  -----------------
         N            1.951852078818     0.497979685352     0.000005014321    14.003074004430
         C            1.230387778818    -0.485790414648    -0.000002885679    12.000000000000
         C           -0.178470921182    -0.543307314648    -0.000010985679    12.000000000000
         C           -0.709901921182     0.749455685352     0.000000014321    12.000000000000
         N           -0.027506921182     1.907160685352     0.000005014321    14.003074004430
         C            1.291579078818     1.678411685352     0.000012014321    12.000000000000
         N           -1.164710921182    -1.510019314648    -0.000016985679    14.003074004430
         C           -2.285087921182    -0.800432314648     0.000044014321    12.000000000000
         N           -2.074276921182     0.555229685352    -0.000022985679    14.003074004430
         N            1.866907078818    -1.826173314648    -0.000005985679    14.003074004430
         H            1.927119078818     2.561465685352     0.000002014321     1.007825032230
         H           -3.282704921182    -1.221661314648     0.000068014321     1.007825032230
         H           -2.774815921182     1.287319685352    -0.000083985679     1.007825032230
         H            2.876040078818    -1.844130314648     0.000009014321     1.007825032230
         H            1.338233078818    -2.685483314648     0.000002014321     1.007825032230

  Basis Set: AUG-CC-PVTZ
    Blend: AUG-CC-PVTZ
  Basis Set: (AUG-CC-PVTZ AUX)
    Blend: AUG-CC-PVTZ-JKFIT
	 Reference Energy          =    -464.6523412612024231 [Eh]
	 Singles Energy            =      -0.0000000000000000 [Eh]
	 Same-Spin Energy          =      -0.5063643956318433 [Eh]
	 Opposite-Spin Energy      =      -1.4767151736734010 [Eh]
	 Correlation Energy        =      -1.9830795693052443 [Eh]
	 Total Energy              =    -466.6354208305076554 [Eh]

	 ================> DF-SCS-MP2 Energies <==================
	-----------------------------------------------------------
	 SCS Same-Spin Scale       =       0.3333333333333333 [-]
	 SCS Opposite-Spin Scale   =       1.2000000000000000 [-]
	 SCS Same-Spin Energy      =      -0.1687881318772811 [Eh]
	 SCS Opposite-Spin Energy  =      -1.7720582084080811 [Eh]
	 SCS Correlation Energy    =      -1.9408463402853622 [Eh]
	 SCS Total Energy          =    -466.5931876014877844 [Eh]
	-----------------------------------------------------------

  Dipole Moment: [D]
     X:    -2.8045      Y:     0.0453      Z:    -0.0000     Total:     2.8048

*** Psi4 exiting successfully. Buy a developer a beer!
