                               Psi4 1.3.2 release

  ==> Input File <==

--------------------------------------------------------------------------
#psi4
#
memory 32 gb

molecule  {
0 1
  N        1.9514160     0.5241040     0.0000050
  C        1.2296035    -0.5826751    -0.0000027
  C       -0.1789070    -0.5171830    -0.0000110
  C       -0.7103380     0.7755800     0.0000000
  N       -0.0279430     1.9332850     0.0000050
  C        1.2911430     1.7045360     0.0000120
  N       -1.1651470    -1.4838950    -0.0000170
  C       -2.2855240    -0.7743080     0.0000440
  N       -2.0747130     0.5813540    -0.0000230
  N        1.8664710    -1.8000490    -0.0000060
  H        1.9266830     2.5875900     0.0000020
  H       -3.2831410    -1.1955370     0.0000680
  H       -2.7752520     1.3134440    -0.0000840
  H        2.8756040    -1.8180060     0.0000090
  H        1.3377970    -2.6593590     0.0000020
units angstrom
no_reorient  #important for SAPT in psi4, default
symmetry c1  #important for SAPT in psi4, default
}

set PROPERTIES_ORIGIN ["COM"]
properties('MP2/aug-cc-pvtz', properties = ['dipole'])
--------------------------------------------------------------------------

    Molecular point group: c1
  Charge       = 0
  Multiplicity = 1
  Basis Set: AUG-CC-PVTZ
    Blend: AUG-CC-PVTZ
  Basis Set: (AUG-CC-PVTZ AUX)
    Blend: AUG-CC-PVTZ-JKFIT

    Orbital Energies [Eh]
    ---------------------

    Doubly Occupied:

       1A    -15.635314     2A    -15.581001     3A    -15.572654
       4A    -15.562212     5A    -15.552782     6A    -11.337828
       7A    -11.327638     8A    -11.318297     9A    -11.314255
      10A    -11.253744    11A     -1.367256    12A     -1.300186
      13A     -1.241288    14A     -1.184363    15A     -1.154459
      16A     -1.032952    17A     -0.895177    18A     -0.877681
      19A     -0.847239    20A     -0.777401    21A     -0.734806
      22A     -0.698801    23A     -0.676103    24A     -0.638634
      25A     -0.630600    26A     -0.612761    27A     -0.590610
      28A     -0.558398    29A     -0.498687    30A     -0.494916
      31A     -0.455891    32A     -0.423319    33A     -0.412242
      34A     -0.375596    35A     -0.309055

  @DF-RHF Final Energy:  -464.68148849223377

   => Energetics <=

    Nuclear Repulsion Energy =            501.9742336288136926
    One-Electron Energy =               -1626.8231557727863219
    Two-Electron Energy =                 660.1674336517388610
    Total Energy =                       -464.6814884922338251
  Basis Set: (AUG-CC-PVTZ AUX)
    Blend: AUG-CC-PVTZ-RI
    Molecular point group: c1

    Geometry (in Angstrom), charge = 0, multiplicity = 1:

       Center              X                  Y                   Z               Mass
    ------------   -----------------  -----------------  -----------------  -----------------
         N            1.951883017440     0.508909406706     0.000004996551    14.003074004430
         C            1.230070517440    -0.597869693294    -0.000002703449    12.000000000000
         C           -0.178439982560    -0.532377593294    -0.000011003449    12.000000000000
         C           -0.709870982560     0.760385406706    -0.000000003449    12.000000000000
         N           -0.027475982560     1.918090406706     0.000004996551    14.003074004430
         C            1.291610017440     1.689341406706     0.000011996551    12.000000000000
         N           -1.164679982560    -1.499089593294    -0.000017003449    14.003074004430
         C           -2.285056982560    -0.789502593294     0.000043996551    12.000000000000
         N           -2.074245982560     0.566159406706    -0.000023003449    14.003074004430
         N            1.866938017440    -1.815243593294    -0.000006003449    14.003074004430
         H            1.927150017440     2.572395406706     0.000001996551     1.007825032230
         H           -3.282673982560    -1.210731593294     0.000067996551     1.007825032230
         H           -2.774784982560     1.298249406706    -0.000084003449     1.007825032230
         H            2.876071017440    -1.833200593294     0.000008996551     1.007825032230
         H            1.338264017440    -2.674553593294     0.000001996551     1.007825032230

  Basis Set: AUG-CC-PVTZ
    Blend: AUG-CC-PVTZ
  Basis Set: (AUG-CC-PVTZ AUX)
    Blend: AUG-CC-PVTZ-JKFIT
	 Reference Energy          =    -464.6814884922337683 [Eh]
	 Singles Energy            =      -0.0000000000000000 [Eh]
	 Same-Spin Energy          =      -0.5062715129474351 [Eh]
	 Opposite-Spin Energy      =      -1.4761708757126626 [Eh]
	 Correlation Energy        =      -1.9824423886600977 [Eh]
	 Total Energy              =    -466.6639308808938722 [Eh]

	 ================> DF-SCS-MP2 Energies <==================
	-----------------------------------------------------------
	 SCS Same-Spin Scale       =       0.3333333333333333 [-]
	 SCS Opposite-Spin Scale   =       1.2000000000000000 [-]
	 SCS Same-Spin Energy      =      -0.1687571709824784 [Eh]
	 SCS Opposite-Spin Energy  =      -1.7714050508551951 [Eh]
	 SCS Correlation Energy    =      -1.9401622218376735 [Eh]
	 SCS Total Energy          =    -466.6216507140714498 [Eh]
	-----------------------------------------------------------

  Dipole Moment: [D]
     X:    -2.3480      Y:    -0.9833      Z:    -0.0000     Total:     2.5456

*** Psi4 exiting successfully. Buy a developer a beer!
