                               Psi4 1.3.2 release

  ==> Input File <==

--------------------------------------------------------------------------
#psi4
#
memory 32 gb

molecule  {
0 1
  N        1.9514160     0.5241040     0.0000050
  C        1.2282460    -0.6072470    -0.0000030
  C       -0.1789070    -0.5171830    -0.0000110
  C       -0.7103380     0.7755800     0.0000000
  N       -0.1526944     1.9982727     0.0000024
  C        1.2911430     1.7045360     0.0000120
  N       -1.1651470    -1.4838950    -0.0000170
  C       -2.2855240    -0.7743080     0.0000440
  N       -2.0747130     0.5813540    -0.0000230
  N        1.8664710    -1.8000490    -0.0000060
  H        1.9266830     2.5875900     0.0000020
  H       -3.2831410    -1.1955370     0.0000680
  H       -2.7752520     1.3134440    -0.0000840
  H        2.8756040    -1.8180060     0.0000090
  H        1.3377970    -2.6593590     0.0000020
units angstrom
no_reorient  #important for SAPT in psi4, default
symmetry c1  #important for SAPT in psi4, default
}

set PROPERTIES_ORIGIN ["COM"]
properties('MP2/aug-cc-pvtz', properties = ['dipole'])
--------------------------------------------------------------------------

    Molecular point group: c1
  Charge       = 0
  Multiplicity = 1
  Basis Set: AUG-CC-PVTZ
    Blend: AUG-CC-PVTZ
  Basis Set: (AUG-CC-PVTZ AUX)
    Blend: AUG-CC-PVTZ-JKFIT

    Orbital Energies [Eh]
    ---------------------

    Doubly Occupied:

       1A    -15.626017     2A    -15.589818     3A    -15.572373
       4A    -15.569478     5A    -15.565475     6A    -11.343106
       7A    -11.332191     8A    -11.324839     9A    -11.316985
      10A    -11.252208    11A     -1.362840    12A     -1.295130
      13A     -1.232397    14A     -1.185246    15A     -1.149214
      16A     -1.024400    17A     -0.898102    18A     -0.869680
      19A     -0.845239    20A     -0.768804    21A     -0.736505
      22A     -0.701669    23A     -0.665138    24A     -0.634184
      25A     -0.628943    26A     -0.614662    27A     -0.572088
      28A     -0.558352    29A     -0.509209    30A     -0.485469
      31A     -0.458606    32A     -0.424129    33A     -0.416395
      34A     -0.380228    35A     -0.298973

  @DF-RHF Final Energy:  -464.65834015282849

   => Energetics <=

    Nuclear Repulsion Energy =            499.2545837711840022
    One-Electron Energy =               -1621.4096707155033528
    Two-Electron Energy =                 657.4967467914909776
    Total Energy =                       -464.6583401528284867
  Basis Set: (AUG-CC-PVTZ AUX)
    Blend: AUG-CC-PVTZ-RI
    Molecular point group: c1

    Geometry (in Angstrom), charge = 0, multiplicity = 1:

       Center              X                  Y                   Z               Mass
    ------------   -----------------  -----------------  -----------------  -----------------
         N            1.964938436913     0.504354469296     0.000005292786    14.003074004430
         C            1.241768436913    -0.626996530704    -0.000002707214    12.000000000000
         C           -0.165384563087    -0.536932530704    -0.000010707214    12.000000000000
         C           -0.696815563087     0.755830469296     0.000000292786    12.000000000000
         N           -0.139171963087     1.978523169296     0.000002692786    14.003074004430
         C            1.304665436913     1.684786469296     0.000012292786    12.000000000000
         N           -1.151624563087    -1.503644530704    -0.000016707214    14.003074004430
         C           -2.272001563087    -0.794057530704     0.000044292786    12.000000000000
         N           -2.061190563087     0.561604469296    -0.000022707214    14.003074004430
         N            1.879993436913    -1.819798530704    -0.000005707214    14.003074004430
         H            1.940205436913     2.567840469296     0.000002292786     1.007825032230
         H           -3.269618563087    -1.215286530704     0.000068292786     1.007825032230
         H           -2.761729563087     1.293694469296    -0.000083707214     1.007825032230
         H            2.889126436913    -1.837755530704     0.000009292786     1.007825032230
         H            1.351319436913    -2.679108530704     0.000002292786     1.007825032230

  Basis Set: AUG-CC-PVTZ
    Blend: AUG-CC-PVTZ
  Basis Set: (AUG-CC-PVTZ AUX)
    Blend: AUG-CC-PVTZ-JKFIT
	 Reference Energy          =    -464.6583401528284867 [Eh]
	 Singles Energy            =      -0.0000000000000000 [Eh]
	 Same-Spin Energy          =      -0.5080320104791843 [Eh]
	 Opposite-Spin Energy      =      -1.4818039642895795 [Eh]
	 Correlation Energy        =      -1.9898359747687637 [Eh]
	 Total Energy              =    -466.6481761275972531 [Eh]

	 ================> DF-SCS-MP2 Energies <==================
	-----------------------------------------------------------
	 SCS Same-Spin Scale       =       0.3333333333333333 [-]
	 SCS Opposite-Spin Scale   =       1.2000000000000000 [-]
	 SCS Same-Spin Energy      =      -0.1693440034930614 [Eh]
	 SCS Opposite-Spin Energy  =      -1.7781647571474954 [Eh]
	 SCS Correlation Energy    =      -1.9475087606405568 [Eh]
	 SCS Total Energy          =    -466.6058489134690603 [Eh]
	-----------------------------------------------------------

  Dipole Moment: [D]
     X:    -1.8786      Y:    -1.3748      Z:    -0.0000     Total:     2.3280

*** Psi4 exiting successfully. Buy a developer a beer!
