                               Psi4 1.3.2 release

  ==> Input File <==

--------------------------------------------------------------------------
#psi4
#
memory 32 gb

molecule  {
0 1
  N        1.9514160     0.5241040     0.0000050
  C        1.2311008    -0.5088696    -0.0000029
  C       -0.1789070    -0.5171830    -0.0000110
  C       -0.7103380     0.7755800     0.0000000
  N       -0.0279430     1.9332850     0.0000050
  C        1.2911430     1.7045360     0.0000120
  N       -1.1651470    -1.4838950    -0.0000170
  C       -2.2855240    -0.7743080     0.0000440
  N       -2.0747130     0.5813540    -0.0000230
  N        1.8664710    -1.8000490    -0.0000060
  H        1.9266830     2.5875900     0.0000020
  H       -3.2831410    -1.1955370     0.0000680
  H       -2.7752520     1.3134440    -0.0000840
  H        2.8756040    -1.8180060     0.0000090
  H        1.3377970    -2.6593590     0.0000020
units angstrom
no_reorient  #important for SAPT in psi4, default
symmetry c1  #important for SAPT in psi4, default
}

set PROPERTIES_ORIGIN ["COM"]
properties('MP2/aug-cc-pvtz', properties = ['dipole'])
--------------------------------------------------------------------------

    Molecular point group: c1
  Charge       = 0
  Multiplicity = 1
  Basis Set: AUG-CC-PVTZ
    Blend: AUG-CC-PVTZ
  Basis Set: (AUG-CC-PVTZ AUX)
    Blend: AUG-CC-PVTZ-JKFIT

    Orbital Energies [Eh]
    ---------------------

    Doubly Occupied:

       1A    -15.637402     2A    -15.575487     3A    -15.570485
       4A    -15.566846     5A    -15.556034     6A    -11.334745
       7A    -11.330299     8A    -11.320062     9A    -11.318763
      10A    -11.256874    11A     -1.370852    12A     -1.314702
      13A     -1.234608    14A     -1.181227    15A     -1.156398
      16A     -1.035578    17A     -0.899223    18A     -0.883281
      19A     -0.849367    20A     -0.778130    21A     -0.726361
      22A     -0.694831    23A     -0.675914    24A     -0.642141
      25A     -0.631324    26A     -0.605023    27A     -0.590122
      28A     -0.563550    29A     -0.504121    30A     -0.489448
      31A     -0.465158    32A     -0.419399    33A     -0.415495
      34A     -0.382604    35A     -0.312946

  @DF-RHF Final Energy:  -464.66935076668500

   => Energetics <=

    Nuclear Repulsion Energy =            502.5516182372715548
    One-Electron Energy =               -1627.8643376830777925
    Two-Electron Energy =                 660.6433686791211812
    Total Energy =                       -464.6693507666849428
  Basis Set: (AUG-CC-PVTZ AUX)
    Blend: AUG-CC-PVTZ-RI
    Molecular point group: c1

    Geometry (in Angstrom), charge = 0, multiplicity = 1:

       Center              X                  Y                   Z               Mass
    ------------   -----------------  -----------------  -----------------  -----------------
         N            1.951749977811     0.502351565008     0.000005014321    14.003074004430
         C            1.231434777811    -0.530622034992    -0.000002885679    12.000000000000
         C           -0.178573022189    -0.538935434992    -0.000010985679    12.000000000000
         C           -0.710004022189     0.753827565008     0.000000014321    12.000000000000
         N           -0.027609022189     1.911532565008     0.000005014321    14.003074004430
         C            1.291476977811     1.682783565008     0.000012014321    12.000000000000
         N           -1.164813022189    -1.505647434992    -0.000016985679    14.003074004430
         C           -2.285190022189    -0.796060434992     0.000044014321    12.000000000000
         N           -2.074379022189     0.559601565008    -0.000022985679    14.003074004430
         N            1.866804977811    -1.821801434992    -0.000005985679    14.003074004430
         H            1.927016977811     2.565837565008     0.000002014321     1.007825032230
         H           -3.282807022189    -1.217289434992     0.000068014321     1.007825032230
         H           -2.774918022189     1.291691565008    -0.000083985679     1.007825032230
         H            2.875937977811    -1.839758434992     0.000009014321     1.007825032230
         H            1.338130977811    -2.681111434992     0.000002014321     1.007825032230

  Basis Set: AUG-CC-PVTZ
    Blend: AUG-CC-PVTZ
  Basis Set: (AUG-CC-PVTZ AUX)
    Blend: AUG-CC-PVTZ-JKFIT
	 Reference Energy          =    -464.6693507666849996 [Eh]
	 Singles Energy            =      -0.0000000000000000 [Eh]
	 Same-Spin Energy          =      -0.5062635528872022 [Eh]
	 Opposite-Spin Energy      =      -1.4763015498803456 [Eh]
	 Correlation Energy        =      -1.9825651027675477 [Eh]
	 Total Energy              =    -466.6519158694525231 [Eh]

	 ================> DF-SCS-MP2 Energies <==================
	-----------------------------------------------------------
	 SCS Same-Spin Scale       =       0.3333333333333333 [-]
	 SCS Opposite-Spin Scale   =       1.2000000000000000 [-]
	 SCS Same-Spin Energy      =      -0.1687545176290674 [Eh]
	 SCS Opposite-Spin Energy  =      -1.7715618598564147 [Eh]
	 SCS Correlation Energy    =      -1.9403163774854821 [Eh]
	 SCS Total Energy          =    -466.6096671441704871 [Eh]
	-----------------------------------------------------------

  Dipole Moment: [D]
     X:    -2.6224      Y:    -0.3719      Z:    -0.0000     Total:     2.6487

*** Psi4 exiting successfully. Buy a developer a beer!
