                               Psi4 1.3.2 release

  ==> Input File <==

--------------------------------------------------------------------------
#psi4
#
memory 32 gb

molecule  {
0 1
  N        1.8707353     0.5717939     0.0000047
  C        1.2282460    -0.6072470    -0.0000030
  C       -0.1789070    -0.5171830    -0.0000110
  C       -0.7103380     0.7755800     0.0000000
  N       -0.0279430     1.9332850     0.0000050
  C        1.2911430     1.7045360     0.0000120
  N       -1.1651470    -1.4838950    -0.0000170
  C       -2.2855240    -0.7743080     0.0000440
  N       -2.0747130     0.5813540    -0.0000230
  N        1.8664710    -1.8000490    -0.0000060
  H        1.9266830     2.5875900     0.0000020
  H       -3.2831410    -1.1955370     0.0000680
  H       -2.7752520     1.3134440    -0.0000840
  H        2.8756040    -1.8180060     0.0000090
  H        1.3377970    -2.6593590     0.0000020
units angstrom
no_reorient  #important for SAPT in psi4, default
symmetry c1  #important for SAPT in psi4, default
}

set PROPERTIES_ORIGIN ["COM"]
properties('MP2/aug-cc-pvtz', properties = ['dipole'])
--------------------------------------------------------------------------

    Molecular point group: c1
  Charge       = 0
  Multiplicity = 1
  Basis Set: AUG-CC-PVTZ
    Blend: AUG-CC-PVTZ
  Basis Set: (AUG-CC-PVTZ AUX)
    Blend: AUG-CC-PVTZ-JKFIT

    Orbital Energies [Eh]
    ---------------------

    Doubly Occupied:

       1A    -15.631740     2A    -15.590938     3A    -15.569228
       4A    -15.550135     5A    -15.542099     6A    -11.342557
       7A    -11.326482     8A    -11.315434     9A    -11.299702
      10A    -11.250671    11A     -1.365749    12A     -1.307103
      13A     -1.245934    14A     -1.186921    15A     -1.155077
      16A     -1.034971    17A     -0.904782    18A     -0.870074
      19A     -0.844044    20A     -0.780704    21A     -0.743094
      22A     -0.700385    23A     -0.682166    24A     -0.637696
      25A     -0.637479    26A     -0.613014    27A     -0.594088
      28A     -0.563116    29A     -0.499012    30A     -0.493454
      31A     -0.443529    32A     -0.425253    33A     -0.400786
      34A     -0.376208    35A     -0.305177

  @DF-RHF Final Energy:  -464.67820406553369

   => Energetics <=

    Nuclear Repulsion Energy =            503.8225317163615955
    One-Electron Energy =               -1630.5438640963047874
    Two-Electron Energy =                 662.0431283144096142
    Total Energy =                       -464.6782040655336914
  Basis Set: (AUG-CC-PVTZ AUX)
    Blend: AUG-CC-PVTZ-RI
    Molecular point group: c1

    Geometry (in Angstrom), charge = 0, multiplicity = 1:

       Center              X                  Y                   Z               Mass
    ------------   -----------------  -----------------  -----------------  -----------------
         N            1.879688283133     0.553837885115     0.000004754312    14.003074004430
         C            1.237198983133    -0.625203014885    -0.000002945688    12.000000000000
         C           -0.169954016867    -0.535139014885    -0.000010945688    12.000000000000
         C           -0.701385016867     0.757623985115     0.000000054312    12.000000000000
         N           -0.018990016867     1.915328985115     0.000005054312    14.003074004430
         C            1.300095983133     1.686579985115     0.000012054312    12.000000000000
         N           -1.156194016867    -1.501851014885    -0.000016945688    14.003074004430
         C           -2.276571016867    -0.792264014885     0.000044054312    12.000000000000
         N           -2.065760016867     0.563397985115    -0.000022945688    14.003074004430
         N            1.875423983133    -1.818005014885    -0.000005945688    14.003074004430
         H            1.935635983133     2.569633985115     0.000002054312     1.007825032230
         H           -3.274188016867    -1.213493014885     0.000068054312     1.007825032230
         H           -2.766299016867     1.295487985115    -0.000083945688     1.007825032230
         H            2.884556983133    -1.835962014885     0.000009054312     1.007825032230
         H            1.346749983133    -2.677315014885     0.000002054312     1.007825032230

  Basis Set: AUG-CC-PVTZ
    Blend: AUG-CC-PVTZ
  Basis Set: (AUG-CC-PVTZ AUX)
    Blend: AUG-CC-PVTZ-JKFIT
	 Reference Energy          =    -464.6782040655336914 [Eh]
	 Singles Energy            =      -0.0000000000000000 [Eh]
	 Same-Spin Energy          =      -0.5061211793139124 [Eh]
	 Opposite-Spin Energy      =      -1.4744639678967417 [Eh]
	 Correlation Energy        =      -1.9805851472106542 [Eh]
	 Total Energy              =    -466.6587892127443524 [Eh]

	 ================> DF-SCS-MP2 Energies <==================
	-----------------------------------------------------------
	 SCS Same-Spin Scale       =       0.3333333333333333 [-]
	 SCS Opposite-Spin Scale   =       1.2000000000000000 [-]
	 SCS Same-Spin Energy      =      -0.1687070597713041 [Eh]
	 SCS Opposite-Spin Energy  =      -1.7693567614760901 [Eh]
	 SCS Correlation Energy    =      -1.9380638212473942 [Eh]
	 SCS Total Energy          =    -466.6162678867810882 [Eh]
	-----------------------------------------------------------

  Dipole Moment: [D]
     X:    -1.9634      Y:    -1.3872      Z:    -0.0000     Total:     2.4040

*** Psi4 exiting successfully. Buy a developer a beer!
