                               Psi4 1.3.2 release

  ==> Input File <==

--------------------------------------------------------------------------
#psi4
#
memory 32 gb

molecule  {
0 1
  N        1.9514160     0.5241040     0.0000050
  C        1.2282460    -0.6072470    -0.0000030
  C       -0.1789070    -0.5171830    -0.0000110
  C       -0.7103380     0.7755800     0.0000000
  N        0.0893319     1.8556133     0.0000076
  C        1.2911430     1.7045360     0.0000120
  N       -1.1651470    -1.4838950    -0.0000170
  C       -2.2855240    -0.7743080     0.0000440
  N       -2.0747130     0.5813540    -0.0000230
  N        1.8664710    -1.8000490    -0.0000060
  H        1.9266830     2.5875900     0.0000020
  H       -3.2831410    -1.1955370     0.0000680
  H       -2.7752520     1.3134440    -0.0000840
  H        2.8756040    -1.8180060     0.0000090
  H        1.3377970    -2.6593590     0.0000020
units angstrom
no_reorient  #important for SAPT in psi4, default
symmetry c1  #important for SAPT in psi4, default
}

set PROPERTIES_ORIGIN ["COM"]
properties('MP2/aug-cc-pvtz', properties = ['dipole'])
--------------------------------------------------------------------------

    Molecular point group: c1
  Charge       = 0
  Multiplicity = 1
  Basis Set: AUG-CC-PVTZ
    Blend: AUG-CC-PVTZ
  Basis Set: (AUG-CC-PVTZ AUX)
    Blend: AUG-CC-PVTZ-JKFIT

    Orbital Energies [Eh]
    ---------------------

    Doubly Occupied:

       1A    -15.642915     2A    -15.581022     3A    -15.573527
       4A    -15.543092     5A    -15.536539     6A    -11.333676
       7A    -11.328569     8A    -11.320533     9A    -11.288654
      10A    -11.253561    11A     -1.371210    12A     -1.311818
      13A     -1.254702    14A     -1.187766    15A     -1.146507
      16A     -1.042031    17A     -0.894208    18A     -0.881685
      19A     -0.846269    20A     -0.788791    21A     -0.738933
      22A     -0.697950    23A     -0.684768    24A     -0.642573
      25A     -0.636939    26A     -0.611438    27A     -0.604396
      28A     -0.560843    29A     -0.510258    30A     -0.488036
      31A     -0.443581    32A     -0.424946    33A     -0.394270
      34A     -0.364468    35A     -0.316820

  @DF-RHF Final Energy:  -464.66832421223489

   => Energetics <=

    Nuclear Repulsion Energy =            504.8593849999382428
    One-Electron Energy =               -1632.5608322117243461
    Two-Electron Energy =                 663.0331229995513240
    Total Energy =                       -464.6683242122348929
  Basis Set: (AUG-CC-PVTZ AUX)
    Blend: AUG-CC-PVTZ-RI
    Molecular point group: c1

    Geometry (in Angstrom), charge = 0, multiplicity = 1:

       Center              X                  Y                   Z               Mass
    ------------   -----------------  -----------------  -----------------  -----------------
         N            1.939844031982     0.519146054966     0.000004753626    14.003074004430
         C            1.216674031982    -0.612204945034    -0.000003246374    12.000000000000
         C           -0.190478968018    -0.522140945034    -0.000011246374    12.000000000000
         C           -0.721909968018     0.770622054966    -0.000000246374    12.000000000000
         N            0.077759931982     1.850655354966     0.000007353626    14.003074004430
         C            1.279571031982     1.699578054966     0.000011753626    12.000000000000
         N           -1.176718968018    -1.488852945034    -0.000017246374    14.003074004430
         C           -2.297095968018    -0.779265945034     0.000043753626    12.000000000000
         N           -2.086284968018     0.576396054966    -0.000023246374    14.003074004430
         N            1.854899031982    -1.805006945034    -0.000006246374    14.003074004430
         H            1.915111031982     2.582632054966     0.000001753626     1.007825032230
         H           -3.294712968018    -1.200494945034     0.000067753626     1.007825032230
         H           -2.786823968018     1.308486054966    -0.000084246374     1.007825032230
         H            2.864032031982    -1.822963945034     0.000008753626     1.007825032230
         H            1.326225031982    -2.664316945034     0.000001753626     1.007825032230

  Basis Set: AUG-CC-PVTZ
    Blend: AUG-CC-PVTZ
  Basis Set: (AUG-CC-PVTZ AUX)
    Blend: AUG-CC-PVTZ-JKFIT
	 Reference Energy          =    -464.6683242122348929 [Eh]
	 Singles Energy            =      -0.0000000000000000 [Eh]
	 Same-Spin Energy          =      -0.5053664395564073 [Eh]
	 Opposite-Spin Energy      =      -1.4729294966048392 [Eh]
	 Correlation Energy        =      -1.9782959361612464 [Eh]
	 Total Energy              =    -466.6466201483961527 [Eh]

	 ================> DF-SCS-MP2 Energies <==================
	-----------------------------------------------------------
	 SCS Same-Spin Scale       =       0.3333333333333333 [-]
	 SCS Opposite-Spin Scale   =       1.2000000000000000 [-]
	 SCS Same-Spin Energy      =      -0.1684554798521357 [Eh]
	 SCS Opposite-Spin Energy  =      -1.7675153959258070 [Eh]
	 SCS Correlation Energy    =      -1.9359708757779428 [Eh]
	 SCS Total Energy          =    -466.6042950880128615 [Eh]
	-----------------------------------------------------------

  Dipole Moment: [D]
     X:    -2.6933      Y:    -0.9014      Z:    -0.0000     Total:     2.8402

*** Psi4 exiting successfully. Buy a developer a beer!
