                               Psi4 1.4a3.dev225

  ==> Input File <==

--------------------------------------------------------------------------
#psi4
#
memory 32 gb

molecule  {
0 1
  N        1.9483950     0.5259860     0.0099940
  C        1.2281250    -0.6055780    -0.0011110
  C       -0.1777080    -0.5183570    -0.0133480
  C       -0.7121930     0.7746180    -0.0067610
  N       -0.0315150     1.9321470    -0.0030770
  C        1.2882650     1.7066530     0.0061850
  N       -1.1633520    -1.4857590     0.0015620
  C       -2.2839740    -0.7772230     0.0077650
  N       -2.0759200     0.5789190     0.0016180
  N        1.8670244    -1.7865987    -0.0646349
  H        1.9224110     2.5904960     0.0146870
  H       -3.2809510    -1.1999800     0.0170960
  H       -2.7777110     1.3098630     0.0041890
  H        2.8553720    -1.7872280     0.1925460
  H        1.3468110    -2.6236890     0.2034770
units angstrom
no_reorient  #important for SAPT in psi4, default
symmetry c1  #important for SAPT in psi4, default
}

set PROPERTIES_ORIGIN ["COM"]
properties('MP2/aug-cc-pvtz', properties = ['dipole'])
--------------------------------------------------------------------------

    Molecular point group: c1
  Charge       = 0
  Multiplicity = 1
  Basis Set: AUG-CC-PVTZ
    Blend: AUG-CC-PVTZ
  Basis Set: (AUG-CC-PVTZ AUX)
    Blend: AUG-CC-PVTZ-JKFIT

    Orbital Energies [Eh]
    ---------------------

    Doubly Occupied:

       1A    -15.635397     2A    -15.586585     3A    -15.572232
       4A    -15.560949     5A    -15.552590     6A    -11.336408
       7A    -11.327567     8A    -11.319204     9A    -11.313080
      10A    -11.253683    11A     -1.367268    12A     -1.299723
      13A     -1.247935    14A     -1.186703    15A     -1.151877
      16A     -1.032371    17A     -0.894179    18A     -0.876653
      19A     -0.846904    20A     -0.777735    21A     -0.736352
      22A     -0.695912    23A     -0.673260    24A     -0.639953
      25A     -0.632405    26A     -0.609214    27A     -0.590382
      28A     -0.559611    29A     -0.499392    30A     -0.497832
      31A     -0.453342    32A     -0.427163    33A     -0.411123
      34A     -0.374430    35A     -0.309712

  @DF-RHF Final Energy:  -464.68112000065167

   => Energetics <=

    Nuclear Repulsion Energy =            502.1759982560976709
    One-Electron Energy =               -1627.2159796956952960
    Two-Electron Energy =                 660.3588614389459508
    Total Energy =                       -464.6811200006516174
  Basis Set: (AUG-CC-PVTZ AUX)
    Blend: AUG-CC-PVTZ-RI
    Molecular point group: c1

    Geometry (in Angstrom), charge = 0, multiplicity = 1:

       Center              X                  Y                   Z               Mass
    ------------   -----------------  -----------------  -----------------  -----------------
         N            1.949852517407     0.511603436490     0.013071001431    14.003074004430
         C            1.229582517407    -0.619960563510     0.001966001431    12.000000000000
         C           -0.176250482593    -0.532739563510    -0.010270998569    12.000000000000
         C           -0.710735482593     0.760235436490    -0.003683998569    12.000000000000
         N           -0.030057482593     1.917764436490     0.000000001431    14.003074004430
         C            1.289722517407     1.692270436490     0.009262001431    12.000000000000
         N           -1.161894482593    -1.500141563510     0.004639001431    14.003074004430
         C           -2.282516482593    -0.791605563510     0.010842001431    12.000000000000
         N           -2.074462482593     0.564536436490     0.004695001431    14.003074004430
         N            1.868481917407    -1.800981263510    -0.061557898569    14.003074004430
         H            1.923868517407     2.576113436490     0.017764001431     1.007825032230
         H           -3.279493482593    -1.214362563510     0.020173001431     1.007825032230
         H           -2.776253482593     1.295480436490     0.007266001431     1.007825032230
         H            2.856829517407    -1.801610563510     0.195623001431     1.007825032230
         H            1.348268517407    -2.638071563510     0.206554001431     1.007825032230

  Basis Set: AUG-CC-PVTZ
    Blend: AUG-CC-PVTZ
  Basis Set: (AUG-CC-PVTZ AUX)
    Blend: AUG-CC-PVTZ-JKFIT
	 Reference Energy          =    -464.6811200006516742 [Eh]
	 Singles Energy            =      -0.0000000000000000 [Eh]
	 Same-Spin Energy          =      -0.5064561296537258 [Eh]
	 Opposite-Spin Energy      =      -1.4765273304464670 [Eh]
	 Correlation Energy        =      -1.9829834601001928 [Eh]
	 Total Energy              =    -466.6641034607518463 [Eh]

	 ================> DF-SCS-MP2 Energies <==================
	-----------------------------------------------------------
	 SCS Same-Spin Scale       =       0.3333333333333333 [-]
	 SCS Opposite-Spin Scale   =       1.2000000000000000 [-]
	 SCS Same-Spin Energy      =      -0.1688187098845753 [Eh]
	 SCS Opposite-Spin Energy  =      -1.7718327965357603 [Eh]
	 SCS Correlation Energy    =      -1.9406515064203356 [Eh]
	 SCS Total Energy          =    -466.6217715070720260 [Eh]
	-----------------------------------------------------------

  Dipole Moment: [D]
     X:    -2.3722      Y:    -0.9948      Z:     0.7104     Total:     2.6686

*** Psi4 exiting successfully. Buy a developer a beer!
