                               Psi4 1.4a3.dev225

  ==> Input File <==

--------------------------------------------------------------------------
#psi4
#
memory 32 gb

molecule  {
0 1
  N        1.9483950     0.5259860     0.0099940
  C        1.2281250    -0.6055780    -0.0011110
  C       -0.1777080    -0.5183570    -0.0133480
  C       -0.7121930     0.7746180    -0.0067610
  N       -0.0315150     1.9321470    -0.0030770
  C        1.2882650     1.7066530     0.0061850
  N       -1.1633520    -1.4857590     0.0015620
  C       -2.2839740    -0.7772230     0.0077650
  N       -2.0759200     0.5789190     0.0016180
  N        1.8765300    -1.8041700    -0.0655800
  H        1.9224110     2.5904960     0.0146870
  H       -3.2625387    -1.1921725     0.0169237
  H       -2.7777110     1.3098630     0.0041890
  H        2.8553720    -1.7872280     0.1925460
  H        1.3468110    -2.6236890     0.2034770
units angstrom
no_reorient  #important for SAPT in psi4, default
symmetry c1  #important for SAPT in psi4, default
}

set PROPERTIES_ORIGIN ["COM"]
properties('MP2/aug-cc-pvtz', properties = ['dipole'])
--------------------------------------------------------------------------

    Molecular point group: c1
  Charge       = 0
  Multiplicity = 1
  Basis Set: AUG-CC-PVTZ
    Blend: AUG-CC-PVTZ
  Basis Set: (AUG-CC-PVTZ AUX)
    Blend: AUG-CC-PVTZ-JKFIT

    Orbital Energies [Eh]
    ---------------------

    Doubly Occupied:

       1A    -15.636069     2A    -15.584145     3A    -15.572769
       4A    -15.562582     5A    -15.554284     6A    -11.338067
       7A    -11.326381     8A    -11.320266     9A    -11.313931
      10A    -11.255030    11A     -1.368031    12A     -1.298341
      13A     -1.245581    14A     -1.186752    15A     -1.152650
      16A     -1.034089    17A     -0.896095    18A     -0.877028
      19A     -0.848458    20A     -0.777436    21A     -0.734998
      22A     -0.698471    23A     -0.674313    24A     -0.640265
      25A     -0.632447    26A     -0.612484    27A     -0.592069
      28A     -0.557661    29A     -0.498859    30A     -0.498387
      31A     -0.454391    32A     -0.427516    33A     -0.411987
      34A     -0.375258    35A     -0.311297

  @DF-RHF Final Energy:  -464.68181885502514

   => Energetics <=

    Nuclear Repulsion Energy =            501.7882293984786770
    One-Electron Energy =               -1626.4033168172088608
    Two-Electron Energy =                 659.9332685637049281
    Total Energy =                       -464.6818188550251989
  Basis Set: (AUG-CC-PVTZ AUX)
    Blend: AUG-CC-PVTZ-RI
    Molecular point group: c1

    Geometry (in Angstrom), charge = 0, multiplicity = 1:

       Center              X                  Y                   Z               Mass
    ------------   -----------------  -----------------  -----------------  -----------------
         N            1.948729533704     0.513367047690     0.013170279530    14.003074004430
         C            1.228459533704    -0.618196952310     0.002065279530    12.000000000000
         C           -0.177373466296    -0.530975952310    -0.010171720470    12.000000000000
         C           -0.711858466296     0.761999047690    -0.003584720470    12.000000000000
         N           -0.031180466296     1.919528047690     0.000099279530    14.003074004430
         C            1.288599533704     1.694034047690     0.009361279530    12.000000000000
         N           -1.163017466296    -1.498377952310     0.004738279530    14.003074004430
         C           -2.283639466296    -0.789841952310     0.010941279530    12.000000000000
         N           -2.075585466296     0.566300047690     0.004794279530    14.003074004430
         N            1.876864533704    -1.816788952310    -0.062403720470    14.003074004430
         H            1.922745533704     2.577877047690     0.017863279530     1.007825032230
         H           -3.262204166296    -1.204791452310     0.020099979530     1.007825032230
         H           -2.777376466296     1.297244047690     0.007365279530     1.007825032230
         H            2.855706533704    -1.799846952310     0.195722279530     1.007825032230
         H            1.347145533704    -2.636307952310     0.206653279530     1.007825032230

  Basis Set: AUG-CC-PVTZ
    Blend: AUG-CC-PVTZ
  Basis Set: (AUG-CC-PVTZ AUX)
    Blend: AUG-CC-PVTZ-JKFIT
	 Reference Energy          =    -464.6818188550251421 [Eh]
	 Singles Energy            =      -0.0000000000000000 [Eh]
	 Same-Spin Energy          =      -0.5063011187828879 [Eh]
	 Opposite-Spin Energy      =      -1.4763513948798690 [Eh]
	 Correlation Energy        =      -1.9826525136627569 [Eh]
	 Total Energy              =    -466.6644713686878845 [Eh]

	 ================> DF-SCS-MP2 Energies <==================
	-----------------------------------------------------------
	 SCS Same-Spin Scale       =       0.3333333333333333 [-]
	 SCS Opposite-Spin Scale   =       1.2000000000000000 [-]
	 SCS Same-Spin Energy      =      -0.1687670395942960 [Eh]
	 SCS Opposite-Spin Energy  =      -1.7716216738558428 [Eh]
	 SCS Correlation Energy    =      -1.9403887134501387 [Eh]
	 SCS Total Energy          =    -466.6222075684752895 [Eh]
	-----------------------------------------------------------

  Dipole Moment: [D]
     X:    -2.4622      Y:    -0.8605      Z:     0.7200     Total:     2.7058

*** Psi4 exiting successfully. Buy a developer a beer!
