                               Psi4 1.3.2 release

  ==> Input File <==

--------------------------------------------------------------------------
#psi4
#
memory 32 gb

molecule  {
0 1
  N        1.9514160     0.5241040     0.0000050
  C        1.2282460    -0.6072470    -0.0000030
  C       -0.1564261    -0.5077114    -0.0000110
  C       -0.7103380     0.7755800     0.0000000
  N       -0.0279430     1.9332850     0.0000050
  C        1.2911430     1.7045360     0.0000120
  N       -1.1651470    -1.4838950    -0.0000170
  C       -2.2855240    -0.7743080     0.0000440
  N       -2.0747130     0.5813540    -0.0000230
  N        1.8664710    -1.8000490    -0.0000060
  H        1.9266830     2.5875900     0.0000020
  H       -3.2831410    -1.1955370     0.0000680
  H       -2.7752520     1.3134440    -0.0000840
  H        2.8756040    -1.8180060     0.0000090
  H        1.3377970    -2.6593590     0.0000020
units angstrom
no_reorient  #important for SAPT in psi4, default
symmetry c1  #important for SAPT in psi4, default
}

set PROPERTIES_ORIGIN ["COM"]
properties('MP2/aug-cc-pvtz', properties = ['dipole'])
--------------------------------------------------------------------------

    Molecular point group: c1
  Charge       = 0
  Multiplicity = 1
  Basis Set: AUG-CC-PVTZ
    Blend: AUG-CC-PVTZ
  Basis Set: (AUG-CC-PVTZ AUX)
    Blend: AUG-CC-PVTZ-JKFIT

    Orbital Energies [Eh]
    ---------------------

    Doubly Occupied:

       1A    -15.634663     2A    -15.584591     3A    -15.572310
       4A    -15.559768     5A    -15.551623     6A    -11.336249
       7A    -11.327647     8A    -11.320451     9A    -11.312444
      10A    -11.251911    11A     -1.364514    12A     -1.297915
      13A     -1.244755    14A     -1.181866    15A     -1.150874
      16A     -1.034720    17A     -0.896395    18A     -0.876587
      19A     -0.844621    20A     -0.778734    21A     -0.737969
      22A     -0.698791    23A     -0.674556    24A     -0.637388
      25A     -0.632594    26A     -0.617243    27A     -0.589763
      28A     -0.558607    29A     -0.496475    30A     -0.496469
      31A     -0.449204    32A     -0.422062    33A     -0.411751
      34A     -0.372709    35A     -0.310863

  @DF-RHF Final Energy:  -464.68161863129797

   => Energetics <=

    Nuclear Repulsion Energy =            501.8424859872812362
    One-Electron Energy =               -1626.5900443768603054
    Two-Electron Energy =                 660.0659397582811607
    Total Energy =                       -464.6816186312979653
  Basis Set: (AUG-CC-PVTZ AUX)
    Blend: AUG-CC-PVTZ-RI
    Molecular point group: c1

    Geometry (in Angstrom), charge = 0, multiplicity = 1:

       Center              X                  Y                   Z               Mass
    ------------   -----------------  -----------------  -----------------  -----------------
         N            1.950006139520     0.510251113991     0.000005023206    14.003074004430
         C            1.226836139520    -0.621099886009    -0.000002976794    12.000000000000
         C           -0.157835960480    -0.521564286009    -0.000010976794    12.000000000000
         C           -0.711747860480     0.761727113991     0.000000023206    12.000000000000
         N           -0.029352860480     1.919432113991     0.000005023206    14.003074004430
         C            1.289733139520     1.690683113991     0.000012023206    12.000000000000
         N           -1.166556860480    -1.497747886009    -0.000016976794    14.003074004430
         C           -2.286933860480    -0.788160886009     0.000044023206    12.000000000000
         N           -2.076122860480     0.567501113991    -0.000022976794    14.003074004430
         N            1.865061139520    -1.813901886009    -0.000005976794    14.003074004430
         H            1.925273139520     2.573737113991     0.000002023206     1.007825032230
         H           -3.284550860480    -1.209389886009     0.000068023206     1.007825032230
         H           -2.776661860480     1.299591113991    -0.000083976794     1.007825032230
         H            2.874194139520    -1.831858886009     0.000009023206     1.007825032230
         H            1.336387139520    -2.673211886009     0.000002023206     1.007825032230

  Basis Set: AUG-CC-PVTZ
    Blend: AUG-CC-PVTZ
  Basis Set: (AUG-CC-PVTZ AUX)
    Blend: AUG-CC-PVTZ-JKFIT
	 Reference Energy          =    -464.6816186312979653 [Eh]
	 Singles Energy            =      -0.0000000000000000 [Eh]
	 Same-Spin Energy          =      -0.5060606039930882 [Eh]
	 Opposite-Spin Energy      =      -1.4761987094288074 [Eh]
	 Correlation Energy        =      -1.9822593134218955 [Eh]
	 Total Energy              =    -466.6638779447198431 [Eh]

	 ================> DF-SCS-MP2 Energies <==================
	-----------------------------------------------------------
	 SCS Same-Spin Scale       =       0.3333333333333333 [-]
	 SCS Opposite-Spin Scale   =       1.2000000000000000 [-]
	 SCS Same-Spin Energy      =      -0.1686868679976961 [Eh]
	 SCS Opposite-Spin Energy  =      -1.7714384513145689 [Eh]
	 SCS Correlation Energy    =      -1.9401253193122650 [Eh]
	 SCS Total Energy          =    -466.6217439506102096 [Eh]
	-----------------------------------------------------------

  Dipole Moment: [D]
     X:    -2.2660      Y:    -1.1418      Z:    -0.0000     Total:     2.5374

*** Psi4 exiting successfully. Buy a developer a beer!
