                               Psi4 1.3.2 release

  ==> Input File <==

--------------------------------------------------------------------------
#psi4
#
memory 32 gb

molecule  {
0 1
  N        1.8674648     0.4809212     0.0000040
  C        1.2282460    -0.6072470    -0.0000030
  C       -0.1789070    -0.5171830    -0.0000110
  C       -0.7103380     0.7755800     0.0000000
  N       -0.0279430     1.9332850     0.0000050
  C        1.2911430     1.7045360     0.0000120
  N       -1.1651470    -1.4838950    -0.0000170
  C       -2.2855240    -0.7743080     0.0000440
  N       -2.0747130     0.5813540    -0.0000230
  N        1.8664710    -1.8000490    -0.0000060
  H        1.9266830     2.5875900     0.0000020
  H       -3.2831410    -1.1955370     0.0000680
  H       -2.7752520     1.3134440    -0.0000840
  H        2.8756040    -1.8180060     0.0000090
  H        1.3377970    -2.6593590     0.0000020
units angstrom
no_reorient  #important for SAPT in psi4, default
symmetry c1  #important for SAPT in psi4, default
}

set PROPERTIES_ORIGIN ["COM"]
properties('MP2/aug-cc-pvtz', properties = ['dipole'])
--------------------------------------------------------------------------

    Molecular point group: c1
  Charge       = 0
  Multiplicity = 1
  Basis Set: AUG-CC-PVTZ
    Blend: AUG-CC-PVTZ
  Basis Set: (AUG-CC-PVTZ AUX)
    Blend: AUG-CC-PVTZ-JKFIT

    Orbital Energies [Eh]
    ---------------------

    Doubly Occupied:

       1A    -15.633116     2A    -15.578311     3A    -15.569037
       4A    -15.562885     5A    -15.540575     6A    -11.326723
       7A    -11.324107     8A    -11.316338     9A    -11.313390
      10A    -11.250428    11A     -1.365953    12A     -1.310261
      13A     -1.244725    14A     -1.183477    15A     -1.157541
      16A     -1.030772    17A     -0.898157    18A     -0.877440
      19A     -0.844784    20A     -0.781121    21A     -0.737862
      22A     -0.697724    23A     -0.680609    24A     -0.638527
      25A     -0.636295    26A     -0.612750    27A     -0.593910
      28A     -0.565250    29A     -0.498333    30A     -0.494671
      31A     -0.449331    32A     -0.421569    33A     -0.402380
      34A     -0.374158    35A     -0.307478

  @DF-RHF Final Energy:  -464.67702762733620

   => Energetics <=

    Nuclear Repulsion Energy =            504.3539473749206081
    One-Electron Energy =               -1631.6219763942276586
    Two-Electron Energy =                 662.5910013919708490
    Total Energy =                       -464.6770276273362015
  Basis Set: (AUG-CC-PVTZ AUX)
    Blend: AUG-CC-PVTZ-RI
    Molecular point group: c1

    Geometry (in Angstrom), charge = 0, multiplicity = 1:

       Center              X                  Y                   Z               Mass
    ------------   -----------------  -----------------  -----------------  -----------------
         N            1.876756883683     0.472387286478     0.000004126891    14.003074004430
         C            1.237538083683    -0.615780913522    -0.000002873109    12.000000000000
         C           -0.169614916317    -0.525716913522    -0.000010873109    12.000000000000
         C           -0.701045916317     0.767046086478     0.000000126891    12.000000000000
         N           -0.018650916317     1.924751086478     0.000005126891    14.003074004430
         C            1.300435083683     1.696002086478     0.000012126891    12.000000000000
         N           -1.155854916317    -1.492428913522    -0.000016873109    14.003074004430
         C           -2.276231916317    -0.782841913522     0.000044126891    12.000000000000
         N           -2.065420916317     0.572820086478    -0.000022873109    14.003074004430
         N            1.875763083683    -1.808582913522    -0.000005873109    14.003074004430
         H            1.935975083683     2.579056086478     0.000002126891     1.007825032230
         H           -3.273848916317    -1.204070913522     0.000068126891     1.007825032230
         H           -2.765959916317     1.304910086478    -0.000083873109     1.007825032230
         H            2.884896083683    -1.826539913522     0.000009126891     1.007825032230
         H            1.347089083683    -2.667892913522     0.000002126891     1.007825032230

  Basis Set: AUG-CC-PVTZ
    Blend: AUG-CC-PVTZ
  Basis Set: (AUG-CC-PVTZ AUX)
    Blend: AUG-CC-PVTZ-JKFIT
	 Reference Energy          =    -464.6770276273362015 [Eh]
	 Singles Energy            =      -0.0000000000000000 [Eh]
	 Same-Spin Energy          =      -0.5065892480806056 [Eh]
	 Opposite-Spin Energy      =      -1.4754419433495309 [Eh]
	 Correlation Energy        =      -1.9820311914301365 [Eh]
	 Total Energy              =    -466.6590588187663116 [Eh]

	 ================> DF-SCS-MP2 Energies <==================
	-----------------------------------------------------------
	 SCS Same-Spin Scale       =       0.3333333333333333 [-]
	 SCS Opposite-Spin Scale   =       1.2000000000000000 [-]
	 SCS Same-Spin Energy      =      -0.1688630826935352 [Eh]
	 SCS Opposite-Spin Energy  =      -1.7705303320194370 [Eh]
	 SCS Correlation Energy    =      -1.9393934147129721 [Eh]
	 SCS Total Energy          =    -466.6164210420491827 [Eh]
	-----------------------------------------------------------

  Dipole Moment: [D]
     X:    -2.0929      Y:    -0.8611      Z:    -0.0000     Total:     2.2631

*** Psi4 exiting successfully. Buy a developer a beer!
