                               Psi4 1.3.2 release

  ==> Input File <==

--------------------------------------------------------------------------
#psi4
#
memory 32 gb

molecule  {
0 1
  N        1.9514160     0.5241040     0.0000050
  C        1.1510885    -0.5540453    -0.0000027
  C       -0.1789070    -0.5171830    -0.0000110
  C       -0.7103380     0.7755800     0.0000000
  N       -0.0279430     1.9332850     0.0000050
  C        1.2911430     1.7045360     0.0000120
  N       -1.1651470    -1.4838950    -0.0000170
  C       -2.2855240    -0.7743080     0.0000440
  N       -2.0747130     0.5813540    -0.0000230
  N        1.8664710    -1.8000490    -0.0000060
  H        1.9266830     2.5875900     0.0000020
  H       -3.2831410    -1.1955370     0.0000680
  H       -2.7752520     1.3134440    -0.0000840
  H        2.8756040    -1.8180060     0.0000090
  H        1.3377970    -2.6593590     0.0000020
units angstrom
no_reorient  #important for SAPT in psi4, default
symmetry c1  #important for SAPT in psi4, default
}

set PROPERTIES_ORIGIN ["COM"]
properties('MP2/aug-cc-pvtz', properties = ['dipole'])
--------------------------------------------------------------------------

    Molecular point group: c1
  Charge       = 0
  Multiplicity = 1
  Basis Set: AUG-CC-PVTZ
    Blend: AUG-CC-PVTZ
  Basis Set: (AUG-CC-PVTZ AUX)
    Blend: AUG-CC-PVTZ-JKFIT

    Orbital Energies [Eh]
    ---------------------

    Doubly Occupied:

       1A    -15.640383     2A    -15.576903     3A    -15.568129
       4A    -15.566198     5A    -15.557952     6A    -11.335539
       7A    -11.331838     8A    -11.328037     9A    -11.314659
      10A    -11.251957    11A     -1.374269    12A     -1.298919
      13A     -1.232825    14A     -1.182409    15A     -1.145297
      16A     -1.049423    17A     -0.903785    18A     -0.881940
      19A     -0.852923    20A     -0.773033    21A     -0.727391
      22A     -0.698728    23A     -0.669158    24A     -0.645212
      25A     -0.624722    26A     -0.616089    27A     -0.589045
      28A     -0.553970    29A     -0.503862    30A     -0.492540
      31A     -0.461712    32A     -0.421724    33A     -0.418458
      34A     -0.374954    35A     -0.319848

  @DF-RHF Final Energy:  -464.66930804139514

   => Energetics <=

    Nuclear Repulsion Energy =            502.7945798952315499
    One-Electron Energy =               -1628.3601138735698441
    Two-Electron Energy =                 660.8962259369432104
    Total Energy =                       -464.6693080413951975
  Basis Set: (AUG-CC-PVTZ AUX)
    Blend: AUG-CC-PVTZ-RI
    Molecular point group: c1

    Geometry (in Angstrom), charge = 0, multiplicity = 1:

       Center              X                  Y                   Z               Mass
    ------------   -----------------  -----------------  -----------------  -----------------
         N            1.958859312444     0.506365562464     0.000004996551    14.003074004430
         C            1.158531812444    -0.571783737536    -0.000002703449    12.000000000000
         C           -0.171463687556    -0.534921437536    -0.000011003449    12.000000000000
         C           -0.702894687556     0.757841562464    -0.000000003449    12.000000000000
         N           -0.020499687556     1.915546562464     0.000004996551    14.003074004430
         C            1.298586312444     1.686797562464     0.000011996551    12.000000000000
         N           -1.157703687556    -1.501633437536    -0.000017003449    14.003074004430
         C           -2.278080687556    -0.792046437536     0.000043996551    12.000000000000
         N           -2.067269687556     0.563615562464    -0.000023003449    14.003074004430
         N            1.873914312444    -1.817787437536    -0.000006003449    14.003074004430
         H            1.934126312444     2.569851562464     0.000001996551     1.007825032230
         H           -3.275697687556    -1.213275437536     0.000067996551     1.007825032230
         H           -2.767808687556     1.295705562464    -0.000084003449     1.007825032230
         H            2.883047312444    -1.835744437536     0.000008996551     1.007825032230
         H            1.345240312444    -2.677097437536     0.000001996551     1.007825032230

  Basis Set: AUG-CC-PVTZ
    Blend: AUG-CC-PVTZ
  Basis Set: (AUG-CC-PVTZ AUX)
    Blend: AUG-CC-PVTZ-JKFIT
	 Reference Energy          =    -464.6693080413951407 [Eh]
	 Singles Energy            =      -0.0000000000000000 [Eh]
	 Same-Spin Energy          =      -0.5063075844035593 [Eh]
	 Opposite-Spin Energy      =      -1.4769989996315471 [Eh]
	 Correlation Energy        =      -1.9833065840351063 [Eh]
	 Total Energy              =    -466.6526146254302603 [Eh]

	 ================> DF-SCS-MP2 Energies <==================
	-----------------------------------------------------------
	 SCS Same-Spin Scale       =       0.3333333333333333 [-]
	 SCS Opposite-Spin Scale   =       1.2000000000000000 [-]
	 SCS Same-Spin Energy      =      -0.1687691948011864 [Eh]
	 SCS Opposite-Spin Energy  =      -1.7723987995578565 [Eh]
	 SCS Correlation Energy    =      -1.9411679943590430 [Eh]
	 SCS Total Energy          =    -466.6104760357541750 [Eh]
	-----------------------------------------------------------

  Dipole Moment: [D]
     X:    -2.8235      Y:    -0.5272      Z:    -0.0000     Total:     2.8723

*** Psi4 exiting successfully. Buy a developer a beer!
