                               Psi4 1.3.2 release

  ==> Input File <==

--------------------------------------------------------------------------
#psi4
#
memory 32 gb

molecule  {
0 1
  N        1.9514160     0.5241040     0.0000050
  C        1.2282460    -0.6072470    -0.0000030
  C       -0.1789070    -0.5171830    -0.0000110
  C       -0.7103380     0.7755800     0.0000000
  N       -0.0279430     1.9332850     0.0000050
  C        1.2911430     1.7045360     0.0000120
  N       -1.1651470    -1.4838950    -0.0000170
  C       -2.2855240    -0.7743080     0.0000440
  N       -2.0747130     0.5813540    -0.0000230
  N        1.8664710    -1.8000490    -0.0000060
  H        1.9266830     2.5875900     0.0000020
  H       -3.1910165    -1.1566388     0.0000658
  H       -2.7752520     1.3134440    -0.0000840
  H        2.8756040    -1.8180060     0.0000090
  H        1.3377970    -2.6593590     0.0000020
units angstrom
no_reorient  #important for SAPT in psi4, default
symmetry c1  #important for SAPT in psi4, default
}

set PROPERTIES_ORIGIN ["COM"]
properties('MP2/aug-cc-pvtz', properties = ['dipole'])
--------------------------------------------------------------------------

    Molecular point group: c1
  Charge       = 0
  Multiplicity = 1
  Basis Set: AUG-CC-PVTZ
    Blend: AUG-CC-PVTZ
  Basis Set: (AUG-CC-PVTZ AUX)
    Blend: AUG-CC-PVTZ-JKFIT

    Orbital Energies [Eh]
    ---------------------

    Doubly Occupied:

       1A    -15.633997     2A    -15.585627     3A    -15.571482
       4A    -15.559268     5A    -15.551601     6A    -11.338734
       7A    -11.317925     8A    -11.315634     9A    -11.312361
      10A    -11.252442    11A     -1.366099    12A     -1.297312
      13A     -1.245208    14A     -1.185225    15A     -1.151048
      16A     -1.035181    17A     -0.902251    18A     -0.875611
      19A     -0.850682    20A     -0.783087    21A     -0.739988
      22A     -0.704832    23A     -0.675864    24A     -0.638597
      25A     -0.637402    26A     -0.616238    27A     -0.592357
      28A     -0.557886    29A     -0.497011    30A     -0.496703
      31A     -0.452989    32A     -0.423937    33A     -0.410586
      34A     -0.373001    35A     -0.307629

  @DF-RHF Final Energy:  -464.67595505875693

   => Energetics <=

    Nuclear Repulsion Energy =            502.3898712742577572
    One-Electron Energy =               -1627.6200585558585772
    Two-Electron Energy =                 660.5542322228438934
    Total Energy =                       -464.6759550587569265
  Basis Set: (AUG-CC-PVTZ AUX)
    Blend: AUG-CC-PVTZ-RI
    Molecular point group: c1

    Geometry (in Angstrom), charge = 0, multiplicity = 1:

       Center              X                  Y                   Z               Mass
    ------------   -----------------  -----------------  -----------------  -----------------
         N            1.951316169391     0.510802421966     0.000005039624    14.003074004430
         C            1.228146169391    -0.620548578034    -0.000002960376    12.000000000000
         C           -0.179006830609    -0.530484578034    -0.000010960376    12.000000000000
         C           -0.710437830609     0.762278421966     0.000000039624    12.000000000000
         N           -0.028042830609     1.919983421966     0.000005039624    14.003074004430
         C            1.291043169391     1.691234421966     0.000012039624    12.000000000000
         N           -1.165246830609    -1.497196578034    -0.000016960376    14.003074004430
         C           -2.285623830609    -0.787609578034     0.000044039624    12.000000000000
         N           -2.074812830609     0.568052421966    -0.000022960376    14.003074004430
         N            1.866371169391    -1.813350578034    -0.000005960376    14.003074004430
         H            1.926583169391     2.574288421966     0.000002039624     1.007825032230
         H           -3.191116330609    -1.169940378034     0.000065839624     1.007825032230
         H           -2.775351830609     1.300142421966    -0.000083960376     1.007825032230
         H            2.875504169391    -1.831307578034     0.000009039624     1.007825032230
         H            1.337697169391    -2.672660578034     0.000002039624     1.007825032230

  Basis Set: AUG-CC-PVTZ
    Blend: AUG-CC-PVTZ
  Basis Set: (AUG-CC-PVTZ AUX)
    Blend: AUG-CC-PVTZ-JKFIT
	 Reference Energy          =    -464.6759550587569265 [Eh]
	 Singles Energy            =      -0.0000000000000000 [Eh]
	 Same-Spin Energy          =      -0.5061256911078532 [Eh]
	 Opposite-Spin Energy      =      -1.4758290411684554 [Eh]
	 Correlation Energy        =      -1.9819547322763085 [Eh]
	 Total Energy              =    -466.6579097910332621 [Eh]

	 ================> DF-SCS-MP2 Energies <==================
	-----------------------------------------------------------
	 SCS Same-Spin Scale       =       0.3333333333333333 [-]
	 SCS Opposite-Spin Scale   =       1.2000000000000000 [-]
	 SCS Same-Spin Energy      =      -0.1687085637026177 [Eh]
	 SCS Opposite-Spin Energy  =      -1.7709948494021464 [Eh]
	 SCS Correlation Energy    =      -1.9397034131047641 [Eh]
	 SCS Total Energy          =    -466.6156584718617069 [Eh]
	-----------------------------------------------------------

  Dipole Moment: [D]
     X:    -2.2451      Y:    -1.1697      Z:    -0.0000     Total:     2.5315

*** Psi4 exiting successfully. Buy a developer a beer!
