                               Psi4 1.3.2 release

  ==> Input File <==

--------------------------------------------------------------------------
#psi4
#
memory 32 gb

molecule  {
0 1
  N        1.9514160     0.5241040     0.0000050
  C        1.3504660    -0.6766412    -0.0000033
  C       -0.1789070    -0.5171830    -0.0000110
  C       -0.7103380     0.7755800     0.0000000
  N       -0.0279430     1.9332850     0.0000050
  C        1.2911430     1.7045360     0.0000120
  N       -1.1651470    -1.4838950    -0.0000170
  C       -2.2855240    -0.7743080     0.0000440
  N       -2.0747130     0.5813540    -0.0000230
  N        1.8664710    -1.8000490    -0.0000060
  H        1.9266830     2.5875900     0.0000020
  H       -3.2831410    -1.1955370     0.0000680
  H       -2.7752520     1.3134440    -0.0000840
  H        2.8756040    -1.8180060     0.0000090
  H        1.3377970    -2.6593590     0.0000020
units angstrom
no_reorient  #important for SAPT in psi4, default
symmetry c1  #important for SAPT in psi4, default
}

set PROPERTIES_ORIGIN ["COM"]
properties('MP2/aug-cc-pvtz', properties = ['dipole'])
--------------------------------------------------------------------------

    Molecular point group: c1
  Charge       = 0
  Multiplicity = 1
  Basis Set: AUG-CC-PVTZ
    Blend: AUG-CC-PVTZ
  Basis Set: (AUG-CC-PVTZ AUX)
    Blend: AUG-CC-PVTZ-JKFIT

    Orbital Energies [Eh]
    ---------------------

    Doubly Occupied:

       1A    -15.626466     2A    -15.610856     3A    -15.564417
       4A    -15.548978     5A    -15.542351     6A    -11.347444
       7A    -11.314434     8A    -11.309902     9A    -11.304358
      10A    -11.252273    11A     -1.356778    12A     -1.325720
      13A     -1.258750    14A     -1.183699    15A     -1.148941
      16A     -1.010315    17A     -0.895050    18A     -0.862579
      19A     -0.835746    20A     -0.797029    21A     -0.760822
      22A     -0.710620    23A     -0.676142    24A     -0.636200
      25A     -0.630173    26A     -0.591595    27A     -0.581456
      28A     -0.579388    29A     -0.501707    30A     -0.487078
      31A     -0.439672    32A     -0.421039    33A     -0.392748
      34A     -0.370167    35A     -0.291017

  @DF-RHF Final Energy:  -464.65304867357554

   => Energetics <=

    Nuclear Repulsion Energy =            500.6363629448361507
    One-Electron Energy =               -1624.2470025810041534
    Two-Electron Energy =                 658.9575909625923487
    Total Energy =                       -464.6530486735755403
  Basis Set: (AUG-CC-PVTZ AUX)
    Blend: AUG-CC-PVTZ-RI
    Molecular point group: c1

    Geometry (in Angstrom), charge = 0, multiplicity = 1:

       Center              X                  Y                   Z               Mass
    ------------   -----------------  -----------------  -----------------  -----------------
         N            1.941144019097     0.517258578635     0.000005049862    14.003074004430
         C            1.340194019097    -0.683486621365    -0.000003250138    12.000000000000
         C           -0.189178980903    -0.524028421365    -0.000010950138    12.000000000000
         C           -0.720609980903     0.768734578635     0.000000049862    12.000000000000
         N           -0.038214980903     1.926439578635     0.000005049862    14.003074004430
         C            1.280871019097     1.697690578635     0.000012049862    12.000000000000
         N           -1.175418980903    -1.490740421365    -0.000016950138    14.003074004430
         C           -2.295795980903    -0.781153421365     0.000044049862    12.000000000000
         N           -2.084984980903     0.574508578635    -0.000022950138    14.003074004430
         N            1.856199019097    -1.806894421365    -0.000005950138    14.003074004430
         H            1.916411019097     2.580744578635     0.000002049862     1.007825032230
         H           -3.293412980903    -1.202382421365     0.000068049862     1.007825032230
         H           -2.785523980903     1.306598578635    -0.000083950138     1.007825032230
         H            2.865332019097    -1.824851421365     0.000009049862     1.007825032230
         H            1.327525019097    -2.666204421365     0.000002049862     1.007825032230

  Basis Set: AUG-CC-PVTZ
    Blend: AUG-CC-PVTZ
  Basis Set: (AUG-CC-PVTZ AUX)
    Blend: AUG-CC-PVTZ-JKFIT
	 Reference Energy          =    -464.6530486735755403 [Eh]
	 Singles Energy            =      -0.0000000000000000 [Eh]
	 Same-Spin Energy          =      -0.5066090586878279 [Eh]
	 Opposite-Spin Energy      =      -1.4766251738122649 [Eh]
	 Correlation Energy        =      -1.9832342325000929 [Eh]
	 Total Energy              =    -466.6362829060756212 [Eh]

	 ================> DF-SCS-MP2 Energies <==================
	-----------------------------------------------------------
	 SCS Same-Spin Scale       =       0.3333333333333333 [-]
	 SCS Opposite-Spin Scale   =       1.2000000000000000 [-]
	 SCS Same-Spin Energy      =      -0.1688696862292760 [Eh]
	 SCS Opposite-Spin Energy  =      -1.7719502085747179 [Eh]
	 SCS Correlation Energy    =      -1.9408198948039939 [Eh]
	 SCS Total Energy          =    -466.5938685683795484 [Eh]
	-----------------------------------------------------------

  Dipole Moment: [D]
     X:    -1.4197      Y:    -2.1289      Z:    -0.0000     Total:     2.5589

*** Psi4 exiting successfully. Buy a developer a beer!
