                               Psi4 1.3.2 release

  ==> Input File <==

--------------------------------------------------------------------------
#psi4
#
memory 32 gb

molecule  {
0 1
  N        1.9514160     0.5241040     0.0000050
  C        1.2282460    -0.6072470    -0.0000030
  C       -0.2703801    -0.5511046    -0.0000108
  C       -0.7103380     0.7755800     0.0000000
  N       -0.0279430     1.9332850     0.0000050
  C        1.2911430     1.7045360     0.0000120
  N       -1.1651470    -1.4838950    -0.0000170
  C       -2.2855240    -0.7743080     0.0000440
  N       -2.0747130     0.5813540    -0.0000230
  N        1.8664710    -1.8000490    -0.0000060
  H        1.9266830     2.5875900     0.0000020
  H       -3.2831410    -1.1955370     0.0000680
  H       -2.7752520     1.3134440    -0.0000840
  H        2.8756040    -1.8180060     0.0000090
  H        1.3377970    -2.6593590     0.0000020
units angstrom
no_reorient  #important for SAPT in psi4, default
symmetry c1  #important for SAPT in psi4, default
}

set PROPERTIES_ORIGIN ["COM"]
properties('MP2/aug-cc-pvtz', properties = ['dipole'])
--------------------------------------------------------------------------

    Molecular point group: c1
  Charge       = 0
  Multiplicity = 1
  Basis Set: AUG-CC-PVTZ
    Blend: AUG-CC-PVTZ
  Basis Set: (AUG-CC-PVTZ AUX)
    Blend: AUG-CC-PVTZ-JKFIT

    Orbital Energies [Eh]
    ---------------------

    Doubly Occupied:

       1A    -15.635140     2A    -15.589292     3A    -15.569185
       4A    -15.558225     5A    -15.551625     6A    -11.346542
       7A    -11.322954     8A    -11.311907     9A    -11.309370
      10A    -11.256820    11A     -1.377198    12A     -1.295371
      13A     -1.248560    14A     -1.201307    15A     -1.151280
      16A     -1.022098    17A     -0.892105    18A     -0.869129
      19A     -0.853040    20A     -0.776868    21A     -0.740316
      22A     -0.703129    23A     -0.679255    24A     -0.640881
      25A     -0.633801    26A     -0.593691    27A     -0.587548
      28A     -0.556220    29A     -0.498768    30A     -0.498762
      31A     -0.465250    32A     -0.434238    33A     -0.404784
      34A     -0.374265    35A     -0.295171

  @DF-RHF Final Energy:  -464.66608088194266

   => Energetics <=

    Nuclear Repulsion Energy =            501.8627360059116427
    One-Electron Energy =               -1626.5694436248295460
    Two-Electron Energy =                 660.0406267369751276
    Total Energy =                       -464.6660808819426620
  Basis Set: (AUG-CC-PVTZ AUX)
    Blend: AUG-CC-PVTZ-RI
    Molecular point group: c1

    Geometry (in Angstrom), charge = 0, multiplicity = 1:

       Center              X                  Y                   Z               Mass
    ------------   -----------------  -----------------  -----------------  -----------------
         N            1.960131296763     0.514106730935     0.000005005436    14.003074004430
         C            1.236961296763    -0.617244269065    -0.000002994564    12.000000000000
         C           -0.261664803237    -0.561101869065    -0.000010794564    12.000000000000
         C           -0.701622703237     0.765582730935     0.000000005436    12.000000000000
         N           -0.019227703237     1.923287730935     0.000005005436    14.003074004430
         C            1.299858296763     1.694538730935     0.000012005436    12.000000000000
         N           -1.156431703237    -1.493892269065    -0.000016994564    14.003074004430
         C           -2.276808703237    -0.784305269065     0.000044005436    12.000000000000
         N           -2.065997703237     0.571356730935    -0.000022994564    14.003074004430
         N            1.875186296763    -1.810046269065    -0.000005994564    14.003074004430
         H            1.935398296763     2.577592730935     0.000002005436     1.007825032230
         H           -3.274425703237    -1.205534269065     0.000068005436     1.007825032230
         H           -2.766536703237     1.303446730935    -0.000083994564     1.007825032230
         H            2.884319296763    -1.828003269065     0.000009005436     1.007825032230
         H            1.346512296763    -2.669356269065     0.000002005436     1.007825032230

  Basis Set: AUG-CC-PVTZ
    Blend: AUG-CC-PVTZ
  Basis Set: (AUG-CC-PVTZ AUX)
    Blend: AUG-CC-PVTZ-JKFIT
	 Reference Energy          =    -464.6660808819426620 [Eh]
	 Singles Energy            =      -0.0000000000000000 [Eh]
	 Same-Spin Energy          =      -0.5076360287075485 [Eh]
	 Opposite-Spin Energy      =      -1.4772840000876601 [Eh]
	 Correlation Energy        =      -1.9849200287952087 [Eh]
	 Total Energy              =    -466.6510009107378778 [Eh]

	 ================> DF-SCS-MP2 Energies <==================
	-----------------------------------------------------------
	 SCS Same-Spin Scale       =       0.3333333333333333 [-]
	 SCS Opposite-Spin Scale   =       1.2000000000000000 [-]
	 SCS Same-Spin Energy      =      -0.1692120095691828 [Eh]
	 SCS Opposite-Spin Energy  =      -1.7727408001051921 [Eh]
	 SCS Correlation Energy    =      -1.9419528096743750 [Eh]
	 SCS Total Energy          =    -466.6080336916170381 [Eh]
	-----------------------------------------------------------

  Dipole Moment: [D]
     X:    -2.2333      Y:    -1.3553      Z:    -0.0000     Total:     2.6124

*** Psi4 exiting successfully. Buy a developer a beer!
