                               Psi4 1.3.2 release

  ==> Input File <==

--------------------------------------------------------------------------
#psi4
#
memory 32 gb

molecule  {
0 1
  N        1.9514160     0.5241040     0.0000050
  C        1.2282460    -0.6072470    -0.0000030
  C       -0.1789070    -0.5171830    -0.0000110
  C       -0.7103380     0.7755800     0.0000000
  N       -0.0279430     1.9332850     0.0000050
  C        1.2911430     1.7045360     0.0000120
  N       -1.1183779    -1.4040129    -0.0000236
  C       -2.2855240    -0.7743080     0.0000440
  N       -2.0747130     0.5813540    -0.0000230
  N        1.8664710    -1.8000490    -0.0000060
  H        1.9266830     2.5875900     0.0000020
  H       -3.2831410    -1.1955370     0.0000680
  H       -2.7752520     1.3134440    -0.0000840
  H        2.8756040    -1.8180060     0.0000090
  H        1.3377970    -2.6593590     0.0000020
units angstrom
no_reorient  #important for SAPT in psi4, default
symmetry c1  #important for SAPT in psi4, default
}

set PROPERTIES_ORIGIN ["COM"]
properties('MP2/aug-cc-pvtz', properties = ['dipole'])
--------------------------------------------------------------------------

    Molecular point group: c1
  Charge       = 0
  Multiplicity = 1
  Basis Set: AUG-CC-PVTZ
    Blend: AUG-CC-PVTZ
  Basis Set: (AUG-CC-PVTZ AUX)
    Blend: AUG-CC-PVTZ-JKFIT

    Orbital Energies [Eh]
    ---------------------

    Doubly Occupied:

       1A    -15.634222     2A    -15.586344     3A    -15.561055
       4A    -15.557014     5A    -15.550781     6A    -11.338218
       7A    -11.322806     8A    -11.312040     9A    -11.309936
      10A    -11.246588    11A     -1.375766    12A     -1.297031
      13A     -1.246977    14A     -1.194522    15A     -1.150826
      16A     -1.030116    17A     -0.896964    18A     -0.878714
      19A     -0.846877    20A     -0.777822    21A     -0.741449
      22A     -0.698554    23A     -0.682563    24A     -0.641959
      25A     -0.638867    26A     -0.618750    27A     -0.590831
      28A     -0.557162    29A     -0.497830    30A     -0.490204
      31A     -0.452426    32A     -0.431350    33A     -0.404070
      34A     -0.372449    35A     -0.299012

  @DF-RHF Final Energy:  -464.67488557386895

   => Energetics <=

    Nuclear Repulsion Energy =            504.4159947671039390
    One-Electron Energy =               -1631.7175745051192735
    Two-Electron Energy =                 662.6266941641463291
    Total Energy =                       -464.6748855738690054
  Basis Set: (AUG-CC-PVTZ AUX)
    Blend: AUG-CC-PVTZ-RI
    Molecular point group: c1

    Geometry (in Angstrom), charge = 0, multiplicity = 1:

       Center              X                  Y                   Z               Mass
    ------------   -----------------  -----------------  -----------------  -----------------
         N            1.947154399059     0.502810149093     0.000005707525    14.003074004430
         C            1.223984399059    -0.628540850907    -0.000002292475    12.000000000000
         C           -0.183168600941    -0.538476850907    -0.000010292475    12.000000000000
         C           -0.714599600941     0.754286149093     0.000000707525    12.000000000000
         N           -0.032204600941     1.911991149093     0.000005707525    14.003074004430
         C            1.286881399059     1.683242149093     0.000012707525    12.000000000000
         N           -1.122639500941    -1.425306750907    -0.000022892475    14.003074004430
         C           -2.289785600941    -0.795601850907     0.000044707525    12.000000000000
         N           -2.078974600941     0.560060149093    -0.000022292475    14.003074004430
         N            1.862209399059    -1.821342850907    -0.000005292475    14.003074004430
         H            1.922421399059     2.566296149093     0.000002707525     1.007825032230
         H           -3.287402600941    -1.216830850907     0.000068707525     1.007825032230
         H           -2.779513600941     1.292150149093    -0.000083292475     1.007825032230
         H            2.871342399059    -1.839299850907     0.000009707525     1.007825032230
         H            1.333535399059    -2.680652850907     0.000002707525     1.007825032230

  Basis Set: AUG-CC-PVTZ
    Blend: AUG-CC-PVTZ
  Basis Set: (AUG-CC-PVTZ AUX)
    Blend: AUG-CC-PVTZ-JKFIT
	 Reference Energy          =    -464.6748855738689485 [Eh]
	 Singles Energy            =      -0.0000000000000000 [Eh]
	 Same-Spin Energy          =      -0.5075845206388521 [Eh]
	 Opposite-Spin Energy      =      -1.4762360317171088 [Eh]
	 Correlation Energy        =      -1.9838205523559609 [Eh]
	 Total Energy              =    -466.6587061262248994 [Eh]

	 ================> DF-SCS-MP2 Energies <==================
	-----------------------------------------------------------
	 SCS Same-Spin Scale       =       0.3333333333333333 [-]
	 SCS Opposite-Spin Scale   =       1.2000000000000000 [-]
	 SCS Same-Spin Energy      =      -0.1691948402129507 [Eh]
	 SCS Opposite-Spin Energy  =      -1.7714832380605305 [Eh]
	 SCS Correlation Energy    =      -1.9406780782734812 [Eh]
	 SCS Total Energy          =    -466.6155636521424412 [Eh]
	-----------------------------------------------------------

  Dipole Moment: [D]
     X:    -2.4013      Y:    -1.3597      Z:    -0.0000     Total:     2.7595

*** Psi4 exiting successfully. Buy a developer a beer!
