                               Psi4 1.3.2 release

  ==> Input File <==

--------------------------------------------------------------------------
#psi4
#
memory 32 gb

molecule  {
0 1
  N        1.9514160     0.5241040     0.0000050
  C        1.2282460    -0.6072470    -0.0000030
  C       -0.1789070    -0.5171830    -0.0000110
  C       -0.7103380     0.7755800     0.0000000
  N       -0.0279430     1.9332850     0.0000050
  C        1.2911430     1.7045360     0.0000120
  N       -1.0971125    -1.3628965    -0.0000268
  C       -2.2855240    -0.7743080     0.0000440
  N       -2.0747130     0.5813540    -0.0000230
  N        1.8664710    -1.8000490    -0.0000060
  H        1.9266830     2.5875900     0.0000020
  H       -3.2831410    -1.1955370     0.0000680
  H       -2.7752520     1.3134440    -0.0000840
  H        2.8756040    -1.8180060     0.0000090
  H        1.3377970    -2.6593590     0.0000020
units angstrom
no_reorient  #important for SAPT in psi4, default
symmetry c1  #important for SAPT in psi4, default
}

set PROPERTIES_ORIGIN ["COM"]
properties('MP2/aug-cc-pvtz', properties = ['dipole'])
--------------------------------------------------------------------------

    Molecular point group: c1
  Charge       = 0
  Multiplicity = 1
  Basis Set: AUG-CC-PVTZ
    Blend: AUG-CC-PVTZ
  Basis Set: (AUG-CC-PVTZ AUX)
    Blend: AUG-CC-PVTZ-JKFIT

    Orbital Energies [Eh]
    ---------------------

    Doubly Occupied:

       1A    -15.634014     2A    -15.586893     3A    -15.555775
       4A    -15.555391     5A    -15.550388     6A    -11.337949
       7A    -11.320556     8A    -11.308829     9A    -11.308747
      10A    -11.243228    11A     -1.382115    12A     -1.296967
      13A     -1.248257    14A     -1.199218    15A     -1.150642
      16A     -1.029024    17A     -0.898650    18A     -0.881446
      19A     -0.846190    20A     -0.777571    21A     -0.743366
      22A     -0.697909    23A     -0.686538    24A     -0.644891
      25A     -0.641430    26A     -0.621410    27A     -0.590823
      28A     -0.556801    29A     -0.498665    30A     -0.487132
      31A     -0.451812    32A     -0.435431    33A     -0.399542
      34A     -0.372042    35A     -0.294466

  @DF-RHF Final Energy:  -464.66345825165058

   => Energetics <=

    Nuclear Repulsion Energy =            505.7839331996223109
    One-Electron Energy =               -1634.4265716205404715
    Two-Electron Energy =                 663.9791801692674653
    Total Energy =                       -464.6634582516505816
  Basis Set: (AUG-CC-PVTZ AUX)
    Blend: AUG-CC-PVTZ-RI
    Molecular point group: c1

    Geometry (in Angstrom), charge = 0, multiplicity = 1:

       Center              X                  Y                   Z               Mass
    ------------   -----------------  -----------------  -----------------  -----------------
         N            1.944949504142     0.498547010786     0.000006039316    14.003074004430
         C            1.221779504142    -0.632803989214    -0.000001960684    12.000000000000
         C           -0.185373495858    -0.542739989214    -0.000009960684    12.000000000000
         C           -0.716804495858     0.750023010786     0.000001039316    12.000000000000
         N           -0.034409495858     1.907728010786     0.000006039316    14.003074004430
         C            1.284676504142     1.678979010786     0.000013039316    12.000000000000
         N           -1.103578995858    -1.388453489214    -0.000025760684    14.003074004430
         C           -2.291990495858    -0.799864989214     0.000045039316    12.000000000000
         N           -2.081179495858     0.555797010786    -0.000021960684    14.003074004430
         N            1.860004504142    -1.825605989214    -0.000004960684    14.003074004430
         H            1.920216504142     2.562033010786     0.000003039316     1.007825032230
         H           -3.289607495858    -1.221093989214     0.000069039316     1.007825032230
         H           -2.781718495858     1.287887010786    -0.000082960684     1.007825032230
         H            2.869137504142    -1.843562989214     0.000010039316     1.007825032230
         H            1.331330504142    -2.684915989214     0.000003039316     1.007825032230

  Basis Set: AUG-CC-PVTZ
    Blend: AUG-CC-PVTZ
  Basis Set: (AUG-CC-PVTZ AUX)
    Blend: AUG-CC-PVTZ-JKFIT
	 Reference Energy          =    -464.6634582516505816 [Eh]
	 Singles Energy            =      -0.0000000000000000 [Eh]
	 Same-Spin Energy          =      -0.5083982947279797 [Eh]
	 Opposite-Spin Energy      =      -1.4766180982285277 [Eh]
	 Correlation Energy        =      -1.9850163929565074 [Eh]
	 Total Energy              =    -466.6484746446070631 [Eh]

	 ================> DF-SCS-MP2 Energies <==================
	-----------------------------------------------------------
	 SCS Same-Spin Scale       =       0.3333333333333333 [-]
	 SCS Opposite-Spin Scale   =       1.2000000000000000 [-]
	 SCS Same-Spin Energy      =      -0.1694660982426599 [Eh]
	 SCS Opposite-Spin Energy  =      -1.7719417178742332 [Eh]
	 SCS Correlation Energy    =      -1.9414078161168931 [Eh]
	 SCS Total Energy          =    -466.6048660677674889 [Eh]
	-----------------------------------------------------------

  Dipole Moment: [D]
     X:    -2.4748      Y:    -1.4625      Z:    -0.0000     Total:     2.8746

*** Psi4 exiting successfully. Buy a developer a beer!
