                               Psi4 1.3.2 release

  ==> Input File <==

--------------------------------------------------------------------------
#psi4
#
memory 32 gb

molecule  {
0 1
  N        1.9514160     0.5241040     0.0000050
  C        1.2282460    -0.6072470    -0.0000030
  C       -0.1789070    -0.5171830    -0.0000110
  C       -0.7103380     0.7755800     0.0000000
  N       -0.1103627     1.9780664     0.0000033
  C        1.2911430     1.7045360     0.0000120
  N       -1.1651470    -1.4838950    -0.0000170
  C       -2.2855240    -0.7743080     0.0000440
  N       -2.0747130     0.5813540    -0.0000230
  N        1.8664710    -1.8000490    -0.0000060
  H        1.9266830     2.5875900     0.0000020
  H       -3.2831410    -1.1955370     0.0000680
  H       -2.7752520     1.3134440    -0.0000840
  H        2.8756040    -1.8180060     0.0000090
  H        1.3377970    -2.6593590     0.0000020
units angstrom
no_reorient  #important for SAPT in psi4, default
symmetry c1  #important for SAPT in psi4, default
}

set PROPERTIES_ORIGIN ["COM"]
properties('MP2/aug-cc-pvtz', properties = ['dipole'])
--------------------------------------------------------------------------

    Molecular point group: c1
  Charge       = 0
  Multiplicity = 1
  Basis Set: AUG-CC-PVTZ
    Blend: AUG-CC-PVTZ
  Basis Set: (AUG-CC-PVTZ AUX)
    Blend: AUG-CC-PVTZ-JKFIT

    Orbital Energies [Eh]
    ---------------------

    Doubly Occupied:

       1A    -15.628877     2A    -15.588456     3A    -15.570262
       4A    -15.568453     5A    -15.561089     6A    -11.341746
       7A    -11.326186     8A    -11.325461     9A    -11.317245
      10A    -11.252397    11A     -1.363866    12A     -1.295068
      13A     -1.236382    14A     -1.185066    15A     -1.150610
      16A     -1.026699    17A     -0.896782    18A     -0.871481
      19A     -0.845709    20A     -0.771654    21A     -0.737296
      22A     -0.701023    23A     -0.668584    24A     -0.635232
      25A     -0.630087    26A     -0.614106    27A     -0.578185
      28A     -0.558077    29A     -0.504922    30A     -0.488874
      31A     -0.457037    32A     -0.424086    33A     -0.415594
      34A     -0.378045    35A     -0.301737

  @DF-RHF Final Energy:  -464.66913174713920

   => Energetics <=

    Nuclear Repulsion Energy =            500.0530191537894780
    One-Electron Energy =               -1623.0115497744545792
    Two-Electron Energy =                 658.2893988735257835
    Total Energy =                       -464.6691317471392040
  Basis Set: (AUG-CC-PVTZ AUX)
    Blend: AUG-CC-PVTZ-RI
    Molecular point group: c1

    Geometry (in Angstrom), charge = 0, multiplicity = 1:

       Center              X                  Y                   Z               Mass
    ------------   -----------------  -----------------  -----------------  -----------------
         N            1.960549290687     0.506449551832     0.000005199470    14.003074004430
         C            1.237379290687    -0.624901448168    -0.000002800530    12.000000000000
         C           -0.169773709313    -0.534837448168    -0.000010800530    12.000000000000
         C           -0.701204709313     0.757925551832     0.000000199470    12.000000000000
         N           -0.101229409313     1.960411951832     0.000003499470    14.003074004430
         C            1.300276290687     1.686881551832     0.000012199470    12.000000000000
         N           -1.156013709313    -1.501549448168    -0.000016800530    14.003074004430
         C           -2.276390709313    -0.791962448168     0.000044199470    12.000000000000
         N           -2.065579709313     0.563699551832    -0.000022800530    14.003074004430
         N            1.875604290687    -1.817703448168    -0.000005800530    14.003074004430
         H            1.935816290687     2.569935551832     0.000002199470     1.007825032230
         H           -3.274007709313    -1.213191448168     0.000068199470     1.007825032230
         H           -2.766118709313     1.295789551832    -0.000083800530     1.007825032230
         H            2.884737290687    -1.835660448168     0.000009199470     1.007825032230
         H            1.346930290687    -2.677013448168     0.000002199470     1.007825032230

  Basis Set: AUG-CC-PVTZ
    Blend: AUG-CC-PVTZ
  Basis Set: (AUG-CC-PVTZ AUX)
    Blend: AUG-CC-PVTZ-JKFIT
	 Reference Energy          =    -464.6691317471392040 [Eh]
	 Singles Energy            =      -0.0000000000000000 [Eh]
	 Same-Spin Energy          =      -0.5073955984865345 [Eh]
	 Opposite-Spin Energy      =      -1.4797466473869934 [Eh]
	 Correlation Energy        =      -1.9871422458735277 [Eh]
	 Total Energy              =    -466.6562739930127464 [Eh]

	 ================> DF-SCS-MP2 Energies <==================
	-----------------------------------------------------------
	 SCS Same-Spin Scale       =       0.3333333333333333 [-]
	 SCS Opposite-Spin Scale   =       1.2000000000000000 [-]
	 SCS Same-Spin Energy      =      -0.1691318661621782 [Eh]
	 SCS Opposite-Spin Energy  =      -1.7756959768643921 [Eh]
	 SCS Correlation Energy    =      -1.9448278430265702 [Eh]
	 SCS Total Energy          =    -466.6139595901657913 [Eh]
	-----------------------------------------------------------

  Dipole Moment: [D]
     X:    -2.0003      Y:    -1.3211      Z:    -0.0000     Total:     2.3972

*** Psi4 exiting successfully. Buy a developer a beer!
