                               Psi4 1.3.2 release

  ==> Input File <==

--------------------------------------------------------------------------
#psi4
#
memory 32 gb

molecule  {
0 1
  N        1.9514160     0.5241040     0.0000050
  C        1.2282460    -0.6072470    -0.0000030
  C       -0.1789070    -0.5171830    -0.0000110
  C       -0.7103380     0.7755800     0.0000000
  N       -0.0279430     1.9332850     0.0000050
  C        1.2911430     1.7045360     0.0000120
  N       -1.1651470    -1.4838950    -0.0000170
  C       -2.2855240    -0.7743080     0.0000440
  N       -2.0747130     0.5813540    -0.0000230
  N        1.8664710    -1.8000490    -0.0000060
  H        1.9850978     2.6687547     0.0000011
  H       -3.2831410    -1.1955370     0.0000680
  H       -2.7752520     1.3134440    -0.0000840
  H        2.8756040    -1.8180060     0.0000090
  H        1.3377970    -2.6593590     0.0000020
units angstrom
no_reorient  #important for SAPT in psi4, default
symmetry c1  #important for SAPT in psi4, default
}

set PROPERTIES_ORIGIN ["COM"]
properties('MP2/aug-cc-pvtz', properties = ['dipole'])
--------------------------------------------------------------------------

    Molecular point group: c1
  Charge       = 0
  Multiplicity = 1
  Basis Set: AUG-CC-PVTZ
    Blend: AUG-CC-PVTZ
  Basis Set: (AUG-CC-PVTZ AUX)
    Blend: AUG-CC-PVTZ-JKFIT

    Orbital Energies [Eh]
    ---------------------

    Doubly Occupied:

       1A    -15.635048     2A    -15.586120     3A    -15.572052
       4A    -15.560467     5A    -15.552778     6A    -11.339689
       7A    -11.327005     8A    -11.323338     9A    -11.318969
      10A    -11.253184    11A     -1.366691    12A     -1.297713
      13A     -1.245631    14A     -1.185928    15A     -1.151884
      16A     -1.030964    17A     -0.893823    18A     -0.870308
      19A     -0.846707    20A     -0.777280    21A     -0.736829
      22A     -0.695167    23A     -0.675954    24A     -0.638181
      25A     -0.630820    26A     -0.613357    27A     -0.578674
      28A     -0.558589    29A     -0.497413    30A     -0.493618
      31A     -0.450682    32A     -0.424647    33A     -0.411355
      34A     -0.373762    35A     -0.308067

  @DF-RHF Final Energy:  -464.67449678023604

   => Energetics <=

    Nuclear Repulsion Energy =            501.2899043243481856
    One-Electron Energy =               -1625.4834090814563297
    Two-Electron Energy =                 659.5190079768722171
    Total Energy =                       -464.6744967802360406
  Basis Set: (AUG-CC-PVTZ AUX)
    Blend: AUG-CC-PVTZ-RI
    Molecular point group: c1

    Geometry (in Angstrom), charge = 0, multiplicity = 1:

       Center              X                  Y                   Z               Mass
    ------------   -----------------  -----------------  -----------------  -----------------
         N            1.951567723250     0.510487014199     0.000005029923    14.003074004430
         C            1.228397723250    -0.620863985801    -0.000002970077    12.000000000000
         C           -0.178755276750    -0.530799985801    -0.000010970077    12.000000000000
         C           -0.710186276750     0.761963014199     0.000000029923    12.000000000000
         N           -0.027791276750     1.919668014199     0.000005029923    14.003074004430
         C            1.291294723250     1.690919014199     0.000012029923    12.000000000000
         N           -1.164995276750    -1.497511985801    -0.000016970077    14.003074004430
         C           -2.285372276750    -0.787924985801     0.000044029923    12.000000000000
         N           -2.074561276750     0.567737014199    -0.000022970077    14.003074004430
         N            1.866622723250    -1.813665985801    -0.000005970077    14.003074004430
         H            1.985249523250     2.655137714199     0.000001129923     1.007825032230
         H           -3.282989276750    -1.209153985801     0.000068029923     1.007825032230
         H           -2.775100276750     1.299827014199    -0.000083970077     1.007825032230
         H            2.875755723250    -1.831622985801     0.000009029923     1.007825032230
         H            1.337948723250    -2.672975985801     0.000002029923     1.007825032230

  Basis Set: AUG-CC-PVTZ
    Blend: AUG-CC-PVTZ
  Basis Set: (AUG-CC-PVTZ AUX)
    Blend: AUG-CC-PVTZ-JKFIT
	 Reference Energy          =    -464.6744967802360406 [Eh]
	 Singles Energy            =      -0.0000000000000000 [Eh]
	 Same-Spin Energy          =      -0.5066085749429547 [Eh]
	 Opposite-Spin Energy      =      -1.4771711389880102 [Eh]
	 Correlation Energy        =      -1.9837797139309650 [Eh]
	 Total Energy              =    -466.6582764941670121 [Eh]

	 ================> DF-SCS-MP2 Energies <==================
	-----------------------------------------------------------
	 SCS Same-Spin Scale       =       0.3333333333333333 [-]
	 SCS Opposite-Spin Scale   =       1.2000000000000000 [-]
	 SCS Same-Spin Energy      =      -0.1688695249809849 [Eh]
	 SCS Opposite-Spin Energy  =      -1.7726053667856123 [Eh]
	 SCS Correlation Energy    =      -1.9414748917665972 [Eh]
	 SCS Total Energy          =    -466.6159716720026154 [Eh]
	-----------------------------------------------------------

  Dipole Moment: [D]
     X:    -2.2800      Y:    -1.2266      Z:    -0.0000     Total:     2.5890

*** Psi4 exiting successfully. Buy a developer a beer!
