                               Psi4 1.4a3.dev225

  ==> Input File <==

--------------------------------------------------------------------------
#psi4
#
memory 32 gb

molecule  {
0 1
  N        1.9483950     0.5259860     0.0099940
  C        1.2281250    -0.6055780    -0.0011110
  C       -0.1777080    -0.5183570    -0.0133480
  C       -0.7121930     0.7746180    -0.0067610
  N       -0.0315150     1.9321470    -0.0030770
  C        1.2882650     1.7066530     0.0061850
  N       -1.1633520    -1.4857590     0.0015620
  C       -2.2839740    -0.7772230     0.0077650
  N       -2.0759200     0.5789190     0.0016180
  N        1.8765300    -1.8041700    -0.0655800
  H        1.8932639     2.5498722     0.0142962
  H       -3.2809510    -1.1999800     0.0170960
  H       -2.7777110     1.3098630     0.0041890
  H        2.8553720    -1.7872280     0.1925460
  H        1.3468110    -2.6236890     0.2034770
units angstrom
no_reorient  #important for SAPT in psi4, default
symmetry c1  #important for SAPT in psi4, default
}

set PROPERTIES_ORIGIN ["COM"]
properties('MP2/aug-cc-pvtz', properties = ['dipole'])
--------------------------------------------------------------------------

    Molecular point group: c1
  Charge       = 0
  Multiplicity = 1
  Basis Set: AUG-CC-PVTZ
    Blend: AUG-CC-PVTZ
  Basis Set: (AUG-CC-PVTZ AUX)
    Blend: AUG-CC-PVTZ-JKFIT

    Orbital Energies [Eh]
    ---------------------

    Doubly Occupied:

       1A    -15.636045     2A    -15.583956     3A    -15.572723
       4A    -15.562230     5A    -15.553890     6A    -11.337733
       7A    -11.328441     8A    -11.319997     9A    -11.308199
      10A    -11.255005    11A     -1.367925    12A     -1.298275
      13A     -1.245516    14A     -1.186731    15A     -1.152358
      16A     -1.034483    17A     -0.896275    18A     -0.879958
      19A     -0.847597    20A     -0.777175    21A     -0.736253
      22A     -0.700005    23A     -0.674226    24A     -0.640273
      25A     -0.632198    26A     -0.611576    27A     -0.596242
      28A     -0.557501    29A     -0.500226    30A     -0.498268
      31A     -0.455052    32A     -0.427446    33A     -0.411751
      34A     -0.375021    35A     -0.311170

  @DF-RHF Final Energy:  -464.68097415397438

   => Energetics <=

    Nuclear Repulsion Energy =            501.9620725824951819
    One-Electron Energy =               -1626.7426534357475703
    Two-Electron Energy =                 660.0996066992779561
    Total Energy =                       -464.6809741539743754
  Basis Set: (AUG-CC-PVTZ AUX)
    Blend: AUG-CC-PVTZ-RI
    Molecular point group: c1

    Geometry (in Angstrom), charge = 0, multiplicity = 1:

       Center              X                  Y                   Z               Mass
    ------------   -----------------  -----------------  -----------------  -----------------
         N            1.949084438987     0.513728459403     0.013171910055    14.003074004430
         C            1.228814438987    -0.617835540597     0.002066910055    12.000000000000
         C           -0.177018561013    -0.530614540597    -0.010170089945    12.000000000000
         C           -0.711503561013     0.762360459403    -0.003583089945    12.000000000000
         N           -0.030825561013     1.919889459403     0.000100910055    14.003074004430
         C            1.288954438987     1.694395459403     0.009362910055    12.000000000000
         N           -1.162662561013    -1.498016540597     0.004739910055    14.003074004430
         C           -2.283284561013    -0.789480540597     0.010942910055    12.000000000000
         N           -2.075230561013     0.566661459403     0.004795910055    14.003074004430
         N            1.877219438987    -1.816427540597    -0.062402089945    14.003074004430
         H            1.893953338987     2.537614659403     0.017474110055     1.007825032230
         H           -3.280261561013    -1.212237540597     0.020273910055     1.007825032230
         H           -2.777021561013     1.297605459403     0.007366910055     1.007825032230
         H            2.856061438987    -1.799485540597     0.195723910055     1.007825032230
         H            1.347500438987    -2.635946540597     0.206654910055     1.007825032230

  Basis Set: AUG-CC-PVTZ
    Blend: AUG-CC-PVTZ
  Basis Set: (AUG-CC-PVTZ AUX)
    Blend: AUG-CC-PVTZ-JKFIT
	 Reference Energy          =    -464.6809741539743754 [Eh]
	 Singles Energy            =      -0.0000000000000000 [Eh]
	 Same-Spin Energy          =      -0.5062323252594054 [Eh]
	 Opposite-Spin Energy      =      -1.4761772924468266 [Eh]
	 Correlation Energy        =      -1.9824096177062320 [Eh]
	 Total Energy              =    -466.6633837716806283 [Eh]

	 ================> DF-SCS-MP2 Energies <==================
	-----------------------------------------------------------
	 SCS Same-Spin Scale       =       0.3333333333333333 [-]
	 SCS Opposite-Spin Scale   =       1.2000000000000000 [-]
	 SCS Same-Spin Energy      =      -0.1687441084198018 [Eh]
	 SCS Opposite-Spin Energy  =      -1.7714127509361919 [Eh]
	 SCS Correlation Energy    =      -1.9401568593559937 [Eh]
	 SCS Total Energy          =    -466.6211310133303414 [Eh]
	-----------------------------------------------------------

  Dipole Moment: [D]
     X:    -2.4571      Y:    -0.8492      Z:     0.7201     Total:     2.6977

*** Psi4 exiting successfully. Buy a developer a beer!
