                               Psi4 1.3.2 release

  ==> Input File <==

--------------------------------------------------------------------------
#psi4
#
memory 32 gb

molecule  {
0 1
  N        1.9514160     0.5241040     0.0000050
  C        1.2282460    -0.6072470    -0.0000030
  C       -0.1621858    -0.5345425    -0.0000122
  C       -0.7103380     0.7755800     0.0000000
  N       -0.0279430     1.9332850     0.0000050
  C        1.2911430     1.7045360     0.0000120
  N       -1.1651470    -1.4838950    -0.0000170
  C       -2.2855240    -0.7743080     0.0000440
  N       -2.0747130     0.5813540    -0.0000230
  N        1.8664710    -1.8000490    -0.0000060
  H        1.9266830     2.5875900     0.0000020
  H       -3.2831410    -1.1955370     0.0000680
  H       -2.7752520     1.3134440    -0.0000840
  H        2.8756040    -1.8180060     0.0000090
  H        1.3377970    -2.6593590     0.0000020
units angstrom
no_reorient  #important for SAPT in psi4, default
symmetry c1  #important for SAPT in psi4, default
}

set PROPERTIES_ORIGIN ["COM"]
properties('MP2/aug-cc-pvtz', properties = ['dipole'])
--------------------------------------------------------------------------

    Molecular point group: c1
  Charge       = 0
  Multiplicity = 1
  Basis Set: AUG-CC-PVTZ
    Blend: AUG-CC-PVTZ
  Basis Set: (AUG-CC-PVTZ AUX)
    Blend: AUG-CC-PVTZ-JKFIT

    Orbital Energies [Eh]
    ---------------------

    Doubly Occupied:

       1A    -15.635993     2A    -15.583393     3A    -15.572175
       4A    -15.560218     5A    -15.551955     6A    -11.336074
       7A    -11.327416     8A    -11.321983     9A    -11.312641
      10A    -11.253610    11A     -1.365200    12A     -1.297422
      13A     -1.245277    14A     -1.185644    15A     -1.151133
      16A     -1.031655    17A     -0.895506    18A     -0.877789
      19A     -0.844816    20A     -0.778025    21A     -0.738742
      22A     -0.698566    23A     -0.676502    24A     -0.637107
      25A     -0.632110    26A     -0.614268    27A     -0.590310
      28A     -0.558266    29A     -0.497338    30A     -0.497123
      31A     -0.451101    32A     -0.424721    33A     -0.410465
      34A     -0.372285    35A     -0.306987

  @DF-RHF Final Energy:  -464.68071063401612

   => Energetics <=

    Nuclear Repulsion Energy =            501.6500031370633224
    One-Electron Energy =               -1626.1937949991070127
    Two-Electron Energy =                 659.8630812280275677
    Total Energy =                       -464.6807106340161226
  Basis Set: (AUG-CC-PVTZ AUX)
    Blend: AUG-CC-PVTZ-RI
    Molecular point group: c1

    Geometry (in Angstrom), charge = 0, multiplicity = 1:

       Center              X                  Y                   Z               Mass
    ------------   -----------------  -----------------  -----------------  -----------------
         N            1.950517906270     0.512635138303     0.000005129830    14.003074004430
         C            1.227347906270    -0.618715861697    -0.000002870170    12.000000000000
         C           -0.163083893730    -0.546011361697    -0.000012070170    12.000000000000
         C           -0.711236093730     0.764111138303     0.000000129830    12.000000000000
         N           -0.028841093730     1.921816138303     0.000005129830    14.003074004430
         C            1.290244906270     1.693067138303     0.000012129830    12.000000000000
         N           -1.166045093730    -1.495363861697    -0.000016870170    14.003074004430
         C           -2.286422093730    -0.785776861697     0.000044129830    12.000000000000
         N           -2.075611093730     0.569885138303    -0.000022870170    14.003074004430
         N            1.865572906270    -1.811517861697    -0.000005870170    14.003074004430
         H            1.925784906270     2.576121138303     0.000002129830     1.007825032230
         H           -3.284039093730    -1.207005861697     0.000068129830     1.007825032230
         H           -2.776150093730     1.301975138303    -0.000083870170     1.007825032230
         H            2.874705906270    -1.829474861697     0.000009129830     1.007825032230
         H            1.336898906270    -2.670827861697     0.000002129830     1.007825032230

  Basis Set: AUG-CC-PVTZ
    Blend: AUG-CC-PVTZ
  Basis Set: (AUG-CC-PVTZ AUX)
    Blend: AUG-CC-PVTZ-JKFIT
	 Reference Energy          =    -464.6807106340161226 [Eh]
	 Singles Energy            =      -0.0000000000000000 [Eh]
	 Same-Spin Energy          =      -0.5065708253869409 [Eh]
	 Opposite-Spin Energy      =      -1.4765408020646462 [Eh]
	 Correlation Energy        =      -1.9831116274515872 [Eh]
	 Total Energy              =    -466.6638222614677147 [Eh]

	 ================> DF-SCS-MP2 Energies <==================
	-----------------------------------------------------------
	 SCS Same-Spin Scale       =       0.3333333333333333 [-]
	 SCS Opposite-Spin Scale   =       1.2000000000000000 [-]
	 SCS Same-Spin Energy      =      -0.1688569417956469 [Eh]
	 SCS Opposite-Spin Energy  =      -1.7718489624775755 [Eh]
	 SCS Correlation Energy    =      -1.9407059042732224 [Eh]
	 SCS Total Energy          =    -466.6214165382893384 [Eh]
	-----------------------------------------------------------

  Dipole Moment: [D]
     X:    -2.3077      Y:    -1.1381      Z:    -0.0000     Total:     2.5731

*** Psi4 exiting successfully. Buy a developer a beer!
