                               Psi4 1.3.2 release

  ==> Input File <==

--------------------------------------------------------------------------
#psi4
#
memory 32 gb

molecule  {
0 1
  N        1.9514160     0.5241040     0.0000050
  C        1.2282460    -0.6072470    -0.0000030
  C       -0.1789070    -0.5171830    -0.0000110
  C       -0.7103380     0.7755800     0.0000000
  N       -0.0279430     1.9332850     0.0000050
  C        1.2911430     1.7045360     0.0000120
  N       -1.1410653    -1.4443621    -0.0000204
  C       -2.2855240    -0.7743080     0.0000440
  N       -2.0747130     0.5813540    -0.0000230
  N        1.8664710    -1.8000490    -0.0000060
  H        1.9266830     2.5875900     0.0000020
  H       -3.2831410    -1.1955370     0.0000680
  H       -2.7752520     1.3134440    -0.0000840
  H        2.8756040    -1.8180060     0.0000090
  H        1.3377970    -2.6593590     0.0000020
units angstrom
no_reorient  #important for SAPT in psi4, default
symmetry c1  #important for SAPT in psi4, default
}

set PROPERTIES_ORIGIN ["COM"]
properties('MP2/aug-cc-pvtz', properties = ['dipole'])
--------------------------------------------------------------------------

    Molecular point group: c1
  Charge       = 0
  Multiplicity = 1
  Basis Set: AUG-CC-PVTZ
    Blend: AUG-CC-PVTZ
  Basis Set: (AUG-CC-PVTZ AUX)
    Blend: AUG-CC-PVTZ-JKFIT

    Orbital Energies [Eh]
    ---------------------

    Doubly Occupied:

       1A    -15.634413     2A    -15.585927     3A    -15.566503
       4A    -15.558227     5A    -15.551214     6A    -11.338499
       7A    -11.324840     8A    -11.315154     9A    -11.311156
      10A    -11.249797    11A     -1.370523    12A     -1.297138
      13A     -1.245987    14A     -1.189909    15A     -1.150980
      16A     -1.031124    17A     -0.895697    18A     -0.876652
      19A     -0.846957    20A     -0.778107    21A     -0.739767
      22A     -0.699146    23A     -0.678812    24A     -0.639587
      25A     -0.635786    26A     -0.615990    27A     -0.590528
      28A     -0.557567    29A     -0.497225    30A     -0.493513
      31A     -0.452742    32A     -0.427595    33A     -0.407728
      34A     -0.372806    35A     -0.303417

  @DF-RHF Final Energy:  -464.68076017751503

   => Energetics <=

    Nuclear Repulsion Energy =            503.0919407892960180
    One-Electron Energy =               -1629.0833785844201884
    Two-Electron Energy =                 661.3106776176090307
    Total Energy =                       -464.6807601775150260
  Basis Set: (AUG-CC-PVTZ AUX)
    Blend: AUG-CC-PVTZ-RI
    Molecular point group: c1

    Geometry (in Angstrom), charge = 0, multiplicity = 1:

       Center              X                  Y                   Z               Mass
    ------------   -----------------  -----------------  -----------------  -----------------
         N            1.949506733505     0.506993740560     0.000005375734    14.003074004430
         C            1.226336733505    -0.624357259440    -0.000002624266    12.000000000000
         C           -0.180816266495    -0.534293259440    -0.000010624266    12.000000000000
         C           -0.712247266495     0.758469740560     0.000000375734    12.000000000000
         N           -0.029852266495     1.916174740560     0.000005375734    14.003074004430
         C            1.289233733505     1.687425740560     0.000012375734    12.000000000000
         N           -1.142974566495    -1.461472359440    -0.000020024266    14.003074004430
         C           -2.287433266495    -0.791418259440     0.000044375734    12.000000000000
         N           -2.076622266495     0.564243740560    -0.000022624266    14.003074004430
         N            1.864561733505    -1.817159259440    -0.000005624266    14.003074004430
         H            1.924773733505     2.570479740560     0.000002375734     1.007825032230
         H           -3.285050266495    -1.212647259440     0.000068375734     1.007825032230
         H           -2.777161266495     1.296333740560    -0.000083624266     1.007825032230
         H            2.873694733505    -1.835116259440     0.000009375734     1.007825032230
         H            1.335887733505    -2.676469259440     0.000002375734     1.007825032230

  Basis Set: AUG-CC-PVTZ
    Blend: AUG-CC-PVTZ
  Basis Set: (AUG-CC-PVTZ AUX)
    Blend: AUG-CC-PVTZ-JKFIT
	 Reference Energy          =    -464.6807601775150260 [Eh]
	 Singles Energy            =      -0.0000000000000000 [Eh]
	 Same-Spin Energy          =      -0.5068817507600291 [Eh]
	 Opposite-Spin Energy      =      -1.4761097593876848 [Eh]
	 Correlation Energy        =      -1.9829915101477140 [Eh]
	 Total Energy              =    -466.6637516876627387 [Eh]

	 ================> DF-SCS-MP2 Energies <==================
	-----------------------------------------------------------
	 SCS Same-Spin Scale       =       0.3333333333333333 [-]
	 SCS Opposite-Spin Scale   =       1.2000000000000000 [-]
	 SCS Same-Spin Energy      =      -0.1689605835866763 [Eh]
	 SCS Opposite-Spin Energy  =      -1.7713317112652218 [Eh]
	 SCS Correlation Energy    =      -1.9402922948518981 [Eh]
	 SCS Total Energy          =    -466.6210524723668982 [Eh]
	-----------------------------------------------------------

  Dipole Moment: [D]
     X:    -2.3285      Y:    -1.2670      Z:    -0.0000     Total:     2.6508

*** Psi4 exiting successfully. Buy a developer a beer!
