                               Psi4 1.3.2 release

  ==> Input File <==

--------------------------------------------------------------------------
#psi4
#
memory 32 gb

molecule  {
0 1
  N        1.9514160     0.5241040     0.0000050
  C        1.1892030    -0.5813195    -0.0000029
  C       -0.1789070    -0.5171830    -0.0000110
  C       -0.7103380     0.7755800     0.0000000
  N       -0.0279430     1.9332850     0.0000050
  C        1.2911430     1.7045360     0.0000120
  N       -1.1651470    -1.4838950    -0.0000170
  C       -2.2855240    -0.7743080     0.0000440
  N       -2.0747130     0.5813540    -0.0000230
  N        1.8664710    -1.8000490    -0.0000060
  H        1.9266830     2.5875900     0.0000020
  H       -3.2831410    -1.1955370     0.0000680
  H       -2.7752520     1.3134440    -0.0000840
  H        2.8756040    -1.8180060     0.0000090
  H        1.3377970    -2.6593590     0.0000020
units angstrom
no_reorient  #important for SAPT in psi4, default
symmetry c1  #important for SAPT in psi4, default
}

set PROPERTIES_ORIGIN ["COM"]
properties('MP2/aug-cc-pvtz', properties = ['dipole'])
--------------------------------------------------------------------------

    Molecular point group: c1
  Charge       = 0
  Multiplicity = 1
  Basis Set: AUG-CC-PVTZ
    Blend: AUG-CC-PVTZ
  Basis Set: (AUG-CC-PVTZ AUX)
    Blend: AUG-CC-PVTZ-JKFIT

    Orbital Energies [Eh]
    ---------------------

    Doubly Occupied:

       1A    -15.637475     2A    -15.576896     3A    -15.574286
       4A    -15.562862     5A    -15.554846     6A    -11.335396
       7A    -11.331082     8A    -11.323058     9A    -11.313472
      10A    -11.252463    11A     -1.370184    12A     -1.297064
      13A     -1.237870    14A     -1.184218    15A     -1.149385
      16A     -1.040523    17A     -0.898228    18A     -0.879388
      19A     -0.849701    20A     -0.775129    21A     -0.731897
      22A     -0.698767    23A     -0.672401    24A     -0.641290
      25A     -0.626259    26A     -0.618530    27A     -0.590415
      28A     -0.555059    29A     -0.500398    30A     -0.494383
      31A     -0.457216    32A     -0.423595    33A     -0.414987
      34A     -0.374041    35A     -0.313702

  @DF-RHF Final Energy:  -464.67882102285881

   => Energetics <=

    Nuclear Repulsion Energy =            502.2828749393987096
    One-Electron Energy =               -1627.4104610051053896
    Two-Electron Energy =                 660.4487650428478673
    Total Energy =                       -464.6788210228588696
  Basis Set: (AUG-CC-PVTZ AUX)
    Blend: AUG-CC-PVTZ-RI
    Molecular point group: c1

    Geometry (in Angstrom), charge = 0, multiplicity = 1:

       Center              X                  Y                   Z               Mass
    ------------   -----------------  -----------------  -----------------  -----------------
         N            1.955472723946     0.508788957550     0.000005014321    14.003074004430
         C            1.193259723946    -0.596634542450    -0.000002885679    12.000000000000
         C           -0.174850276054    -0.532498042450    -0.000010985679    12.000000000000
         C           -0.706281276054     0.760264957550     0.000000014321    12.000000000000
         N           -0.023886276054     1.917969957550     0.000005014321    14.003074004430
         C            1.295199723946     1.689220957550     0.000012014321    12.000000000000
         N           -1.161090276054    -1.499210042450    -0.000016985679    14.003074004430
         C           -2.281467276054    -0.789623042450     0.000044014321    12.000000000000
         N           -2.070656276054     0.566038957550    -0.000022985679    14.003074004430
         N            1.870527723946    -1.815364042450    -0.000005985679    14.003074004430
         H            1.930739723946     2.572274957550     0.000002014321     1.007825032230
         H           -3.279084276054    -1.210852042450     0.000068014321     1.007825032230
         H           -2.771195276054     1.298128957550    -0.000083985679     1.007825032230
         H            2.879660723946    -1.833321042450     0.000009014321     1.007825032230
         H            1.341853723946    -2.674674042450     0.000002014321     1.007825032230

  Basis Set: AUG-CC-PVTZ
    Blend: AUG-CC-PVTZ
  Basis Set: (AUG-CC-PVTZ AUX)
    Blend: AUG-CC-PVTZ-JKFIT
	 Reference Energy          =    -464.6788210228588127 [Eh]
	 Singles Energy            =      -0.0000000000000000 [Eh]
	 Same-Spin Energy          =      -0.5062915697980150 [Eh]
	 Opposite-Spin Energy      =      -1.4765294759387224 [Eh]
	 Correlation Energy        =      -1.9828210457367375 [Eh]
	 Total Energy              =    -466.6616420685955404 [Eh]

	 ================> DF-SCS-MP2 Energies <==================
	-----------------------------------------------------------
	 SCS Same-Spin Scale       =       0.3333333333333333 [-]
	 SCS Opposite-Spin Scale   =       1.2000000000000000 [-]
	 SCS Same-Spin Energy      =      -0.1687638565993383 [Eh]
	 SCS Opposite-Spin Energy  =      -1.7718353711264669 [Eh]
	 SCS Correlation Energy    =      -1.9405992277258053 [Eh]
	 SCS Total Energy          =    -466.6194202505845965 [Eh]
	-----------------------------------------------------------

  Dipole Moment: [D]
     X:    -2.5394      Y:    -0.8561      Z:    -0.0000     Total:     2.6798

*** Psi4 exiting successfully. Buy a developer a beer!
