                               Psi4 1.3.2 release

  ==> Input File <==

--------------------------------------------------------------------------
#psi4
#
memory 32 gb

molecule  {
0 1
  N        1.9514160     0.5241040     0.0000050
  C        1.2282460    -0.6072470    -0.0000030
  C       -0.1138750    -0.5883345    -0.0000157
  C       -0.7103380     0.7755800     0.0000000
  N       -0.0279430     1.9332850     0.0000050
  C        1.2911430     1.7045360     0.0000120
  N       -1.1651470    -1.4838950    -0.0000170
  C       -2.2855240    -0.7743080     0.0000440
  N       -2.0747130     0.5813540    -0.0000230
  N        1.8664710    -1.8000490    -0.0000060
  H        1.9266830     2.5875900     0.0000020
  H       -3.2831410    -1.1955370     0.0000680
  H       -2.7752520     1.3134440    -0.0000840
  H        2.8756040    -1.8180060     0.0000090
  H        1.3377970    -2.6593590     0.0000020
units angstrom
no_reorient  #important for SAPT in psi4, default
symmetry c1  #important for SAPT in psi4, default
}

set PROPERTIES_ORIGIN ["COM"]
properties('MP2/aug-cc-pvtz', properties = ['dipole'])
--------------------------------------------------------------------------

    Molecular point group: c1
  Charge       = 0
  Multiplicity = 1
  Basis Set: AUG-CC-PVTZ
    Blend: AUG-CC-PVTZ
  Basis Set: (AUG-CC-PVTZ AUX)
    Blend: AUG-CC-PVTZ-JKFIT

    Orbital Energies [Eh]
    ---------------------

    Doubly Occupied:

       1A    -15.639891     2A    -15.576363     3A    -15.573788
       4A    -15.562423     5A    -15.552498     6A    -11.332254
       7A    -11.330159     8A    -11.327347     9A    -11.313595
      10A    -11.256074    11A     -1.362664    12A     -1.297821
      13A     -1.245609    14A     -1.185659    15A     -1.151021
      16A     -1.031782    17A     -0.900146    18A     -0.882560
      19A     -0.840142    20A     -0.776773    21A     -0.740558
      22A     -0.696015    23A     -0.679008    24A     -0.635856
      25A     -0.632123    26A     -0.614068    27A     -0.591280
      28A     -0.559277    29A     -0.499293    30A     -0.497675
      31A     -0.446265    32A     -0.425719    33A     -0.408181
      34A     -0.370250    35A     -0.305663

  @DF-RHF Final Energy:  -464.66751286959322

   => Energetics <=

    Nuclear Repulsion Energy =            501.1966825658484481
    One-Electron Energy =               -1625.2487884815282086
    Two-Electron Energy =                 659.3845930460864793
    Total Energy =                       -464.6675128695932244
  Basis Set: (AUG-CC-PVTZ AUX)
    Blend: AUG-CC-PVTZ-RI
    Molecular point group: c1

    Geometry (in Angstrom), charge = 0, multiplicity = 1:

       Center              X                  Y                   Z               Mass
    ------------   -----------------  -----------------  -----------------  -----------------
         N            1.946225345706     0.517414720050     0.000005440816    14.003074004430
         C            1.223055345706    -0.613936279950    -0.000002559184    12.000000000000
         C           -0.119065654294    -0.595023779950    -0.000015259184    12.000000000000
         C           -0.715528654294     0.768890720050     0.000000440816    12.000000000000
         N           -0.033133654294     1.926595720050     0.000005440816    14.003074004430
         C            1.285952345706     1.697846720050     0.000012440816    12.000000000000
         N           -1.170337654294    -1.490584279950    -0.000016559184    14.003074004430
         C           -2.290714654294    -0.780997279950     0.000044440816    12.000000000000
         N           -2.079903654294     0.574664720050    -0.000022559184    14.003074004430
         N            1.861280345706    -1.806738279950    -0.000005559184    14.003074004430
         H            1.921492345706     2.580900720050     0.000002440816     1.007825032230
         H           -3.288331654294    -1.202226279950     0.000068440816     1.007825032230
         H           -2.780442654294     1.306754720050    -0.000083559184     1.007825032230
         H            2.870413345706    -1.824695279950     0.000009440816     1.007825032230
         H            1.332606345706    -2.666048279950     0.000002440816     1.007825032230

  Basis Set: AUG-CC-PVTZ
    Blend: AUG-CC-PVTZ
  Basis Set: (AUG-CC-PVTZ AUX)
    Blend: AUG-CC-PVTZ-JKFIT
	 Reference Energy          =    -464.6675128695932244 [Eh]
	 Singles Energy            =      -0.0000000000000000 [Eh]
	 Same-Spin Energy          =      -0.5073303177692411 [Eh]
	 Opposite-Spin Energy      =      -1.4776457258020250 [Eh]
	 Correlation Energy        =      -1.9849760435712662 [Eh]
	 Total Energy              =    -466.6524889131645182 [Eh]

	 ================> DF-SCS-MP2 Energies <==================
	-----------------------------------------------------------
	 SCS Same-Spin Scale       =       0.3333333333333333 [-]
	 SCS Opposite-Spin Scale   =       1.2000000000000000 [-]
	 SCS Same-Spin Energy      =      -0.1691101059230803 [Eh]
	 SCS Opposite-Spin Energy  =      -1.7731748709624300 [Eh]
	 SCS Correlation Energy    =      -1.9422849768855104 [Eh]
	 SCS Total Energy          =    -466.6097978464787275 [Eh]
	-----------------------------------------------------------

  Dipole Moment: [D]
     X:    -2.4564      Y:    -0.9995      Z:    -0.0000     Total:     2.6519

*** Psi4 exiting successfully. Buy a developer a beer!
