                               Psi4 1.3.2 release

  ==> Input File <==

--------------------------------------------------------------------------
#psi4
#
memory 32 gb

molecule  {
0 1
 Br        2.8426960    -0.9006560     0.0010230
 Br       -2.8426960    -0.9006560     0.0010230
  C        0.0000000     2.1518200    -0.0164640
  C       -1.2077220     1.4432500    -0.0102500
  C        1.2077220     1.4432500    -0.0102500
  C        0.0000000     3.6581740     0.0136870
  C        1.1904140     0.0494840    -0.0007470
  C       -1.1904140     0.0494850    -0.0007470
  C        0.0002919    -0.6752110     0.1551669
  H       -2.1574180     1.9720780    -0.0184260
  H        2.1574190     1.9720770    -0.0184250
  H        0.0000100     4.0273730     1.0446560
  H        0.8857670     4.0597820    -0.4855720
  H       -0.8857760     4.0597820    -0.4855540
  H       -0.0000010    -1.7611180     0.0093060
units angstrom
no_reorient  #important for SAPT in psi4, default
symmetry c1  #important for SAPT in psi4, default
}

set PROPERTIES_ORIGIN ["COM"]
properties('MP2/aug-cc-pvtz', properties = ['dipole'])
--------------------------------------------------------------------------

    Molecular point group: c1
  Charge       = 0
  Multiplicity = 1
  Basis Set: AUG-CC-PVTZ
    Blend: AUG-CC-PVTZ
  Basis Set: (AUG-CC-PVTZ AUX)
    Blend: AUG-CC-PVTZ-JKFIT

    Orbital Energies [Eh]
    ---------------------

    Doubly Occupied:

       1A   -490.032052     2A   -490.032030     3A    -65.171766
       4A    -65.171745     5A    -58.527089     6A    -58.527068
       7A    -58.525685     8A    -58.525663     9A    -58.525652
      10A    -58.525630    11A    -11.316772    12A    -11.316723
      13A    -11.273642    14A    -11.266441    15A    -11.258605
      16A    -11.258548    17A    -11.243385    18A     -9.844473
      19A     -9.844452    20A     -7.456105    21A     -7.456084
      22A     -7.449244    23A     -7.449223    24A     -7.449179
      25A     -7.449158    26A     -3.199897    27A     -3.199876
      28A     -3.196338    29A     -3.196317    30A     -3.196102
      31A     -3.196081    32A     -3.187339    33A     -3.187331
      34A     -3.187319    35A     -3.187311    36A     -1.194205
      37A     -1.094970    38A     -1.088116    39A     -1.003896
      40A     -0.976965    41A     -0.958870    42A     -0.814326
      43A     -0.813179    44A     -0.706645    45A     -0.675885
      46A     -0.603513    47A     -0.597692    48A     -0.587543
      49A     -0.583083    50A     -0.560285    51A     -0.539886
      52A     -0.510196    53A     -0.492027    54A     -0.466009
      55A     -0.426020    56A     -0.423262    57A     -0.419528
      58A     -0.345892    59A     -0.339302

  @DF-RHF Final Energy: -5413.57628030731667

   => Energetics <=

    Nuclear Repulsion Energy =            881.2582318532939780
    One-Electron Energy =               -9283.5657805769969855
    Two-Electron Energy =                2988.7312684163871381
    Total Energy =                      -5413.5762803073166651
  Basis Set: (AUG-CC-PVTZ AUX)
    Blend: AUG-CC-PVTZ-RI
    Molecular point group: c1

    Geometry (in Angstrom), charge = 0, multiplicity = 1:

       Center              X                  Y                   Z               Mass
    ------------   -----------------  -----------------  -----------------  -----------------
         BR           2.842681865110    -0.778536525660    -0.006127785172    78.918337600000
         BR          -2.842710134890    -0.778536525660    -0.006127785172    78.918337600000
         C           -0.000014134890     2.273939474340    -0.023614785172    12.000000000000
         C           -1.207736134890     1.565369474340    -0.017400785172    12.000000000000
         C            1.207707865110     1.565369474340    -0.017400785172    12.000000000000
         C           -0.000014134890     3.780293474340     0.006536214828    12.000000000000
         C            1.190399865110     0.171603474340    -0.007897785172    12.000000000000
         C           -1.190428134890     0.171604474340    -0.007897785172    12.000000000000
         C            0.000277765110    -0.553091525660     0.148016114828    12.000000000000
         H           -2.157432134890     2.094197474340    -0.025576785172     1.007825032230
         H            2.157404865110     2.094196474340    -0.025575785172     1.007825032230
         H           -0.000004134890     4.149492474340     1.037505214828     1.007825032230
         H            0.885752865110     4.181901474340    -0.492722785172     1.007825032230
         H           -0.885790134890     4.181901474340    -0.492704785172     1.007825032230
         H           -0.000015134890    -1.638998525660     0.002155214828     1.007825032230

  Basis Set: AUG-CC-PVTZ
    Blend: AUG-CC-PVTZ
  Basis Set: (AUG-CC-PVTZ AUX)
    Blend: AUG-CC-PVTZ-JKFIT
	 Reference Energy          =   -5413.5762803073166651 [Eh]
	 Singles Energy            =      -0.0000000000000000 [Eh]
	 Same-Spin Energy          =      -0.4883802203555653 [Eh]
	 Opposite-Spin Energy      =      -1.3651582944708505 [Eh]
	 Correlation Energy        =      -1.8535385148264156 [Eh]
	 Total Energy              =   -5415.4298188221428063 [Eh]

	 ================> DF-SCS-MP2 Energies <==================
	-----------------------------------------------------------
	 SCS Same-Spin Scale       =       0.3333333333333333 [-]
	 SCS Opposite-Spin Scale   =       1.2000000000000000 [-]
	 SCS Same-Spin Energy      =      -0.1627934067851884 [Eh]
	 SCS Opposite-Spin Energy  =      -1.6381899533650206 [Eh]
	 SCS Correlation Energy    =      -1.8009833601502090 [Eh]
	 SCS Total Energy          =   -5415.3772636674666501 [Eh]
	-----------------------------------------------------------

  Dipole Moment: [D]
     X:    -0.0007      Y:     2.2273      Z:    -0.0027     Total:     2.2273

*** Psi4 exiting successfully. Buy a developer a beer!
