                               Psi4 1.3.2 release

  ==> Input File <==

--------------------------------------------------------------------------
#psi4
#
memory 32 gb

molecule  {
0 1
 Br        2.8426960    -0.9006560     0.0010230
 Br       -2.8426960    -0.9006560     0.0010230
  C        0.0000000     2.1518200    -0.0164640
  C       -1.2077220     1.4432500    -0.0102500
  C        1.2077220     1.4432500    -0.0102500
  C        0.0000000     3.6565530     0.1636782
  C        1.1904140     0.0494840    -0.0007470
  C       -1.1904140     0.0494850    -0.0007470
  C        0.0000000    -0.6761360     0.0051700
  H       -2.1574180     1.9720780    -0.0184260
  H        2.1574190     1.9720770    -0.0184250
  H        0.0000100     4.0273730     1.0446560
  H        0.8857670     4.0597820    -0.4855720
  H       -0.8857760     4.0597820    -0.4855540
  H       -0.0000010    -1.7611180     0.0093060
units angstrom
no_reorient  #important for SAPT in psi4, default
symmetry c1  #important for SAPT in psi4, default
}

set PROPERTIES_ORIGIN ["COM"]
properties('MP2/aug-cc-pvtz', properties = ['dipole'])
--------------------------------------------------------------------------

    Molecular point group: c1
  Charge       = 0
  Multiplicity = 1
  Basis Set: AUG-CC-PVTZ
    Blend: AUG-CC-PVTZ
  Basis Set: (AUG-CC-PVTZ AUX)
    Blend: AUG-CC-PVTZ-JKFIT

    Orbital Energies [Eh]
    ---------------------

    Doubly Occupied:

       1A   -490.032279     2A   -490.032279     3A    -65.171986
       4A    -65.171986     5A    -58.527312     6A    -58.527312
       7A    -58.525904     8A    -58.525904     9A    -58.525875
      10A    -58.525874    11A    -11.315184    12A    -11.315174
      13A    -11.273391    14A    -11.266179    15A    -11.259720
      16A    -11.259659    17A    -11.245074    18A     -9.844685
      19A     -9.844685    20A     -7.456322    21A     -7.456322
      22A     -7.449448    23A     -7.449448    24A     -7.449400
      25A     -7.449400    26A     -3.200114    27A     -3.200113
      28A     -3.196546    29A     -3.196545    30A     -3.196328
      31A     -3.196327    32A     -3.187550    33A     -3.187550
      34A     -3.187541    35A     -3.187541    36A     -1.195487
      37A     -1.095608    38A     -1.088169    39A     -1.004827
      40A     -0.977146    41A     -0.961698    42A     -0.816703
      43A     -0.816454    44A     -0.710417    45A     -0.675216
      46A     -0.638415    47A     -0.593683    48A     -0.589085
      49A     -0.583269    50A     -0.547371    51A     -0.524766
      52A     -0.509159    53A     -0.487270    54A     -0.467657
      55A     -0.427030    56A     -0.423606    57A     -0.420106
      58A     -0.347704    59A     -0.340015

  @DF-RHF Final Energy: -5413.55546074922859

   => Energetics <=

    Nuclear Repulsion Energy =            881.5283714352231073
    One-Electron Energy =               -9284.0120250057698286
    Two-Electron Energy =                2988.9281928213176798
    Total Energy =                      -5413.5554607492294963
  Basis Set: (AUG-CC-PVTZ AUX)
    Blend: AUG-CC-PVTZ-RI
    Molecular point group: c1

    Geometry (in Angstrom), charge = 0, multiplicity = 1:

       Center              X                  Y                   Z               Mass
    ------------   -----------------  -----------------  -----------------  -----------------
         BR           2.842695995934    -0.778413274276    -0.006127509236    78.918337600000
         BR          -2.842696004066    -0.778413274276    -0.006127509236    78.918337600000
         C           -0.000000004066     2.274062725724    -0.023614509236    12.000000000000
         C           -1.207722004066     1.565492725724    -0.017400509236    12.000000000000
         C            1.207721995934     1.565492725724    -0.017400509236    12.000000000000
         C           -0.000000004066     3.778795725724     0.156527690764    12.000000000000
         C            1.190413995934     0.171726725724    -0.007897509236    12.000000000000
         C           -1.190414004066     0.171727725724    -0.007897509236    12.000000000000
         C           -0.000000004066    -0.553893274276    -0.001980509236    12.000000000000
         H           -2.157418004066     2.094320725724    -0.025576509236     1.007825032230
         H            2.157418995934     2.094319725724    -0.025575509236     1.007825032230
         H            0.000009995934     4.149615725724     1.037505490764     1.007825032230
         H            0.885766995934     4.182024725724    -0.492722509236     1.007825032230
         H           -0.885776004066     4.182024725724    -0.492704509236     1.007825032230
         H           -0.000001004066    -1.638875274276     0.002155490764     1.007825032230

  Basis Set: AUG-CC-PVTZ
    Blend: AUG-CC-PVTZ
  Basis Set: (AUG-CC-PVTZ AUX)
    Blend: AUG-CC-PVTZ-JKFIT
	 Reference Energy          =   -5413.5554607492285868 [Eh]
	 Singles Energy            =      -0.0000000000000000 [Eh]
	 Same-Spin Energy          =      -0.4883691659801214 [Eh]
	 Opposite-Spin Energy      =      -1.3655100880750251 [Eh]
	 Correlation Energy        =      -1.8538792540551463 [Eh]
	 Total Energy              =   -5415.4093400032834325 [Eh]

	 ================> DF-SCS-MP2 Energies <==================
	-----------------------------------------------------------
	 SCS Same-Spin Scale       =       0.3333333333333333 [-]
	 SCS Opposite-Spin Scale   =       1.2000000000000000 [-]
	 SCS Same-Spin Energy      =      -0.1627897219933738 [Eh]
	 SCS Opposite-Spin Energy  =      -1.6386121056900300 [Eh]
	 SCS Correlation Energy    =      -1.8014018276834038 [Eh]
	 SCS Total Energy          =   -5415.3568625769121354 [Eh]
	-----------------------------------------------------------

  Dipole Moment: [D]
     X:     0.0000      Y:     2.0591      Z:     0.0804     Total:     2.0606

*** Psi4 exiting successfully. Buy a developer a beer!
