                               Psi4 1.3.2 release

  ==> Input File <==

--------------------------------------------------------------------------
#psi4
#
memory 32 gb

molecule  {
0 1
 Br        2.8426960    -0.9006560     0.0010230
 Br       -2.8426960    -0.9006560     0.0010230
  C        0.0000000     2.1518200    -0.0164640
  C       -1.2077220     1.4432500    -0.0102500
  C        1.2077220     1.4432500    -0.0102500
  C        0.0000000     3.6581740     0.0136870
  C        1.1904140     0.0494840    -0.0007470
  C       -1.1904140     0.0494850    -0.0007470
  C        0.0003892    -0.6749027     0.2051658
  H       -2.1574180     1.9720780    -0.0184260
  H        2.1574190     1.9720770    -0.0184250
  H        0.0000100     4.0273730     1.0446560
  H        0.8857670     4.0597820    -0.4855720
  H       -0.8857760     4.0597820    -0.4855540
  H       -0.0000010    -1.7611180     0.0093060
units angstrom
no_reorient  #important for SAPT in psi4, default
symmetry c1  #important for SAPT in psi4, default
}

set PROPERTIES_ORIGIN ["COM"]
properties('MP2/aug-cc-pvtz', properties = ['dipole'])
--------------------------------------------------------------------------

    Molecular point group: c1
  Charge       = 0
  Multiplicity = 1
  Basis Set: AUG-CC-PVTZ
    Blend: AUG-CC-PVTZ
  Basis Set: (AUG-CC-PVTZ AUX)
    Blend: AUG-CC-PVTZ-JKFIT

    Orbital Energies [Eh]
    ---------------------

    Doubly Occupied:

       1A   -490.032116     2A   -490.032087     3A    -65.171833
       4A    -65.171805     5A    -58.527155     6A    -58.527127
       7A    -58.525751     8A    -58.525723     9A    -58.525716
      10A    -58.525688    11A    -11.318127    12A    -11.318065
      13A    -11.274545    14A    -11.267676    15A    -11.258437
      16A    -11.258383    17A    -11.243763    18A     -9.844543
      19A     -9.844515    20A     -7.456173    21A     -7.456146
      22A     -7.449318    23A     -7.449291    24A     -7.449241
      25A     -7.449214    26A     -3.199965    27A     -3.199938
      28A     -3.196411    29A     -3.196384    30A     -3.196162
      31A     -3.196135    32A     -3.187409    33A     -3.187401
      34A     -3.187382    35A     -3.187374    36A     -1.193614
      37A     -1.094853    38A     -1.087886    39A     -1.003565
      40A     -0.977109    41A     -0.958520    42A     -0.813088
      43A     -0.812844    44A     -0.704992    45A     -0.674604
      46A     -0.603154    47A     -0.598044    48A     -0.586094
      49A     -0.583143    50A     -0.560466    51A     -0.538447
      52A     -0.509788    53A     -0.492526    54A     -0.465085
      55A     -0.426051    56A     -0.423281    57A     -0.419270
      58A     -0.346050    59A     -0.338976

  @DF-RHF Final Energy: -5413.57101365393919

   => Energetics <=

    Nuclear Repulsion Energy =            880.9958481104415569
    One-Electron Energy =               -9283.0368266381992726
    Two-Electron Energy =                2988.4699648738187534
    Total Energy =                      -5413.5710136539382802
  Basis Set: (AUG-CC-PVTZ AUX)
    Blend: AUG-CC-PVTZ-RI
    Molecular point group: c1

    Geometry (in Angstrom), charge = 0, multiplicity = 1:

       Center              X                  Y                   Z               Mass
    ------------   -----------------  -----------------  -----------------  -----------------
         BR           2.842677154835    -0.778551450405    -0.008548222581    78.918337600000
         BR          -2.842714845165    -0.778551450405    -0.008548222581    78.918337600000
         C           -0.000018845165     2.273924549595    -0.026035222581    12.000000000000
         C           -1.207740845165     1.565354549595    -0.019821222581    12.000000000000
         C            1.207703154835     1.565354549595    -0.019821222581    12.000000000000
         C           -0.000018845165     3.780278549595     0.004115777419    12.000000000000
         C            1.190395154835     0.171588549595    -0.010318222581    12.000000000000
         C           -1.190432845165     0.171589549595    -0.010318222581    12.000000000000
         C            0.000370354835    -0.552798150405     0.195594577419    12.000000000000
         H           -2.157436845165     2.094182549595    -0.027997222581     1.007825032230
         H            2.157400154835     2.094181549595    -0.027996222581     1.007825032230
         H           -0.000008845165     4.149477549595     1.035084777419     1.007825032230
         H            0.885748154835     4.181886549595    -0.495143222581     1.007825032230
         H           -0.885794845165     4.181886549595    -0.495125222581     1.007825032230
         H           -0.000019845165    -1.639013450405    -0.000265222581     1.007825032230

  Basis Set: AUG-CC-PVTZ
    Blend: AUG-CC-PVTZ
  Basis Set: (AUG-CC-PVTZ AUX)
    Blend: AUG-CC-PVTZ-JKFIT
	 Reference Energy          =   -5413.5710136539391897 [Eh]
	 Singles Energy            =      -0.0000000000000000 [Eh]
	 Same-Spin Energy          =      -0.4886603139162755 [Eh]
	 Opposite-Spin Energy      =      -1.3658942114638073 [Eh]
	 Correlation Energy        =      -1.8545545253800828 [Eh]
	 Total Energy              =   -5415.4255681793192707 [Eh]

	 ================> DF-SCS-MP2 Energies <==================
	-----------------------------------------------------------
	 SCS Same-Spin Scale       =       0.3333333333333333 [-]
	 SCS Opposite-Spin Scale   =       1.2000000000000000 [-]
	 SCS Same-Spin Energy      =      -0.1628867713054252 [Eh]
	 SCS Opposite-Spin Energy  =      -1.6390730537565688 [Eh]
	 SCS Correlation Energy    =      -1.8019598250619939 [Eh]
	 SCS Total Energy          =   -5415.3729734790013026 [Eh]
	-----------------------------------------------------------

  Dipole Moment: [D]
     X:    -0.0009      Y:     2.2645      Z:    -0.0176     Total:     2.2646

*** Psi4 exiting successfully. Buy a developer a beer!
