                               Psi4 1.3.2 release

  ==> Input File <==

--------------------------------------------------------------------------
#psi4
#
memory 32 gb

molecule  {
0 1
 Br        2.8426960    -0.9006560     0.0010230
 Br       -2.8426960    -0.9006560     0.0010230
  C        0.0000000     2.1518200    -0.0164640
  C       -1.2077220     1.4432500    -0.0102500
  C        1.2077220     1.4432500    -0.0102500
  C        0.0000000     3.6581740     0.0136870
  C        1.1904140     0.0494840    -0.0007470
  C       -1.1904140     0.0494850    -0.0007470
  C        0.0000973    -0.6758277     0.0551690
  H       -2.1574180     1.9720780    -0.0184260
  H        2.1574190     1.9720770    -0.0184250
  H        0.0000100     4.0273730     1.0446560
  H        0.8857670     4.0597820    -0.4855720
  H       -0.8857760     4.0597820    -0.4855540
  H       -0.0000010    -1.7611180     0.0093060
units angstrom
no_reorient  #important for SAPT in psi4, default
symmetry c1  #important for SAPT in psi4, default
}

set PROPERTIES_ORIGIN ["COM"]
properties('MP2/aug-cc-pvtz', properties = ['dipole'])
--------------------------------------------------------------------------

    Molecular point group: c1
  Charge       = 0
  Multiplicity = 1
  Basis Set: AUG-CC-PVTZ
    Blend: AUG-CC-PVTZ
  Basis Set: (AUG-CC-PVTZ AUX)
    Blend: AUG-CC-PVTZ-JKFIT

    Orbital Energies [Eh]
    ---------------------

    Doubly Occupied:

       1A   -490.031980     2A   -490.031973     3A    -65.171689
       4A    -65.171682     5A    -58.527014     6A    -58.527007
       7A    -58.525607     8A    -58.525600     9A    -58.525577
      10A    -58.525570    11A    -11.315172    12A    -11.315153
      13A    -11.272620    14A    -11.264969    15A    -11.258823
      16A    -11.258762    17A    -11.242966    18A     -9.844389
      19A     -9.844382    20A     -7.456024    21A     -7.456017
      22A     -7.449155    23A     -7.449148    24A     -7.449104
      25A     -7.449097    26A     -3.199816    27A     -3.199808
      28A     -3.196250    29A     -3.196243    30A     -3.196029
      31A     -3.196021    32A     -3.187257    33A     -3.187250
      34A     -3.187248    35A     -3.187241    36A     -1.194915
      37A     -1.095122    38A     -1.088390    39A     -1.004282
      40A     -0.976809    41A     -0.959251    42A     -0.816120
      43A     -0.813320    44A     -0.708710    45A     -0.677360
      46A     -0.604089    47A     -0.597667    48A     -0.588653
      49A     -0.583029    50A     -0.560077    51A     -0.541671
      52A     -0.510600    53A     -0.491393    54A     -0.467141
      55A     -0.425990    56A     -0.423234    57A     -0.419814
      58A     -0.345729    59A     -0.339696

  @DF-RHF Final Energy: -5413.58225145171764

   => Energetics <=

    Nuclear Repulsion Energy =            881.5645325418685161
    One-Electron Energy =               -9284.1821541366880410
    Two-Electron Energy =                2989.0353701431013178
    Total Energy =                      -5413.5822514517185482
  Basis Set: (AUG-CC-PVTZ AUX)
    Blend: AUG-CC-PVTZ-RI
    Molecular point group: c1

    Geometry (in Angstrom), charge = 0, multiplicity = 1:

       Center              X                  Y                   Z               Mass
    ------------   -----------------  -----------------  -----------------  -----------------
         BR           2.842691285659    -0.778506671328    -0.001286905513    78.918337600000
         BR          -2.842700714341    -0.778506671328    -0.001286905513    78.918337600000
         C           -0.000004714341     2.273969328672    -0.018773905513    12.000000000000
         C           -1.207726714341     1.565399328672    -0.012559905513    12.000000000000
         C            1.207717285659     1.565399328672    -0.012559905513    12.000000000000
         C           -0.000004714341     3.780323328672     0.011377094487    12.000000000000
         C            1.190409285659     0.171633328672    -0.003056905513    12.000000000000
         C           -1.190418714341     0.171634328672    -0.003056905513    12.000000000000
         C            0.000092585659    -0.553678371328     0.052859094487    12.000000000000
         H           -2.157422714341     2.094227328672    -0.020735905513     1.007825032230
         H            2.157414285659     2.094226328672    -0.020734905513     1.007825032230
         H            0.000005285659     4.149522328672     1.042346094487     1.007825032230
         H            0.885762285659     4.181931328672    -0.487881905513     1.007825032230
         H           -0.885780714341     4.181931328672    -0.487863905513     1.007825032230
         H           -0.000005714341    -1.638968671328     0.006996094487     1.007825032230

  Basis Set: AUG-CC-PVTZ
    Blend: AUG-CC-PVTZ
  Basis Set: (AUG-CC-PVTZ AUX)
    Blend: AUG-CC-PVTZ-JKFIT
	 Reference Energy          =   -5413.5822514517176387 [Eh]
	 Singles Energy            =      -0.0000000000000000 [Eh]
	 Same-Spin Energy          =      -0.4880694410505816 [Eh]
	 Opposite-Spin Energy      =      -1.3643738730197064 [Eh]
	 Correlation Energy        =      -1.8524433140702881 [Eh]
	 Total Energy              =   -5415.4346947657877536 [Eh]

	 ================> DF-SCS-MP2 Energies <==================
	-----------------------------------------------------------
	 SCS Same-Spin Scale       =       0.3333333333333333 [-]
	 SCS Opposite-Spin Scale   =       1.2000000000000000 [-]
	 SCS Same-Spin Energy      =      -0.1626898136835272 [Eh]
	 SCS Opposite-Spin Energy  =      -1.6372486476236476 [Eh]
	 SCS Correlation Energy    =      -1.7999384613071747 [Eh]
	 SCS Total Energy          =   -5415.3821899130243764 [Eh]
	-----------------------------------------------------------

  Dipole Moment: [D]
     X:    -0.0002      Y:     2.1844      Z:     0.0239     Total:     2.1845

*** Psi4 exiting successfully. Buy a developer a beer!
