                               Psi4 1.3.2 release

  ==> Input File <==

--------------------------------------------------------------------------
#psi4
#
memory 32 gb

molecule  {
0 1
 Br        2.8426960    -0.9006560     0.0010230
 Br       -2.8426960    -0.9006560     0.0010230
  C        0.0000000     2.1518200    -0.0164640
  C       -1.2077220     1.4432500    -0.0102500
  C        1.2077220     1.4432500    -0.0102500
  C        0.0000000     3.6576337     0.0636841
  C        1.1904140     0.0494840    -0.0007470
  C       -1.1904140     0.0494850    -0.0007470
  C        0.0000000    -0.6761360     0.0051700
  H       -2.1574180     1.9720780    -0.0184260
  H        2.1574190     1.9720770    -0.0184250
  H        0.0000100     4.0273730     1.0446560
  H        0.8857670     4.0597820    -0.4855720
  H       -0.8857760     4.0597820    -0.4855540
  H       -0.0000010    -1.7611180     0.0093060
units angstrom
no_reorient  #important for SAPT in psi4, default
symmetry c1  #important for SAPT in psi4, default
}

set PROPERTIES_ORIGIN ["COM"]
properties('MP2/aug-cc-pvtz', properties = ['dipole'])
--------------------------------------------------------------------------

    Molecular point group: c1
  Charge       = 0
  Multiplicity = 1
  Basis Set: AUG-CC-PVTZ
    Blend: AUG-CC-PVTZ
  Basis Set: (AUG-CC-PVTZ AUX)
    Blend: AUG-CC-PVTZ-JKFIT

    Orbital Energies [Eh]
    ---------------------

    Doubly Occupied:

       1A   -490.032027     2A   -490.032027     3A    -65.171734
       4A    -65.171734     5A    -58.527060     6A    -58.527060
       7A    -58.525653     8A    -58.525652     9A    -58.525623
      10A    -58.525623    11A    -11.314966    12A    -11.314956
      13A    -11.272347    14A    -11.265182    15A    -11.259063
      16A    -11.259000    17A    -11.242918    18A     -9.844434
      19A     -9.844433    20A     -7.456069    21A     -7.456069
      22A     -7.449198    23A     -7.449198    24A     -7.449149
      25A     -7.449149    26A     -3.199860    27A     -3.199859
      28A     -3.196294    29A     -3.196293    30A     -3.196075
      31A     -3.196074    32A     -3.187301    33A     -3.187301
      34A     -3.187292    35A     -3.187292    36A     -1.195107
      37A     -1.095243    38A     -1.088321    39A     -1.004393
      40A     -0.976844    41A     -0.959457    42A     -0.816316
      43A     -0.813649    44A     -0.709254    45A     -0.676528
      46A     -0.612133    47A     -0.599837    48A     -0.588707
      49A     -0.582998    50A     -0.547666    51A     -0.544426
      52A     -0.510451    53A     -0.490489    54A     -0.467355
      55A     -0.426185    56A     -0.423648    57A     -0.419897
      58A     -0.346537    59A     -0.339772

  @DF-RHF Final Energy: -5413.58014770878799

   => Energetics <=

    Nuclear Repulsion Energy =            881.5975408728625098
    One-Electron Energy =               -9284.2370247953131184
    Two-Electron Energy =                2989.0593362136619362
    Total Energy =                      -5413.5801477087879903
  Basis Set: (AUG-CC-PVTZ AUX)
    Blend: AUG-CC-PVTZ-RI
    Molecular point group: c1

    Geometry (in Angstrom), charge = 0, multiplicity = 1:

       Center              X                  Y                   Z               Mass
    ------------   -----------------  -----------------  -----------------  -----------------
         BR           2.842695995934    -0.778465590761    -0.001286813534    78.918337600000
         BR          -2.842696004066    -0.778465590761    -0.001286813534    78.918337600000
         C           -0.000000004066     2.274010409239    -0.018773813534    12.000000000000
         C           -1.207722004066     1.565440409239    -0.012559813534    12.000000000000
         C            1.207721995934     1.565440409239    -0.012559813534    12.000000000000
         C           -0.000000004066     3.779824109239     0.061374286466    12.000000000000
         C            1.190413995934     0.171674409239    -0.003056813534    12.000000000000
         C           -1.190414004066     0.171675409239    -0.003056813534    12.000000000000
         C           -0.000000004066    -0.553945590761     0.002860186466    12.000000000000
         H           -2.157418004066     2.094268409239    -0.020735813534     1.007825032230
         H            2.157418995934     2.094267409239    -0.020734813534     1.007825032230
         H            0.000009995934     4.149563409239     1.042346186466     1.007825032230
         H            0.885766995934     4.181972409239    -0.487881813534     1.007825032230
         H           -0.885776004066     4.181972409239    -0.487863813534     1.007825032230
         H           -0.000001004066    -1.638927590761     0.006996186466     1.007825032230

  Basis Set: AUG-CC-PVTZ
    Blend: AUG-CC-PVTZ
  Basis Set: (AUG-CC-PVTZ AUX)
    Blend: AUG-CC-PVTZ-JKFIT
	 Reference Energy          =   -5413.5801477087879903 [Eh]
	 Singles Energy            =      -0.0000000000000000 [Eh]
	 Same-Spin Energy          =      -0.4880767392980788 [Eh]
	 Opposite-Spin Energy      =      -1.3644481607367385 [Eh]
	 Correlation Energy        =      -1.8525249000348172 [Eh]
	 Total Energy              =   -5415.4326726088229407 [Eh]

	 ================> DF-SCS-MP2 Energies <==================
	-----------------------------------------------------------
	 SCS Same-Spin Scale       =       0.3333333333333333 [-]
	 SCS Opposite-Spin Scale   =       1.2000000000000000 [-]
	 SCS Same-Spin Energy      =      -0.1626922464326929 [Eh]
	 SCS Opposite-Spin Energy  =      -1.6373377928840862 [Eh]
	 SCS Correlation Energy    =      -1.8000300393167792 [Eh]
	 SCS Total Energy          =   -5415.3801777481048703 [Eh]
	-----------------------------------------------------------

  Dipole Moment: [D]
     X:     0.0000      Y:     2.1476      Z:     0.0552     Total:     2.1483

*** Psi4 exiting successfully. Buy a developer a beer!
