                               Psi4 1.3.2 release

  ==> Input File <==

--------------------------------------------------------------------------
#psi4
#
memory 32 gb

molecule  {
0 1
 Br        2.8426960    -0.9006560     0.0010230
 Br       -2.8426960    -0.9006560     0.0010230
  C        0.0000000     2.1518200    -0.0164640
  C       -1.2077220     1.4432500    -0.0102500
  C        1.2077220     1.4432500    -0.0102500
  C        0.0000000     3.6581740     0.0136870
  C        1.1904140     0.0494840    -0.0007470
  C       -1.1904140     0.0494850    -0.0007470
  C        0.0001946    -0.6755193     0.1051679
  H       -2.1574180     1.9720780    -0.0184260
  H        2.1574190     1.9720770    -0.0184250
  H        0.0000100     4.0273730     1.0446560
  H        0.8857670     4.0597820    -0.4855720
  H       -0.8857760     4.0597820    -0.4855540
  H       -0.0000010    -1.7611180     0.0093060
units angstrom
no_reorient  #important for SAPT in psi4, default
symmetry c1  #important for SAPT in psi4, default
}

set PROPERTIES_ORIGIN ["COM"]
properties('MP2/aug-cc-pvtz', properties = ['dipole'])
--------------------------------------------------------------------------

    Molecular point group: c1
  Charge       = 0
  Multiplicity = 1
  Basis Set: AUG-CC-PVTZ
    Blend: AUG-CC-PVTZ
  Basis Set: (AUG-CC-PVTZ AUX)
    Blend: AUG-CC-PVTZ-JKFIT

    Orbital Energies [Eh]
    ---------------------

    Doubly Occupied:

       1A   -490.032008     2A   -490.031993     3A    -65.171719
       4A    -65.171705     5A    -58.527043     6A    -58.527029
       7A    -58.525637     8A    -58.525623     9A    -58.525606
      10A    -58.525592    11A    -11.315781    12A    -11.315747
      13A    -11.273003    14A    -11.265531    15A    -11.258736
      16A    -11.258677    17A    -11.243121    18A     -9.844422
      19A     -9.844408    20A     -7.456056    21A     -7.456042
      22A     -7.449190    23A     -7.449176    24A     -7.449133
      25A     -7.449119    26A     -3.199848    27A     -3.199833
      28A     -3.196284    29A     -3.196270    30A     -3.196057
      31A     -3.196043    32A     -3.187289    33A     -3.187280
      34A     -3.187275    35A     -3.187267    36A     -1.194643
      37A     -1.095062    38A     -1.088285    39A     -1.004136
      40A     -0.976866    41A     -0.959110    42A     -0.815432
      43A     -0.813261    44A     -0.707910    45A     -0.676804
      46A     -0.603849    47A     -0.597564    48A     -0.588382
      49A     -0.583046    50A     -0.560155    51A     -0.540966
      52A     -0.510455    53A     -0.491636    54A     -0.466709
      55A     -0.426000    56A     -0.423246    57A     -0.419708
      58A     -0.345790    59A     -0.339545

  @DF-RHF Final Energy: -5413.58001684212468

   => Energetics <=

    Nuclear Repulsion Energy =            881.4483032586522313
    One-Electron Energy =               -9283.9484365554362739
    Two-Electron Energy =                2988.9201164546589098
    Total Energy =                      -5413.5800168421246781
  Basis Set: (AUG-CC-PVTZ AUX)
    Blend: AUG-CC-PVTZ-RI
    Molecular point group: c1

    Geometry (in Angstrom), charge = 0, multiplicity = 1:

       Center              X                  Y                   Z               Mass
    ------------   -----------------  -----------------  -----------------  -----------------
         BR           2.842686575385    -0.778521600915    -0.003707342922    78.918337600000
         BR          -2.842705424615    -0.778521600915    -0.003707342922    78.918337600000
         C           -0.000009424615     2.273954399085    -0.021194342922    12.000000000000
         C           -1.207731424615     1.565384399085    -0.014980342922    12.000000000000
         C            1.207712575385     1.565384399085    -0.014980342922    12.000000000000
         C           -0.000009424615     3.780308399085     0.008956657078    12.000000000000
         C            1.190404575385     0.171618399085    -0.005477342922    12.000000000000
         C           -1.190423424615     0.171619399085    -0.005477342922    12.000000000000
         C            0.000185175385    -0.553384900915     0.100437557078    12.000000000000
         H           -2.157427424615     2.094212399085    -0.023156342922     1.007825032230
         H            2.157409575385     2.094211399085    -0.023155342922     1.007825032230
         H            0.000000575385     4.149507399085     1.039925657078     1.007825032230
         H            0.885757575385     4.181916399085    -0.490302342922     1.007825032230
         H           -0.885785424615     4.181916399085    -0.490284342922     1.007825032230
         H           -0.000010424615    -1.638983600915     0.004575657078     1.007825032230

  Basis Set: AUG-CC-PVTZ
    Blend: AUG-CC-PVTZ
  Basis Set: (AUG-CC-PVTZ AUX)
    Blend: AUG-CC-PVTZ-JKFIT
	 Reference Energy          =   -5413.5800168421246781 [Eh]
	 Singles Energy            =      -0.0000000000000000 [Eh]
	 Same-Spin Energy          =      -0.4881828869574858 [Eh]
	 Opposite-Spin Energy      =      -1.3646551064919707 [Eh]
	 Correlation Energy        =      -1.8528379934494565 [Eh]
	 Total Energy              =   -5415.4328548355742896 [Eh]

	 ================> DF-SCS-MP2 Energies <==================
	-----------------------------------------------------------
	 SCS Same-Spin Scale       =       0.3333333333333333 [-]
	 SCS Opposite-Spin Scale   =       1.2000000000000000 [-]
	 SCS Same-Spin Energy      =      -0.1627276289858286 [Eh]
	 SCS Opposite-Spin Energy  =      -1.6375861277903649 [Eh]
	 SCS Correlation Energy    =      -1.8003137567761935 [Eh]
	 SCS Total Energy          =   -5415.3803305989013097 [Eh]
	-----------------------------------------------------------

  Dipole Moment: [D]
     X:    -0.0005      Y:     2.2005      Z:     0.0110     Total:     2.2005

*** Psi4 exiting successfully. Buy a developer a beer!
