                               Psi4 1.3.2 release

  ==> Input File <==

--------------------------------------------------------------------------
#psi4
#
memory 32 gb

molecule  {
0 1
 Br        2.8426960    -0.9006560     0.0010230
 Br       -2.8426960    -0.9006560     0.0010230
  C        0.0000000     2.1518200    -0.0164640
  C       -1.2077220     1.4432500    -0.0102500
  C        1.2077220     1.4432500    -0.0102500
  C        0.0000000     3.6554724     0.2636724
  C        1.1904140     0.0494840    -0.0007470
  C       -1.1904140     0.0494850    -0.0007470
  C        0.0000000    -0.6761360     0.0051700
  H       -2.1574180     1.9720780    -0.0184260
  H        2.1574190     1.9720770    -0.0184250
  H        0.0000100     4.0273730     1.0446560
  H        0.8857670     4.0597820    -0.4855720
  H       -0.8857760     4.0597820    -0.4855540
  H       -0.0000010    -1.7611180     0.0093060
units angstrom
no_reorient  #important for SAPT in psi4, default
symmetry c1  #important for SAPT in psi4, default
}

set PROPERTIES_ORIGIN ["COM"]
properties('MP2/aug-cc-pvtz', properties = ['dipole'])
--------------------------------------------------------------------------

    Molecular point group: c1
  Charge       = 0
  Multiplicity = 1
  Basis Set: AUG-CC-PVTZ
    Blend: AUG-CC-PVTZ
  Basis Set: (AUG-CC-PVTZ AUX)
    Blend: AUG-CC-PVTZ-JKFIT

    Orbital Energies [Eh]
    ---------------------

    Doubly Occupied:

       1A   -490.032723     2A   -490.032723     3A    -65.172430
       4A    -65.172430     5A    -58.527756     6A    -58.527756
       7A    -58.526346     8A    -58.526346     9A    -58.526317
      10A    -58.526317    11A    -11.315688    12A    -11.315678
      13A    -11.276293    14A    -11.267424    15A    -11.260746
      16A    -11.260691    17A    -11.250182    18A     -9.845128
      19A     -9.845128    20A     -7.456768    21A     -7.456768
      22A     -7.449887    23A     -7.449887    24A     -7.449841
      25A     -7.449841    26A     -3.200561    27A     -3.200560
      28A     -3.196990    29A     -3.196990    30A     -3.196773
      31A     -3.196772    32A     -3.187988    33A     -3.187988
      34A     -3.187979    35A     -3.187979    36A     -1.196145
      37A     -1.096217    38A     -1.088192    39A     -1.005911
      40A     -0.977736    41A     -0.967578    42A     -0.823893
      43A     -0.816912    44A     -0.712826    45A     -0.674696
      46A     -0.661242    47A     -0.590118    48A     -0.586052
      49A     -0.583909    50A     -0.549043    51A     -0.508996
      52A     -0.506763    53A     -0.478370    54A     -0.468166
      55A     -0.428043    56A     -0.422935    57A     -0.420461
      58A     -0.348306    59A     -0.340536

  @DF-RHF Final Energy: -5413.49808126054359

   => Energetics <=

    Nuclear Repulsion Energy =            881.4093977209129207
    One-Electron Energy =               -9283.5855193322313426
    Two-Electron Energy =                2988.6780403507755182
    Total Energy =                      -5413.4980812605435858
  Basis Set: (AUG-CC-PVTZ AUX)
    Blend: AUG-CC-PVTZ-RI
    Molecular point group: c1

    Geometry (in Angstrom), charge = 0, multiplicity = 1:

       Center              X                  Y                   Z               Mass
    ------------   -----------------  -----------------  -----------------  -----------------
         BR           2.842695995934    -0.778360962631    -0.010968209779    78.918337600000
         BR          -2.842696004066    -0.778360962631    -0.010968209779    78.918337600000
         C           -0.000000004066     2.274115037369    -0.028455209779    12.000000000000
         C           -1.207722004066     1.565545037369    -0.022241209779    12.000000000000
         C            1.207721995934     1.565545037369    -0.022241209779    12.000000000000
         C           -0.000000004066     3.777767437369     0.251681190221    12.000000000000
         C            1.190413995934     0.171779037369    -0.012738209779    12.000000000000
         C           -1.190414004066     0.171780037369    -0.012738209779    12.000000000000
         C           -0.000000004066    -0.553840962631    -0.006821209779    12.000000000000
         H           -2.157418004066     2.094373037369    -0.030417209779     1.007825032230
         H            2.157418995934     2.094372037369    -0.030416209779     1.007825032230
         H            0.000009995934     4.149668037369     1.032664790221     1.007825032230
         H            0.885766995934     4.182077037369    -0.497563209779     1.007825032230
         H           -0.885776004066     4.182077037369    -0.497545209779     1.007825032230
         H           -0.000001004066    -1.638822962631    -0.002685209779     1.007825032230

  Basis Set: AUG-CC-PVTZ
    Blend: AUG-CC-PVTZ
  Basis Set: (AUG-CC-PVTZ AUX)
    Blend: AUG-CC-PVTZ-JKFIT
	 Reference Energy          =   -5413.4980812605435858 [Eh]
	 Singles Energy            =      -0.0000000000000000 [Eh]
	 Same-Spin Energy          =      -0.4889748581133835 [Eh]
	 Opposite-Spin Energy      =      -1.3677051036992625 [Eh]
	 Correlation Energy        =      -1.8566799618126459 [Eh]
	 Total Energy              =   -5415.3547612223565011 [Eh]

	 ================> DF-SCS-MP2 Energies <==================
	-----------------------------------------------------------
	 SCS Same-Spin Scale       =       0.3333333333333333 [-]
	 SCS Opposite-Spin Scale   =       1.2000000000000000 [-]
	 SCS Same-Spin Energy      =      -0.1629916193711278 [Eh]
	 SCS Opposite-Spin Energy  =      -1.6412461244391150 [Eh]
	 SCS Correlation Energy    =      -1.8042377438102428 [Eh]
	 SCS Total Energy          =   -5415.3023190043541035 [Eh]
	-----------------------------------------------------------

  Dipole Moment: [D]
     X:     0.0000      Y:     1.9322      Z:     0.0880     Total:     1.9342

*** Psi4 exiting successfully. Buy a developer a beer!
