                               Psi4 1.3.2 release

  ==> Input File <==

--------------------------------------------------------------------------
#psi4
#
memory 32 gb

molecule  {
0 1
 Br        2.8426960    -0.9006560     0.0010230
 Br       -2.8426960    -0.9006560     0.0010230
  C        0.0000000     2.1518200    -0.0164640
  C       -1.2077220     1.4432500    -0.0102500
  C        1.2077220     1.4432500    -0.0102500
  C        0.0000000     3.6560127     0.2136753
  C        1.1904140     0.0494840    -0.0007470
  C       -1.1904140     0.0494850    -0.0007470
  C        0.0000000    -0.6761360     0.0051700
  H       -2.1574180     1.9720780    -0.0184260
  H        2.1574190     1.9720770    -0.0184250
  H        0.0000100     4.0273730     1.0446560
  H        0.8857670     4.0597820    -0.4855720
  H       -0.8857760     4.0597820    -0.4855540
  H       -0.0000010    -1.7611180     0.0093060
units angstrom
no_reorient  #important for SAPT in psi4, default
symmetry c1  #important for SAPT in psi4, default
}

set PROPERTIES_ORIGIN ["COM"]
properties('MP2/aug-cc-pvtz', properties = ['dipole'])
--------------------------------------------------------------------------

    Molecular point group: c1
  Charge       = 0
  Multiplicity = 1
  Basis Set: AUG-CC-PVTZ
    Blend: AUG-CC-PVTZ
  Basis Set: (AUG-CC-PVTZ AUX)
    Blend: AUG-CC-PVTZ-JKFIT

    Orbital Energies [Eh]
    ---------------------

    Doubly Occupied:

       1A   -490.032476     2A   -490.032476     3A    -65.172183
       4A    -65.172183     5A    -58.527509     6A    -58.527508
       7A    -58.526100     8A    -58.526100     9A    -58.526071
      10A    -58.526071    11A    -11.315399    12A    -11.315389
      13A    -11.274605    14A    -11.266768    15A    -11.260184
      16A    -11.260125    17A    -11.247238    18A     -9.844882
      19A     -9.844881    20A     -7.456519    21A     -7.456519
      22A     -7.449643    23A     -7.449642    24A     -7.449595
      25A     -7.449595    26A     -3.200312    27A     -3.200311
      28A     -3.196743    29A     -3.196742    30A     -3.196525
      31A     -3.196524    32A     -3.187744    33A     -3.187744
      34A     -3.187735    35A     -3.187735    36A     -1.195779
      37A     -1.095880    38A     -1.088150    39A     -1.005259
      40A     -0.977403    41A     -0.964098    42A     -0.819758
      43A     -0.816642    44A     -0.711441    45A     -0.674867
      46A     -0.650634    47A     -0.590623    48A     -0.588862
      49A     -0.583543    50A     -0.548310    51A     -0.515586
      52A     -0.508101    53A     -0.483878    54A     -0.467885
      55A     -0.427534    56A     -0.423323    57A     -0.420266
      58A     -0.348069    59A     -0.340240

  @DF-RHF Final Energy: -5413.53150748827284

   => Energetics <=

    Nuclear Repulsion Energy =            881.4735279391666154
    One-Electron Energy =               -9283.8222642270684446
    Two-Electron Energy =                2988.8172287996303567
    Total Energy =                      -5413.5315074882719273
  Basis Set: (AUG-CC-PVTZ AUX)
    Blend: AUG-CC-PVTZ-RI
    Molecular point group: c1

    Geometry (in Angstrom), charge = 0, multiplicity = 1:

       Center              X                  Y                   Z               Mass
    ------------   -----------------  -----------------  -----------------  -----------------
         BR           2.842695995934    -0.778387118454    -0.008547859507    78.918337600000
         BR          -2.842696004066    -0.778387118454    -0.008547859507    78.918337600000
         C           -0.000000004066     2.274088881546    -0.026034859507    12.000000000000
         C           -1.207722004066     1.565518881546    -0.019820859507    12.000000000000
         C            1.207721995934     1.565518881546    -0.019820859507    12.000000000000
         C           -0.000000004066     3.778281581546     0.204104440493    12.000000000000
         C            1.190413995934     0.171752881546    -0.010317859507    12.000000000000
         C           -1.190414004066     0.171753881546    -0.010317859507    12.000000000000
         C           -0.000000004066    -0.553867118454    -0.004400859507    12.000000000000
         H           -2.157418004066     2.094346881546    -0.027996859507     1.007825032230
         H            2.157418995934     2.094345881546    -0.027995859507     1.007825032230
         H            0.000009995934     4.149641881546     1.035085140493     1.007825032230
         H            0.885766995934     4.182050881546    -0.495142859507     1.007825032230
         H           -0.885776004066     4.182050881546    -0.495124859507     1.007825032230
         H           -0.000001004066    -1.638849118454    -0.000264859507     1.007825032230

  Basis Set: AUG-CC-PVTZ
    Blend: AUG-CC-PVTZ
  Basis Set: (AUG-CC-PVTZ AUX)
    Blend: AUG-CC-PVTZ-JKFIT
	 Reference Energy          =   -5413.5315074882728368 [Eh]
	 Singles Energy            =      -0.0000000000000000 [Eh]
	 Same-Spin Energy          =      -0.4886306894774292 [Eh]
	 Opposite-Spin Energy      =      -1.3664564780867701 [Eh]
	 Correlation Energy        =      -1.8550871675641991 [Eh]
	 Total Energy              =   -5415.3865946558371434 [Eh]

	 ================> DF-SCS-MP2 Energies <==================
	-----------------------------------------------------------
	 SCS Same-Spin Scale       =       0.3333333333333333 [-]
	 SCS Opposite-Spin Scale   =       1.2000000000000000 [-]
	 SCS Same-Spin Energy      =      -0.1628768964924764 [Eh]
	 SCS Opposite-Spin Energy  =      -1.6397477737041239 [Eh]
	 SCS Correlation Energy    =      -1.8026246701966002 [Eh]
	 SCS Total Energy          =   -5415.3341321584694015 [Eh]
	-----------------------------------------------------------

  Dipole Moment: [D]
     X:     0.0000      Y:     2.0007      Z:     0.0864     Total:     2.0026

*** Psi4 exiting successfully. Buy a developer a beer!
