                               Psi4 1.3.2 release

  ==> Input File <==

--------------------------------------------------------------------------
#psi4
#
memory 32 gb

molecule  {
0 1
 Br        2.8426960    -0.9006560     0.0010230
 Br       -2.8426960    -0.9006560     0.0010230
  C        0.0000000     2.1518200    -0.0164640
  C       -1.2077220     1.4432500    -0.0102500
  C        1.2077220     1.4432500    -0.0102500
  C        0.0000000     3.6581740     0.0136870
  C        1.1904140     0.0494840    -0.0007470
  C       -1.1904140     0.0494850    -0.0007470
  C        0.0004865    -0.6745943     0.2551648
  H       -2.1574180     1.9720780    -0.0184260
  H        2.1574190     1.9720770    -0.0184250
  H        0.0000100     4.0273730     1.0446560
  H        0.8857670     4.0597820    -0.4855720
  H       -0.8857760     4.0597820    -0.4855540
  H       -0.0000010    -1.7611180     0.0093060
units angstrom
no_reorient  #important for SAPT in psi4, default
symmetry c1  #important for SAPT in psi4, default
}

set PROPERTIES_ORIGIN ["COM"]
properties('MP2/aug-cc-pvtz', properties = ['dipole'])
--------------------------------------------------------------------------

    Molecular point group: c1
  Charge       = 0
  Multiplicity = 1
  Basis Set: AUG-CC-PVTZ
    Blend: AUG-CC-PVTZ
  Basis Set: (AUG-CC-PVTZ AUX)
    Blend: AUG-CC-PVTZ-JKFIT

    Orbital Energies [Eh]
    ---------------------

    Doubly Occupied:

       1A   -490.032199     2A   -490.032164     3A    -65.171919
       4A    -65.171885     5A    -58.527239     6A    -58.527205
       7A    -58.525838     8A    -58.525804     9A    -58.525800
      10A    -58.525766    11A    -11.319821    12A    -11.319748
      13A    -11.275717    14A    -11.269206    15A    -11.258245
      16A    -11.258193    17A    -11.244259    18A     -9.844631
      19A     -9.844598    20A     -7.456259    21A     -7.456226
      22A     -7.449413    23A     -7.449381    24A     -7.449321
      25A     -7.449288    26A     -3.200052    27A     -3.200018
      28A     -3.196505    29A     -3.196472    30A     -3.196240
      31A     -3.196207    32A     -3.187497    33A     -3.187489
      34A     -3.187465    35A     -3.187457    36A     -1.192889
      37A     -1.094716    38A     -1.087597    39A     -1.003149
      40A     -0.977299    41A     -0.958038    42A     -0.812999
      43A     -0.811046    44A     -0.703046    45A     -0.672960
      46A     -0.602846    47A     -0.598581    48A     -0.584040
      49A     -0.583231    50A     -0.560700    51A     -0.536675
      52A     -0.509173    53A     -0.493087    54A     -0.463982
      55A     -0.426092    56A     -0.423304    57A     -0.418925
      58A     -0.346280    59A     -0.338577

  @DF-RHF Final Energy: -5413.56418667071466

   => Energetics <=

    Nuclear Repulsion Energy =            880.6632137850365325
    One-Electron Energy =               -9282.3652913338428334
    Two-Electron Energy =                2988.1378908780911843
    Total Energy =                      -5413.5641866707137524
  Basis Set: (AUG-CC-PVTZ AUX)
    Blend: AUG-CC-PVTZ-RI
    Molecular point group: c1

    Geometry (in Angstrom), charge = 0, multiplicity = 1:

       Center              X                  Y                   Z               Mass
    ------------   -----------------  -----------------  -----------------  -----------------
         BR           2.842672444560    -0.778566379992    -0.010968664831    78.918337600000
         BR          -2.842719555440    -0.778566379992    -0.010968664831    78.918337600000
         C           -0.000023555440     2.273909620008    -0.028455664831    12.000000000000
         C           -1.207745555440     1.565339620008    -0.022241664831    12.000000000000
         C            1.207698444560     1.565339620008    -0.022241664831    12.000000000000
         C           -0.000023555440     3.780263620008     0.001695335169    12.000000000000
         C            1.190390444560     0.171573620008    -0.012738664831    12.000000000000
         C           -1.190437555440     0.171574620008    -0.012738664831    12.000000000000
         C            0.000462944560    -0.552504679992     0.243173135169    12.000000000000
         H           -2.157441555440     2.094167620008    -0.030417664831     1.007825032230
         H            2.157395444560     2.094166620008    -0.030416664831     1.007825032230
         H           -0.000013555440     4.149462620008     1.032664335169     1.007825032230
         H            0.885743444560     4.181871620008    -0.497563664831     1.007825032230
         H           -0.885799555440     4.181871620008    -0.497545664831     1.007825032230
         H           -0.000024555440    -1.639028379992    -0.002685664831     1.007825032230

  Basis Set: AUG-CC-PVTZ
    Blend: AUG-CC-PVTZ
  Basis Set: (AUG-CC-PVTZ AUX)
    Blend: AUG-CC-PVTZ-JKFIT
	 Reference Energy          =   -5413.5641866707146619 [Eh]
	 Singles Energy            =      -0.0000000000000000 [Eh]
	 Same-Spin Energy          =      -0.4890186832971338 [Eh]
	 Opposite-Spin Energy      =      -1.3668638797311763 [Eh]
	 Correlation Energy        =      -1.8558825630283100 [Eh]
	 Total Energy              =   -5415.4200692337426517 [Eh]

	 ================> DF-SCS-MP2 Energies <==================
	-----------------------------------------------------------
	 SCS Same-Spin Scale       =       0.3333333333333333 [-]
	 SCS Opposite-Spin Scale   =       1.2000000000000000 [-]
	 SCS Same-Spin Energy      =      -0.1630062277657112 [Eh]
	 SCS Opposite-Spin Energy  =      -1.6402366556774115 [Eh]
	 SCS Correlation Energy    =      -1.8032428834431227 [Eh]
	 SCS Total Energy          =   -5415.3674295541577521 [Eh]
	-----------------------------------------------------------

  Dipole Moment: [D]
     X:    -0.0011      Y:     2.3117      Z:    -0.0336     Total:     2.3120

*** Psi4 exiting successfully. Buy a developer a beer!
