                               Psi4 1.3.2 release

  ==> Input File <==

--------------------------------------------------------------------------
#psi4
#
memory 32 gb

molecule  {
0 1
 Br        2.8426960    -0.9006560     0.0010230
 Br       -2.8426960    -0.9006560     0.0010230
  C        0.0000000     2.1518200    -0.0164640
  C       -1.2077220     1.4432500    -0.0102500
  C        1.2077220     1.4432500    -0.0102500
  C        0.0000000     3.6570933     0.1136812
  C        1.1904140     0.0494840    -0.0007470
  C       -1.1904140     0.0494850    -0.0007470
  C        0.0000000    -0.6761360     0.0051700
  H       -2.1574180     1.9720780    -0.0184260
  H        2.1574190     1.9720770    -0.0184250
  H        0.0000100     4.0273730     1.0446560
  H        0.8857670     4.0597820    -0.4855720
  H       -0.8857760     4.0597820    -0.4855540
  H       -0.0000010    -1.7611180     0.0093060
units angstrom
no_reorient  #important for SAPT in psi4, default
symmetry c1  #important for SAPT in psi4, default
}

set PROPERTIES_ORIGIN ["COM"]
properties('MP2/aug-cc-pvtz', properties = ['dipole'])
--------------------------------------------------------------------------

    Molecular point group: c1
  Charge       = 0
  Multiplicity = 1
  Basis Set: AUG-CC-PVTZ
    Blend: AUG-CC-PVTZ
  Basis Set: (AUG-CC-PVTZ AUX)
    Blend: AUG-CC-PVTZ-JKFIT

    Orbital Energies [Eh]
    ---------------------

    Doubly Occupied:

       1A   -490.032130     2A   -490.032130     3A    -65.171838
       4A    -65.171838     5A    -58.527163     6A    -58.527163
       7A    -58.525756     8A    -58.525755     9A    -58.525726
      10A    -58.525726    11A    -11.315041    12A    -11.315031
      13A    -11.272643    14A    -11.265652    15A    -11.259349
      16A    -11.259286    17A    -11.243639    18A     -9.844537
      19A     -9.844537    20A     -7.456172    21A     -7.456172
      22A     -7.449300    23A     -7.449300    24A     -7.449252
      25A     -7.449252    26A     -3.199964    27A     -3.199963
      28A     -3.196397    29A     -3.196397    30A     -3.196179
      31A     -3.196178    32A     -3.187404    33A     -3.187403
      34A     -3.187394    35A     -3.187394    36A     -1.195264
      37A     -1.095396    38A     -1.088231    39A     -1.004551
      40A     -0.976961    41A     -0.960207    42A     -0.816347
      43A     -0.814710    44A     -0.709708    45A     -0.675761
      46A     -0.625265    47A     -0.596972    48A     -0.588904
      49A     -0.583086    50A     -0.546131    51A     -0.535720
      52A     -0.509944    53A     -0.489260    54A     -0.467481
      55A     -0.426559    56A     -0.423742    57A     -0.419984
      58A     -0.347199    59A     -0.339860

  @DF-RHF Final Energy: -5413.57129306654861

   => Energetics <=

    Nuclear Repulsion Energy =            881.5707203455732497
    One-Electron Energy =               -9284.1514154454216623
    Two-Electron Energy =                2989.0094020332999207
    Total Energy =                      -5413.5712930665486056
  Basis Set: (AUG-CC-PVTZ AUX)
    Blend: AUG-CC-PVTZ-RI
    Molecular point group: c1

    Geometry (in Angstrom), charge = 0, multiplicity = 1:

       Center              X                  Y                   Z               Mass
    ------------   -----------------  -----------------  -----------------  -----------------
         BR           2.842695995934    -0.778439430098    -0.003707163806    78.918337600000
         BR          -2.842696004066    -0.778439430098    -0.003707163806    78.918337600000
         C           -0.000000004066     2.274036569902    -0.021194163806    12.000000000000
         C           -1.207722004066     1.565466569902    -0.014980163806    12.000000000000
         C            1.207721995934     1.565466569902    -0.014980163806    12.000000000000
         C           -0.000000004066     3.779309869902     0.108951036194    12.000000000000
         C            1.190413995934     0.171700569902    -0.005477163806    12.000000000000
         C           -1.190414004066     0.171701569902    -0.005477163806    12.000000000000
         C           -0.000000004066    -0.553919430098     0.000439836194    12.000000000000
         H           -2.157418004066     2.094294569902    -0.023156163806     1.007825032230
         H            2.157418995934     2.094293569902    -0.023155163806     1.007825032230
         H            0.000009995934     4.149589569902     1.039925836194     1.007825032230
         H            0.885766995934     4.181998569902    -0.490302163806     1.007825032230
         H           -0.885776004066     4.181998569902    -0.490284163806     1.007825032230
         H           -0.000001004066    -1.638901430098     0.004575836194     1.007825032230

  Basis Set: AUG-CC-PVTZ
    Blend: AUG-CC-PVTZ
  Basis Set: (AUG-CC-PVTZ AUX)
    Blend: AUG-CC-PVTZ-JKFIT
	 Reference Energy          =   -5413.5712930665486056 [Eh]
	 Singles Energy            =      -0.0000000000000000 [Eh]
	 Same-Spin Energy          =      -0.4881860803712545 [Eh]
	 Opposite-Spin Energy      =      -1.3648480812968138 [Eh]
	 Correlation Energy        =      -1.8530341616680683 [Eh]
	 Total Energy              =   -5415.4243272282164980 [Eh]

	 ================> DF-SCS-MP2 Energies <==================
	-----------------------------------------------------------
	 SCS Same-Spin Scale       =       0.3333333333333333 [-]
	 SCS Opposite-Spin Scale   =       1.2000000000000000 [-]
	 SCS Same-Spin Energy      =      -0.1627286934570848 [Eh]
	 SCS Opposite-Spin Energy  =      -1.6378176975561765 [Eh]
	 SCS Correlation Energy    =      -1.8005463910132613 [Eh]
	 SCS Total Energy          =   -5415.3718394575616912 [Eh]
	-----------------------------------------------------------

  Dipole Moment: [D]
     X:     0.0000      Y:     2.1079      Z:     0.0700     Total:     2.1090

*** Psi4 exiting successfully. Buy a developer a beer!
