                               Psi4 1.4a3.dev225

  ==> Input File <==

--------------------------------------------------------------------------
#psi4
#
memory 32 gb

molecule  {
1 1
  N       -3.4197460    -0.1817000     0.1602720
  N       -0.6214370    -0.0078370    -0.1287630
  C       -2.7377630    -0.6049400    -1.1216890
  C       -2.6265040     0.8533270     0.9259500
  C       -1.3397990    -1.0900720    -0.7822260
  C       -1.2267490     0.3141230     1.1574790
  C        0.8091060    -0.1845140    -0.0397240
  C        1.6179690     0.9496740    -0.2359790
  C        1.3698700    -1.4337860     0.2499420
  C        3.0044760     0.7849240    -0.1342920
  C        1.0196790     2.2951990    -0.5492200
  C        2.7558540    -1.5738690     0.3292430
  C        3.5736970    -0.4590730     0.1432710
  H       -2.7010110     0.2771110    -1.7633110
  H       -3.3565410    -1.3799850    -1.5813290
  H       -3.1641810     1.0582560     1.8552750
  H       -2.5989570     1.7488760     0.3025170
  H       -1.3760940    -2.0474076    -0.2273974
  H       -0.8261290    -1.3544960    -1.7108330
  H       -0.6365290     1.0912410     1.6504410
  H       -1.2578930    -0.5558900     1.8421060
  H       -4.3648950     0.1725180    -0.0402120
  H       -3.5438220    -1.0118610     0.7575640
  H        0.7360800    -2.3037000     0.4086560
  H        3.6499200     1.6470780    -0.2894290
  H        0.2227830     2.2055990    -1.2916560
  H        0.5919240     2.7705950     0.3416580
  H        1.7859030     2.9697170    -0.9386560
  H        3.1912420    -2.5456860     0.5460090
  H        4.6540550    -0.5586080     0.2046590
units angstrom
no_reorient  #important for SAPT in psi4, default
symmetry c1  #important for SAPT in psi4, default
}

set PROPERTIES_ORIGIN ["COM"]
properties('MP2/aug-cc-pvtz', properties = ['dipole'])
--------------------------------------------------------------------------

    Molecular point group: c1
  Charge       = 1
  Multiplicity = 1
  Basis Set: AUG-CC-PVTZ
    Blend: AUG-CC-PVTZ
  Basis Set: (AUG-CC-PVTZ AUX)
    Blend: AUG-CC-PVTZ-JKFIT

    Orbital Energies [Eh]
    ---------------------

    Doubly Occupied:

       1A    -15.866460     2A    -15.703720     3A    -11.457329
       4A    -11.456691     5A    -11.417139     6A    -11.416641
       7A    -11.375316     8A    -11.344492     9A    -11.340330
      10A    -11.331917    11A    -11.329973    12A    -11.328695
      13A    -11.323636    14A     -1.497337    15A     -1.390138
      16A     -1.249935    17A     -1.221626    18A     -1.155545
      19A     -1.142690    20A     -1.088177    21A     -1.053896
      22A     -1.032028    23A     -0.995831    24A     -0.935670
      25A     -0.925000    26A     -0.903423    27A     -0.867404
      28A     -0.823472    29A     -0.810511    30A     -0.792663
      31A     -0.787888    32A     -0.755048    33A     -0.744669
      34A     -0.734398    35A     -0.715345    36A     -0.703897
      37A     -0.688985    38A     -0.675193    39A     -0.669678
      40A     -0.657297    41A     -0.655462    42A     -0.640368
      43A     -0.599987    44A     -0.591758    45A     -0.588164
      46A     -0.522095    47A     -0.433662    48A     -0.423575

  @DF-RHF Final Energy:  -535.30821441296416

   => Energetics <=

    Nuclear Repulsion Energy =            820.1893716002106203
    One-Electron Energy =               -2338.6648722771760731
    Two-Electron Energy =                 983.1672862640014046
    Total Energy =                       -535.3082144129641620
  Basis Set: (AUG-CC-PVTZ AUX)
    Blend: AUG-CC-PVTZ-RI
    Molecular point group: c1

    Geometry (in Angstrom), charge = 1, multiplicity = 1:

       Center              X                  Y                   Z               Mass
    ------------   -----------------  -----------------  -----------------  -----------------
         N           -3.470466135646    -0.169044739447     0.161283287359    14.003074004430
         N           -0.672157135646     0.004818260553    -0.127751712641    14.003074004430
         C           -2.788483135646    -0.592284739447    -1.120677712641    12.000000000000
         C           -2.677224135646     0.865982260553     0.926961287359    12.000000000000
         C           -1.390519135646    -1.077416739447    -0.781214712641    12.000000000000
         C           -1.277469135646     0.326778260553     1.158490287359    12.000000000000
         C            0.758385864354    -0.171858739447    -0.038712712641    12.000000000000
         C            1.567248864354     0.962329260553    -0.234967712641    12.000000000000
         C            1.319149864354    -1.421130739447     0.250953287359    12.000000000000
         C            2.953755864354     0.797579260553    -0.133280712641    12.000000000000
         C            0.968958864354     2.307854260553    -0.548208712641    12.000000000000
         C            2.705133864354    -1.561213739447     0.330254287359    12.000000000000
         C            3.522976864354    -0.446417739447     0.144282287359    12.000000000000
         H           -2.751731135646     0.289766260553    -1.762299712641     1.007825032230
         H           -3.407261135646    -1.367329739447    -1.580317712641     1.007825032230
         H           -3.214901135646     1.070911260553     1.856286287359     1.007825032230
         H           -2.649677135646     1.761531260553     0.303528287359     1.007825032230
         H           -1.426814135646    -2.034752339447    -0.226386112641     1.007825032230
         H           -0.876849135646    -1.341840739447    -1.709821712641     1.007825032230
         H           -0.687249135646     1.103896260553     1.651452287359     1.007825032230
         H           -1.308613135646    -0.543234739447     1.843117287359     1.007825032230
         H           -4.415615135646     0.185173260553    -0.039200712641     1.007825032230
         H           -3.594542135646    -0.999205739447     0.758575287359     1.007825032230
         H            0.685359864354    -2.291044739447     0.409667287359     1.007825032230
         H            3.599199864354     1.659733260553    -0.288417712641     1.007825032230
         H            0.172062864354     2.218254260553    -1.290644712641     1.007825032230
         H            0.541203864354     2.783250260553     0.342669287359     1.007825032230
         H            1.735182864354     2.982372260553    -0.937644712641     1.007825032230
         H            3.140521864354    -2.533030739447     0.547020287359     1.007825032230
         H            4.603334864354    -0.545952739447     0.205670287359     1.007825032230

  Basis Set: AUG-CC-PVTZ
    Blend: AUG-CC-PVTZ
  Basis Set: (AUG-CC-PVTZ AUX)
    Blend: AUG-CC-PVTZ-JKFIT
	 Reference Energy          =    -535.3082144129641620 [Eh]
	 Singles Energy            =      -0.0000000000000000 [Eh]
	 Same-Spin Energy          =      -0.5852918755206314 [Eh]
	 Opposite-Spin Energy      =      -1.9171289480925586 [Eh]
	 Correlation Energy        =      -2.5024208236131900 [Eh]
	 Total Energy              =    -537.8106352365773546 [Eh]

	 ================> DF-SCS-MP2 Energies <==================
	-----------------------------------------------------------
	 SCS Same-Spin Scale       =       0.3333333333333333 [-]
	 SCS Opposite-Spin Scale   =       1.2000000000000000 [-]
	 SCS Same-Spin Energy      =      -0.1950972918402105 [Eh]
	 SCS Opposite-Spin Energy  =      -2.3005547377110704 [Eh]
	 SCS Correlation Energy    =      -2.4956520295512807 [Eh]
	 SCS Total Energy          =    -537.8038664425154138 [Eh]
	-----------------------------------------------------------

  Dipole Moment: [D]
     X:   -12.0944      Y:    -0.7029      Z:     0.7325     Total:    12.1370

*** Psi4 exiting successfully. Buy a developer a beer!
