                               Psi4 1.4a3.dev225

  ==> Input File <==

--------------------------------------------------------------------------
#psi4
#
memory 32 gb

molecule  {
1 1
  N       -3.4197460    -0.1817000     0.1602720
  N       -0.6214370    -0.0078370    -0.1287630
  C       -2.7377630    -0.6049400    -1.1216890
  C       -2.6265040     0.8533270     0.9259500
  C       -1.3397990    -1.0900720    -0.7822260
  C       -1.2267490     0.3141230     1.1574790
  C        0.8091060    -0.1845140    -0.0397240
  C        1.6179690     0.9496740    -0.2359790
  C        1.3698700    -1.4337860     0.2499420
  C        3.0044760     0.7849240    -0.1342920
  C        1.0196790     2.2951990    -0.5492200
  C        2.7558540    -1.5738690     0.3292430
  C        3.5736970    -0.4590730     0.1432710
  H       -2.7010110     0.2771110    -1.7633110
  H       -3.3565410    -1.3799850    -1.5813290
  H       -3.1641810     1.0582560     1.8552750
  H       -2.5989570     1.7488760     0.3025170
  H       -1.4126900    -2.0099640    -0.1705650
  H       -0.8261290    -1.3544960    -1.7108330
  H       -0.6365290     1.0912410     1.6504410
  H       -1.2522689    -0.3987803     1.7184739
  H       -4.3648950     0.1725180    -0.0402120
  H       -3.5438220    -1.0118610     0.7575640
  H        0.7360800    -2.3037000     0.4086560
  H        3.6499200     1.6470780    -0.2894290
  H        0.2227830     2.2055990    -1.2916560
  H        0.5919240     2.7705950     0.3416580
  H        1.7859030     2.9697170    -0.9386560
  H        3.1912420    -2.5456860     0.5460090
  H        4.6540550    -0.5586080     0.2046590
units angstrom
no_reorient  #important for SAPT in psi4, default
symmetry c1  #important for SAPT in psi4, default
}

set PROPERTIES_ORIGIN ["COM"]
properties('MP2/aug-cc-pvtz', properties = ['dipole'])
--------------------------------------------------------------------------

    Molecular point group: c1
  Charge       = 1
  Multiplicity = 1
  Basis Set: AUG-CC-PVTZ
    Blend: AUG-CC-PVTZ
  Basis Set: (AUG-CC-PVTZ AUX)
    Blend: AUG-CC-PVTZ-JKFIT

    Orbital Energies [Eh]
    ---------------------

    Doubly Occupied:

       1A    -15.866927     2A    -15.699768     3A    -11.456632
       4A    -11.455478     5A    -11.417249     6A    -11.393341
       7A    -11.374630     8A    -11.343715     9A    -11.339678
      10A    -11.331500    11A    -11.329504    12A    -11.328175
      13A    -11.322875    14A     -1.497969    15A     -1.390831
      16A     -1.250141    17A     -1.226463    18A     -1.156958
      19A     -1.142476    20A     -1.087570    21A     -1.063874
      22A     -1.031677    23A     -1.004988    24A     -0.938552
      25A     -0.925523    26A     -0.902841    27A     -0.872980
      28A     -0.834165    29A     -0.812651    30A     -0.794878
      31A     -0.788730    32A     -0.754459    33A     -0.744622
      34A     -0.733972    35A     -0.716745    36A     -0.711505
      37A     -0.695941    38A     -0.674549    39A     -0.669126
      40A     -0.660364    41A     -0.655304    42A     -0.639857
      43A     -0.600269    44A     -0.591089    45A     -0.587642
      46A     -0.522387    47A     -0.433045    48A     -0.422867

  @DF-RHF Final Energy:  -535.27889769203614

   => Energetics <=

    Nuclear Repulsion Energy =            821.4740587472225570
    One-Electron Energy =               -2341.1129474526342165
    Two-Electron Energy =                 984.3599910133756339
    Total Energy =                       -535.2788976920361392
  Basis Set: (AUG-CC-PVTZ AUX)
    Blend: AUG-CC-PVTZ-RI
    Molecular point group: c1

    Geometry (in Angstrom), charge = 1, multiplicity = 1:

       Center              X                  Y                   Z               Mass
    ------------   -----------------  -----------------  -----------------  -----------------
         N           -3.470289922472    -0.170151641336     0.161663341124    14.003074004430
         N           -0.671980922472     0.003711358664    -0.127371658876    14.003074004430
         C           -2.788306922472    -0.593391641336    -1.120297658876    12.000000000000
         C           -2.677047922472     0.864875358664     0.927341341124    12.000000000000
         C           -1.390342922472    -1.078523641336    -0.780834658876    12.000000000000
         C           -1.277292922472     0.325671358664     1.158870341124    12.000000000000
         C            0.758562077528    -0.172965641336    -0.038332658876    12.000000000000
         C            1.567425077528     0.961222358664    -0.234587658876    12.000000000000
         C            1.319326077528    -1.422237641336     0.251333341124    12.000000000000
         C            2.953932077528     0.796472358664    -0.132900658876    12.000000000000
         C            0.969135077528     2.306747358664    -0.547828658876    12.000000000000
         C            2.705310077528    -1.562320641336     0.330634341124    12.000000000000
         C            3.523153077528    -0.447524641336     0.144662341124    12.000000000000
         H           -2.751554922472     0.288659358664    -1.761919658876     1.007825032230
         H           -3.407084922472    -1.368436641336    -1.579937658876     1.007825032230
         H           -3.214724922472     1.069804358664     1.856666341124     1.007825032230
         H           -2.649500922472     1.760424358664     0.303908341124     1.007825032230
         H           -1.463233922472    -1.998415641336    -0.169173658876     1.007825032230
         H           -0.876672922472    -1.342947641336    -1.709441658876     1.007825032230
         H           -0.687072922472     1.102789358664     1.651832341124     1.007825032230
         H           -1.302812822472    -0.387231941336     1.719865241124     1.007825032230
         H           -4.415438922472     0.184066358664    -0.038820658876     1.007825032230
         H           -3.594365922472    -1.000312641336     0.758955341124     1.007825032230
         H            0.685536077528    -2.292151641336     0.410047341124     1.007825032230
         H            3.599376077528     1.658626358664    -0.288037658876     1.007825032230
         H            0.172239077528     2.217147358664    -1.290264658876     1.007825032230
         H            0.541380077528     2.782143358664     0.343049341124     1.007825032230
         H            1.735359077528     2.981265358664    -0.937264658876     1.007825032230
         H            3.140698077528    -2.534137641336     0.547400341124     1.007825032230
         H            4.603511077528    -0.547059641336     0.206050341124     1.007825032230

  Basis Set: AUG-CC-PVTZ
    Blend: AUG-CC-PVTZ
  Basis Set: (AUG-CC-PVTZ AUX)
    Blend: AUG-CC-PVTZ-JKFIT
	 Reference Energy          =    -535.2788976920361392 [Eh]
	 Singles Energy            =      -0.0000000000000000 [Eh]
	 Same-Spin Energy          =      -0.5849239029766752 [Eh]
	 Opposite-Spin Energy      =      -1.9160376947973576 [Eh]
	 Correlation Energy        =      -2.5009615977740327 [Eh]
	 Total Energy              =    -537.7798592898101333 [Eh]

	 ================> DF-SCS-MP2 Energies <==================
	-----------------------------------------------------------
	 SCS Same-Spin Scale       =       0.3333333333333333 [-]
	 SCS Opposite-Spin Scale   =       1.2000000000000000 [-]
	 SCS Same-Spin Energy      =      -0.1949746343255584 [Eh]
	 SCS Opposite-Spin Energy  =      -2.2992452337568290 [Eh]
	 SCS Correlation Energy    =      -2.4942198680823875 [Eh]
	 SCS Total Energy          =    -537.7731175601185214 [Eh]
	-----------------------------------------------------------

  Dipole Moment: [D]
     X:   -12.1787      Y:    -0.7405      Z:     0.8353     Total:    12.2297

*** Psi4 exiting successfully. Buy a developer a beer!
