                               Psi4 1.4a3.dev225

  ==> Input File <==

--------------------------------------------------------------------------
#psi4
#
memory 32 gb

molecule  {
1 1
  N       -3.4197460    -0.1817000     0.1602720
  N       -0.6214370    -0.0078370    -0.1287630
  C       -2.7377630    -0.6049400    -1.1216890
  C       -2.6265040     0.8533270     0.9259500
  C       -1.2477178    -1.1220267    -0.7598662
  C       -1.2267490     0.3141230     1.1574790
  C        0.8091060    -0.1845140    -0.0397240
  C        1.6179690     0.9496740    -0.2359790
  C        1.3698700    -1.4337860     0.2499420
  C        3.0044760     0.7849240    -0.1342920
  C        1.0196790     2.2951990    -0.5492200
  C        2.7558540    -1.5738690     0.3292430
  C        3.5736970    -0.4590730     0.1432710
  H       -2.7010110     0.2771110    -1.7633110
  H       -3.3565410    -1.3799850    -1.5813290
  H       -3.1641810     1.0582560     1.8552750
  H       -2.5989570     1.7488760     0.3025170
  H       -1.4126900    -2.0099640    -0.1705650
  H       -0.8261290    -1.3544960    -1.7108330
  H       -0.6365290     1.0912410     1.6504410
  H       -1.2578930    -0.5558900     1.8421060
  H       -4.3648950     0.1725180    -0.0402120
  H       -3.5438220    -1.0118610     0.7575640
  H        0.7360800    -2.3037000     0.4086560
  H        3.6499200     1.6470780    -0.2894290
  H        0.2227830     2.2055990    -1.2916560
  H        0.5919240     2.7705950     0.3416580
  H        1.7859030     2.9697170    -0.9386560
  H        3.1912420    -2.5456860     0.5460090
  H        4.6540550    -0.5586080     0.2046590
units angstrom
no_reorient  #important for SAPT in psi4, default
symmetry c1  #important for SAPT in psi4, default
}

set PROPERTIES_ORIGIN ["COM"]
properties('MP2/aug-cc-pvtz', properties = ['dipole'])
--------------------------------------------------------------------------

    Molecular point group: c1
  Charge       = 1
  Multiplicity = 1
  Basis Set: AUG-CC-PVTZ
    Blend: AUG-CC-PVTZ
  Basis Set: (AUG-CC-PVTZ AUX)
    Blend: AUG-CC-PVTZ-JKFIT

    Orbital Energies [Eh]
    ---------------------

    Doubly Occupied:

       1A    -15.865203     2A    -15.704937     3A    -11.456517
       4A    -11.454217     5A    -11.419504     6A    -11.418506
       7A    -11.375068     8A    -11.344561     9A    -11.340779
      10A    -11.332504    11A    -11.330353    12A    -11.329012
      13A    -11.324176    14A     -1.494131    15A     -1.398219
      16A     -1.250137    17A     -1.214145    18A     -1.152178
      19A     -1.139931    20A     -1.086733    21A     -1.058865
      22A     -1.032478    23A     -0.996523    24A     -0.934910
      25A     -0.923961    26A     -0.903758    27A     -0.867869
      28A     -0.821258    29A     -0.810498    30A     -0.799395
      31A     -0.790321    32A     -0.755972    33A     -0.744153
      34A     -0.729445    35A     -0.708778    36A     -0.704890
      37A     -0.691244    38A     -0.676035    39A     -0.671919
      40A     -0.666998    41A     -0.642296    42A     -0.641103
      43A     -0.601292    44A     -0.591095    45A     -0.588442
      46A     -0.525457    47A     -0.433918    48A     -0.423779

  @DF-RHF Final Energy:  -535.30055963468669

   => Energetics <=

    Nuclear Repulsion Energy =            820.2949527190163508
    One-Electron Energy =               -2338.8560943899487938
    Two-Electron Energy =                 983.2605820362458644
    Total Energy =                       -535.3005596346866923
  Basis Set: (AUG-CC-PVTZ AUX)
    Blend: AUG-CC-PVTZ-RI
    Molecular point group: c1

    Geometry (in Angstrom), charge = 1, multiplicity = 1:

       Center              X                  Y                   Z               Mass
    ------------   -----------------  -----------------  -----------------  -----------------
         N           -3.476495812841    -0.167093054815     0.159445214454    14.003074004430
         N           -0.678186812841     0.006769945185    -0.129589785546    14.003074004430
         C           -2.794512812841    -0.590333054815    -1.122515785546    12.000000000000
         C           -2.683253812841     0.867933945185     0.925123214454    12.000000000000
         C           -1.304467612841    -1.107419754815    -0.760692985546    12.000000000000
         C           -1.283498812841     0.328729945185     1.156652214454    12.000000000000
         C            0.752356187159    -0.169907054815    -0.040550785546    12.000000000000
         C            1.561219187159     0.964280945185    -0.236805785546    12.000000000000
         C            1.313120187159    -1.419179054815     0.249115214454    12.000000000000
         C            2.947726187159     0.799530945185    -0.135118785546    12.000000000000
         C            0.962929187159     2.309805945185    -0.550046785546    12.000000000000
         C            2.699104187159    -1.559262054815     0.328416214454    12.000000000000
         C            3.516947187159    -0.444466054815     0.142444214454    12.000000000000
         H           -2.757760812841     0.291717945185    -1.764137785546     1.007825032230
         H           -3.413290812841    -1.365378054815    -1.582155785546     1.007825032230
         H           -3.220930812841     1.072862945185     1.854448214454     1.007825032230
         H           -2.655706812841     1.763482945185     0.301690214454     1.007825032230
         H           -1.469439812841    -1.995357054815    -0.171391785546     1.007825032230
         H           -0.882878812841    -1.339889054815    -1.711659785546     1.007825032230
         H           -0.693278812841     1.105847945185     1.649614214454     1.007825032230
         H           -1.314642812841    -0.541283054815     1.841279214454     1.007825032230
         H           -4.421644812841     0.187124945185    -0.041038785546     1.007825032230
         H           -3.600571812841    -0.997254054815     0.756737214454     1.007825032230
         H            0.679330187159    -2.289093054815     0.407829214454     1.007825032230
         H            3.593170187159     1.661684945185    -0.290255785546     1.007825032230
         H            0.166033187159     2.220205945185    -1.292482785546     1.007825032230
         H            0.535174187159     2.785201945185     0.340831214454     1.007825032230
         H            1.729153187159     2.984323945185    -0.939482785546     1.007825032230
         H            3.134492187159    -2.531079054815     0.545182214454     1.007825032230
         H            4.597305187159    -0.544001054815     0.203832214454     1.007825032230

  Basis Set: AUG-CC-PVTZ
    Blend: AUG-CC-PVTZ
  Basis Set: (AUG-CC-PVTZ AUX)
    Blend: AUG-CC-PVTZ-JKFIT
	 Reference Energy          =    -535.3005596346866923 [Eh]
	 Singles Energy            =      -0.0000000000000000 [Eh]
	 Same-Spin Energy          =      -0.5852436796635638 [Eh]
	 Opposite-Spin Energy      =      -1.9176023204864883 [Eh]
	 Correlation Energy        =      -2.5028460001500523 [Eh]
	 Total Energy              =    -537.8034056348367358 [Eh]

	 ================> DF-SCS-MP2 Energies <==================
	-----------------------------------------------------------
	 SCS Same-Spin Scale       =       0.3333333333333333 [-]
	 SCS Opposite-Spin Scale   =       1.2000000000000000 [-]
	 SCS Same-Spin Energy      =      -0.1950812265545213 [Eh]
	 SCS Opposite-Spin Energy  =      -2.3011227845837858 [Eh]
	 SCS Correlation Energy    =      -2.4962040111383073 [Eh]
	 SCS Total Energy          =    -537.7967636458249672 [Eh]
	-----------------------------------------------------------

  Dipole Moment: [D]
     X:   -12.0254      Y:    -0.6704      Z:     0.8211     Total:    12.0720

*** Psi4 exiting successfully. Buy a developer a beer!
