                               Psi4 1.4a3.dev225

  ==> Input File <==

--------------------------------------------------------------------------
#psi4
#
memory 32 gb

molecule  {
1 1
  N       -3.4197460    -0.1817000     0.1602720
  N       -0.6214370    -0.0078370    -0.1287630
  C       -2.7377630    -0.6049400    -1.1216890
  C       -2.6265040     0.8533270     0.9259500
  C       -1.3397990    -1.0900720    -0.7822260
  C       -1.2267490     0.3141230     1.1574790
  C        0.8091060    -0.1845140    -0.0397240
  C        1.6179690     0.9496740    -0.2359790
  C        1.3698700    -1.4337860     0.2499420
  C        3.0044760     0.7849240    -0.1342920
  C        1.0196790     2.2951990    -0.5492200
  C        2.7558540    -1.5738690     0.3292430
  C        3.5736970    -0.4590730     0.1432710
  H       -2.7010110     0.2771110    -1.7633110
  H       -3.3565410    -1.3799850    -1.5813290
  H       -3.1641810     1.0582560     1.8552750
  H       -2.5989570     1.7488760     0.3025170
  H       -1.4126900    -2.0099640    -0.1705650
  H       -0.8261290    -1.3544960    -1.7108330
  H       -0.6365290     1.0912410     1.6504410
  H       -1.2578930    -0.5558900     1.8421060
  H       -4.3648950     0.1725180    -0.0402120
  H       -3.5438220    -1.0118610     0.7575640
  H        0.7360800    -2.3037000     0.4086560
  H        3.6499200     1.6470780    -0.2894290
  H        0.2227830     2.2055990    -1.2916560
  H        0.5919240     2.7705950     0.3416580
  H        1.7859030     2.9697170    -0.9386560
  H        3.1111138    -2.3668341     0.5061157
  H        4.6540550    -0.5586080     0.2046590
units angstrom
no_reorient  #important for SAPT in psi4, default
symmetry c1  #important for SAPT in psi4, default
}

set PROPERTIES_ORIGIN ["COM"]
properties('MP2/aug-cc-pvtz', properties = ['dipole'])
--------------------------------------------------------------------------

    Molecular point group: c1
  Charge       = 1
  Multiplicity = 1
  Basis Set: AUG-CC-PVTZ
    Blend: AUG-CC-PVTZ
  Basis Set: (AUG-CC-PVTZ AUX)
    Blend: AUG-CC-PVTZ-JKFIT

    Orbital Energies [Eh]
    ---------------------

    Doubly Occupied:

       1A    -15.866514     2A    -15.702636     3A    -11.456674
       4A    -11.456626     5A    -11.417366     6A    -11.417074
       7A    -11.374442     8A    -11.344318     9A    -11.339301
      10A    -11.329113    11A    -11.327839    12A    -11.323440
      13A    -11.308451    14A     -1.497404    15A     -1.389930
      16A     -1.250937    17A     -1.221708    18A     -1.159535
      19A     -1.144408    20A     -1.087550    21A     -1.053588
      22A     -1.039767    23A     -0.996857    24A     -0.936219
      25A     -0.924232    26A     -0.914195    27A     -0.871092
      28A     -0.824572    29A     -0.822646    30A     -0.794299
      31A     -0.788827    32A     -0.755039    33A     -0.745195
      34A     -0.734609    35A     -0.723209    36A     -0.708873
      37A     -0.688606    38A     -0.680432    39A     -0.673784
      40A     -0.660162    41A     -0.655996    42A     -0.640207
      43A     -0.605549    44A     -0.591033    45A     -0.588008
      46A     -0.521976    47A     -0.432943    48A     -0.423379

  @DF-RHF Final Energy:  -535.27401937495654

   => Energetics <=

    Nuclear Repulsion Energy =            821.5151114485558992
    One-Electron Energy =               -2341.1571475322548395
    Two-Electron Energy =                 984.3680167087424024
    Total Energy =                       -535.2740193749565378
  Basis Set: (AUG-CC-PVTZ AUX)
    Blend: AUG-CC-PVTZ-RI
    Molecular point group: c1

    Geometry (in Angstrom), charge = 1, multiplicity = 1:

       Center              X                  Y                   Z               Mass
    ------------   -----------------  -----------------  -----------------  -----------------
         N           -3.469802038777    -0.170275342564     0.161186913143    14.003074004430
         N           -0.671493038777     0.003587657436    -0.127848086857    14.003074004430
         C           -2.787819038777    -0.593515342564    -1.120774086857    12.000000000000
         C           -2.676560038777     0.864751657436     0.926864913143    12.000000000000
         C           -1.389855038777    -1.078647342564    -0.781311086857    12.000000000000
         C           -1.276805038777     0.325547657436     1.158393913143    12.000000000000
         C            0.759049961223    -0.173089342564    -0.038809086857    12.000000000000
         C            1.567912961223     0.961098657436    -0.235064086857    12.000000000000
         C            1.319813961223    -1.422361342564     0.250856913143    12.000000000000
         C            2.954419961223     0.796348657436    -0.133377086857    12.000000000000
         C            0.969622961223     2.306623657436    -0.548305086857    12.000000000000
         C            2.705797961223    -1.562444342564     0.330157913143    12.000000000000
         C            3.523640961223    -0.447648342564     0.144185913143    12.000000000000
         H           -2.751067038777     0.288535657436    -1.762396086857     1.007825032230
         H           -3.406597038777    -1.368560342564    -1.580414086857     1.007825032230
         H           -3.214237038777     1.069680657436     1.856189913143     1.007825032230
         H           -2.649013038777     1.760300657436     0.303431913143     1.007825032230
         H           -1.462746038777    -1.998539342564    -0.169650086857     1.007825032230
         H           -0.876185038777    -1.343071342564    -1.709918086857     1.007825032230
         H           -0.686585038777     1.102665657436     1.651355913143     1.007825032230
         H           -1.307949038777    -0.544465342564     1.843020913143     1.007825032230
         H           -4.414951038777     0.183942657436    -0.039297086857     1.007825032230
         H           -3.593878038777    -1.000436342564     0.758478913143     1.007825032230
         H            0.686023961223    -2.292275342564     0.409570913143     1.007825032230
         H            3.599863961223     1.658502657436    -0.288514086857     1.007825032230
         H            0.172726961223     2.217023657436    -1.290741086857     1.007825032230
         H            0.541867961223     2.782019657436     0.342572913143     1.007825032230
         H            1.735846961223     2.981141657436    -0.937741086857     1.007825032230
         H            3.061057761223    -2.355409442564     0.507030613143     1.007825032230
         H            4.603998961223    -0.547183342564     0.205573913143     1.007825032230

  Basis Set: AUG-CC-PVTZ
    Blend: AUG-CC-PVTZ
  Basis Set: (AUG-CC-PVTZ AUX)
    Blend: AUG-CC-PVTZ-JKFIT
	 Reference Energy          =    -535.2740193749565378 [Eh]
	 Singles Energy            =      -0.0000000000000000 [Eh]
	 Same-Spin Energy          =      -0.5851081923540485 [Eh]
	 Opposite-Spin Energy      =      -1.9166150060918115 [Eh]
	 Correlation Energy        =      -2.5017231984458599 [Eh]
	 Total Energy              =    -537.7757425734024537 [Eh]

	 ================> DF-SCS-MP2 Energies <==================
	-----------------------------------------------------------
	 SCS Same-Spin Scale       =       0.3333333333333333 [-]
	 SCS Opposite-Spin Scale   =       1.2000000000000000 [-]
	 SCS Same-Spin Energy      =      -0.1950360641180162 [Eh]
	 SCS Opposite-Spin Energy  =      -2.2999380073101738 [Eh]
	 SCS Correlation Energy    =      -2.4949740714281901 [Eh]
	 SCS Total Energy          =    -537.7689934463846839 [Eh]
	-----------------------------------------------------------

  Dipole Moment: [D]
     X:   -12.0969      Y:    -0.6923      Z:     0.7336     Total:    12.1389

*** Psi4 exiting successfully. Buy a developer a beer!
