                               Psi4 1.4a3.dev225

  ==> Input File <==

--------------------------------------------------------------------------
#psi4
#
memory 32 gb

molecule  {
1 1
  N       -3.4197460    -0.1817000     0.1602720
  N       -0.6214370    -0.0078370    -0.1287630
  C       -2.7377630    -0.6049400    -1.1216890
  C       -2.6265040     0.8533270     0.9259500
  C       -1.3397990    -1.0900720    -0.7822260
  C       -1.2701340     0.2368044     1.2154685
  C        0.8091060    -0.1845140    -0.0397240
  C        1.6179690     0.9496740    -0.2359790
  C        1.3698700    -1.4337860     0.2499420
  C        3.0044760     0.7849240    -0.1342920
  C        1.0196790     2.2951990    -0.5492200
  C        2.7558540    -1.5738690     0.3292430
  C        3.5736970    -0.4590730     0.1432710
  H       -2.7010110     0.2771110    -1.7633110
  H       -3.3565410    -1.3799850    -1.5813290
  H       -3.1641810     1.0582560     1.8552750
  H       -2.5989570     1.7488760     0.3025170
  H       -1.4126900    -2.0099640    -0.1705650
  H       -0.8261290    -1.3544960    -1.7108330
  H       -0.6365290     1.0912410     1.6504410
  H       -1.2578930    -0.5558900     1.8421060
  H       -4.3648950     0.1725180    -0.0402120
  H       -3.5438220    -1.0118610     0.7575640
  H        0.7360800    -2.3037000     0.4086560
  H        3.6499200     1.6470780    -0.2894290
  H        0.2227830     2.2055990    -1.2916560
  H        0.5919240     2.7705950     0.3416580
  H        1.7859030     2.9697170    -0.9386560
  H        3.1912420    -2.5456860     0.5460090
  H        4.6540550    -0.5586080     0.2046590
units angstrom
no_reorient  #important for SAPT in psi4, default
symmetry c1  #important for SAPT in psi4, default
}

set PROPERTIES_ORIGIN ["COM"]
properties('MP2/aug-cc-pvtz', properties = ['dipole'])
--------------------------------------------------------------------------

    Molecular point group: c1
  Charge       = 1
  Multiplicity = 1
  Basis Set: AUG-CC-PVTZ
    Blend: AUG-CC-PVTZ
  Basis Set: (AUG-CC-PVTZ AUX)
    Blend: AUG-CC-PVTZ-JKFIT

    Orbital Energies [Eh]
    ---------------------

    Doubly Occupied:

       1A    -15.865476     2A    -15.703516     3A    -11.458913
       4A    -11.455768     5A    -11.415641     6A    -11.415231
       7A    -11.373982     8A    -11.343870     9A    -11.339679
      10A    -11.331448    11A    -11.329489    12A    -11.328274
      13A    -11.322752    14A     -1.497106    15A     -1.380842
      16A     -1.248867    17A     -1.221285    18A     -1.155252
      19A     -1.141907    20A     -1.086200    21A     -1.050941
      22A     -1.031338    23A     -1.001120    24A     -0.936171
      25A     -0.922286    26A     -0.902212    27A     -0.870148
      28A     -0.828714    29A     -0.810208    30A     -0.788636
      31A     -0.779743    32A     -0.752278    33A     -0.744494
      34A     -0.732831    35A     -0.720031    36A     -0.709066
      37A     -0.695552    38A     -0.674145    39A     -0.668504
      40A     -0.652010    41A     -0.644925    42A     -0.637978
      43A     -0.600783    44A     -0.590817    45A     -0.586328
      46A     -0.524789    47A     -0.433130    48A     -0.423111

  @DF-RHF Final Energy:  -535.29521991354147

   => Energetics <=

    Nuclear Repulsion Energy =            819.3232467298781785
    One-Electron Energy =               -2336.9813520359630274
    Two-Electron Energy =                 982.3628853925434896
    Total Energy =                       -535.2952199135414730
  Basis Set: (AUG-CC-PVTZ AUX)
    Blend: AUG-CC-PVTZ-RI
    Molecular point group: c1

    Geometry (in Angstrom), charge = 1, multiplicity = 1:

       Center              X                  Y                   Z               Mass
    ------------   -----------------  -----------------  -----------------  -----------------
         N           -3.467318879431    -0.164019952525     0.157031539424    14.003074004430
         N           -0.669009879431     0.009843047475    -0.132003460576    14.003074004430
         C           -2.785335879431    -0.587259952525    -1.124929460576    12.000000000000
         C           -2.674076879431     0.871007047475     0.922709539424    12.000000000000
         C           -1.387371879431    -1.072391952525    -0.785466460576    12.000000000000
         C           -1.317706879431     0.254484447475     1.212228039424    12.000000000000
         C            0.761533120569    -0.166833952525    -0.042964460576    12.000000000000
         C            1.570396120569     0.967354047475    -0.239219460576    12.000000000000
         C            1.322297120569    -1.416105952525     0.246701539424    12.000000000000
         C            2.956903120569     0.802604047475    -0.137532460576    12.000000000000
         C            0.972106120569     2.312879047475    -0.552460460576    12.000000000000
         C            2.708281120569    -1.556188952525     0.326002539424    12.000000000000
         C            3.526124120569    -0.441392952525     0.140030539424    12.000000000000
         H           -2.748583879431     0.294791047475    -1.766551460576     1.007825032230
         H           -3.404113879431    -1.362304952525    -1.584569460576     1.007825032230
         H           -3.211753879431     1.075936047475     1.852034539424     1.007825032230
         H           -2.646529879431     1.766556047475     0.299276539424     1.007825032230
         H           -1.460262879431    -1.992283952525    -0.173805460576     1.007825032230
         H           -0.873701879431    -1.336815952525    -1.714073460576     1.007825032230
         H           -0.684101879431     1.108921047475     1.647200539424     1.007825032230
         H           -1.305465879431    -0.538209952525     1.838865539424     1.007825032230
         H           -4.412467879431     0.190198047475    -0.043452460576     1.007825032230
         H           -3.591394879431    -0.994180952525     0.754323539424     1.007825032230
         H            0.688507120569    -2.286019952525     0.405415539424     1.007825032230
         H            3.602347120569     1.664758047475    -0.292669460576     1.007825032230
         H            0.175210120569     2.223279047475    -1.294896460576     1.007825032230
         H            0.544351120569     2.788275047475     0.338417539424     1.007825032230
         H            1.738330120569     2.987397047475    -0.941896460576     1.007825032230
         H            3.143669120569    -2.528005952525     0.542768539424     1.007825032230
         H            4.606482120569    -0.540927952525     0.201418539424     1.007825032230

  Basis Set: AUG-CC-PVTZ
    Blend: AUG-CC-PVTZ
  Basis Set: (AUG-CC-PVTZ AUX)
    Blend: AUG-CC-PVTZ-JKFIT
	 Reference Energy          =    -535.2952199135414730 [Eh]
	 Singles Energy            =      -0.0000000000000000 [Eh]
	 Same-Spin Energy          =      -0.5853928779857088 [Eh]
	 Opposite-Spin Energy      =      -1.9181960634858883 [Eh]
	 Correlation Energy        =      -2.5035889414715973 [Eh]
	 Total Energy              =    -537.7988088550130215 [Eh]

	 ================> DF-SCS-MP2 Energies <==================
	-----------------------------------------------------------
	 SCS Same-Spin Scale       =       0.3333333333333333 [-]
	 SCS Opposite-Spin Scale   =       1.2000000000000000 [-]
	 SCS Same-Spin Energy      =      -0.1951309593285696 [Eh]
	 SCS Opposite-Spin Energy  =      -2.3018352761830658 [Eh]
	 SCS Correlation Energy    =      -2.4969662355116355 [Eh]
	 SCS Total Energy          =    -537.7921861490531228 [Eh]
	-----------------------------------------------------------

  Dipole Moment: [D]
     X:   -12.1372      Y:    -0.7197      Z:     0.8477     Total:    12.1880

*** Psi4 exiting successfully. Buy a developer a beer!
