                               Psi4 1.4a3.dev225

  ==> Input File <==

--------------------------------------------------------------------------
#psi4
#
memory 32 gb

molecule  {
1 1
  N       -3.4197460    -0.1817000     0.1602720
  N       -0.6214370    -0.0078370    -0.1287630
  C       -2.7377630    -0.6049400    -1.1216890
  C       -2.6265040     0.8533270     0.9259500
  C       -1.3397990    -1.0900720    -0.7822260
  C       -1.2267490     0.3141230     1.1574790
  C        0.8091060    -0.1845140    -0.0397240
  C        1.6179690     0.9496740    -0.2359790
  C        1.3698700    -1.4337860     0.2499420
  C        3.0044760     0.7849240    -0.1342920
  C        1.0196790     2.2951990    -0.5492200
  C        2.7558540    -1.5738690     0.3292430
  C        3.5736970    -0.4590730     0.1432710
  H       -2.7043786     0.1962889    -1.7045194
  H       -3.3565410    -1.3799850    -1.5813290
  H       -3.1641810     1.0582560     1.8552750
  H       -2.5989570     1.7488760     0.3025170
  H       -1.4126900    -2.0099640    -0.1705650
  H       -0.8261290    -1.3544960    -1.7108330
  H       -0.6365290     1.0912410     1.6504410
  H       -1.2578930    -0.5558900     1.8421060
  H       -4.3648950     0.1725180    -0.0402120
  H       -3.5438220    -1.0118610     0.7575640
  H        0.7360800    -2.3037000     0.4086560
  H        3.6499200     1.6470780    -0.2894290
  H        0.2227830     2.2055990    -1.2916560
  H        0.5919240     2.7705950     0.3416580
  H        1.7859030     2.9697170    -0.9386560
  H        3.1912420    -2.5456860     0.5460090
  H        4.6540550    -0.5586080     0.2046590
units angstrom
no_reorient  #important for SAPT in psi4, default
symmetry c1  #important for SAPT in psi4, default
}

set PROPERTIES_ORIGIN ["COM"]
properties('MP2/aug-cc-pvtz', properties = ['dipole'])
--------------------------------------------------------------------------

    Molecular point group: c1
  Charge       = 1
  Multiplicity = 1
  Basis Set: AUG-CC-PVTZ
    Blend: AUG-CC-PVTZ
  Basis Set: (AUG-CC-PVTZ AUX)
    Blend: AUG-CC-PVTZ-JKFIT

    Orbital Energies [Eh]
    ---------------------

    Doubly Occupied:

       1A    -15.866227     2A    -15.703228     3A    -11.456930
       4A    -11.446007     5A    -11.417338     6A    -11.417097
       7A    -11.375197     8A    -11.344416     9A    -11.340193
      10A    -11.331808    11A    -11.329894    12A    -11.328629
      13A    -11.323591    14A     -1.498063    15A     -1.390316
      16A     -1.250049    17A     -1.225565    18A     -1.157047
      19A     -1.143550    20A     -1.090106    21A     -1.056183
      22A     -1.032862    23A     -0.999500    24A     -0.935500
      25A     -0.924217    26A     -0.903454    27A     -0.868437
      28A     -0.834224    29A     -0.810380    30A     -0.793749
      31A     -0.788484    32A     -0.755267    33A     -0.746102
      34A     -0.736037    35A     -0.718768    36A     -0.706355
      37A     -0.690751    38A     -0.675322    39A     -0.669582
      40A     -0.660134    41A     -0.655575    42A     -0.640563
      43A     -0.599957    44A     -0.591699    45A     -0.588089
      46A     -0.521653    47A     -0.433565    48A     -0.423518

  @DF-RHF Final Energy:  -535.30298804846745

   => Energetics <=

    Nuclear Repulsion Energy =            820.8046186483271640
    One-Electron Energy =               -2339.8248545088017636
    Two-Electron Energy =                 983.7172478120072583
    Total Energy =                       -535.3029880484674550
  Basis Set: (AUG-CC-PVTZ AUX)
    Blend: AUG-CC-PVTZ-RI
    Molecular point group: c1

    Geometry (in Angstrom), charge = 1, multiplicity = 1:

       Center              X                  Y                   Z               Mass
    ------------   -----------------  -----------------  -----------------  -----------------
         N           -3.470238764616    -0.168797939502     0.160625450026    14.003074004430
         N           -0.671929764616     0.005065060498    -0.128409549974    14.003074004430
         C           -2.788255764616    -0.592037939502    -1.121335549974    12.000000000000
         C           -2.676996764616     0.866229060498     0.926303450026    12.000000000000
         C           -1.390291764616    -1.077169939502    -0.781872549974    12.000000000000
         C           -1.277241764616     0.327025060498     1.157832450026    12.000000000000
         C            0.758613235384    -0.171611939502    -0.039370549974    12.000000000000
         C            1.567476235384     0.962576060498    -0.235625549974    12.000000000000
         C            1.319377235384    -1.420883939502     0.250295450026    12.000000000000
         C            2.953983235384     0.797826060498    -0.133938549974    12.000000000000
         C            0.969186235384     2.308101060498    -0.548866549974    12.000000000000
         C            2.705361235384    -1.560966939502     0.329596450026    12.000000000000
         C            3.523204235384    -0.446170939502     0.143624450026    12.000000000000
         H           -2.754871364616     0.209190960498    -1.704165949974     1.007825032230
         H           -3.407033764616    -1.367082939502    -1.580975549974     1.007825032230
         H           -3.214673764616     1.071158060498     1.855628450026     1.007825032230
         H           -2.649449764616     1.761778060498     0.302870450026     1.007825032230
         H           -1.463182764616    -1.997061939502    -0.170211549974     1.007825032230
         H           -0.876621764616    -1.341593939502    -1.710479549974     1.007825032230
         H           -0.687021764616     1.104143060498     1.650794450026     1.007825032230
         H           -1.308385764616    -0.542987939502     1.842459450026     1.007825032230
         H           -4.415387764616     0.185420060498    -0.039858549974     1.007825032230
         H           -3.594314764616    -0.998958939502     0.757917450026     1.007825032230
         H            0.685587235384    -2.290797939502     0.409009450026     1.007825032230
         H            3.599427235384     1.659980060498    -0.289075549974     1.007825032230
         H            0.172290235384     2.218501060498    -1.291302549974     1.007825032230
         H            0.541431235384     2.783497060498     0.342011450026     1.007825032230
         H            1.735410235384     2.982619060498    -0.938302549974     1.007825032230
         H            3.140749235384    -2.532783939502     0.546362450026     1.007825032230
         H            4.603562235384    -0.545705939502     0.205012450026     1.007825032230

  Basis Set: AUG-CC-PVTZ
    Blend: AUG-CC-PVTZ
  Basis Set: (AUG-CC-PVTZ AUX)
    Blend: AUG-CC-PVTZ-JKFIT
	 Reference Energy          =    -535.3029880484674550 [Eh]
	 Singles Energy            =      -0.0000000000000000 [Eh]
	 Same-Spin Energy          =      -0.5851464552599011 [Eh]
	 Opposite-Spin Energy      =      -1.9165027250697477 [Eh]
	 Correlation Energy        =      -2.5016491803296486 [Eh]
	 Total Energy              =    -537.8046372287971053 [Eh]

	 ================> DF-SCS-MP2 Energies <==================
	-----------------------------------------------------------
	 SCS Same-Spin Scale       =       0.3333333333333333 [-]
	 SCS Opposite-Spin Scale   =       1.2000000000000000 [-]
	 SCS Same-Spin Energy      =      -0.1950488184199670 [Eh]
	 SCS Opposite-Spin Energy  =      -2.2998032700836970 [Eh]
	 SCS Correlation Energy    =      -2.4948520885036638 [Eh]
	 SCS Total Energy          =    -537.7978401369711037 [Eh]
	-----------------------------------------------------------

  Dipole Moment: [D]
     X:   -12.1157      Y:    -0.6886      Z:     0.7388     Total:    12.1577

*** Psi4 exiting successfully. Buy a developer a beer!
