                               Psi4 1.4a3.dev225

  ==> Input File <==

--------------------------------------------------------------------------
#psi4
#
memory 32 gb

molecule  {
1 1
  N       -3.4197460    -0.1817000     0.1602720
  N       -0.6214370    -0.0078370    -0.1287630
  C       -2.7377630    -0.6049400    -1.1216890
  C       -2.6265040     0.8533270     0.9259500
  C       -1.3397990    -1.0900720    -0.7822260
  C       -1.2267490     0.3141230     1.1574790
  C        0.8091060    -0.1845140    -0.0397240
  C        1.6179690     0.9496740    -0.2359790
  C        1.3698700    -1.4337860     0.2499420
  C        3.0044760     0.7849240    -0.1342920
  C        1.0196790     2.2951990    -0.5492200
  C        2.7558540    -1.5738690     0.3292430
  C        3.5736970    -0.4590730     0.1432710
  H       -2.7010110     0.2771110    -1.7633110
  H       -3.3565410    -1.3799850    -1.5813290
  H       -3.1641810     1.0582560     1.8552750
  H       -2.5989570     1.7488760     0.3025170
  H       -1.4126900    -2.0099640    -0.1705650
  H       -0.8261290    -1.3544960    -1.7108330
  H       -0.6365290     1.0912410     1.6504410
  H       -1.2578930    -0.5558900     1.8421060
  H       -4.3648950     0.1725180    -0.0402120
  H       -3.5438220    -1.0118610     0.7575640
  H        0.7360800    -2.3037000     0.4086560
  H        3.6499200     1.6470780    -0.2894290
  H        0.2421097     2.2294492    -1.3142988
  H        0.5919240     2.7705950     0.3416580
  H        1.7859030     2.9697170    -0.9386560
  H        3.1912420    -2.5456860     0.5460090
  H        4.6540550    -0.5586080     0.2046590
units angstrom
no_reorient  #important for SAPT in psi4, default
symmetry c1  #important for SAPT in psi4, default
}

set PROPERTIES_ORIGIN ["COM"]
properties('MP2/aug-cc-pvtz', properties = ['dipole'])
--------------------------------------------------------------------------

    Molecular point group: c1
  Charge       = 1
  Multiplicity = 1
  Basis Set: AUG-CC-PVTZ
    Blend: AUG-CC-PVTZ
  Basis Set: (AUG-CC-PVTZ AUX)
    Blend: AUG-CC-PVTZ-JKFIT

    Orbital Energies [Eh]
    ---------------------

    Doubly Occupied:

       1A    -15.866549     2A    -15.702911     3A    -11.456717
       4A    -11.456672     5A    -11.417459     6A    -11.417182
       7A    -11.375245     8A    -11.344520     9A    -11.340176
      10A    -11.331930    11A    -11.330001    12A    -11.328679
      13A    -11.323528    14A     -1.497448    15A     -1.390128
      16A     -1.249933    17A     -1.221760    18A     -1.155519
      19A     -1.142578    20A     -1.088079    21A     -1.053404
      22A     -1.032065    23A     -0.995992    24A     -0.935425
      25A     -0.924199    26A     -0.903560    27A     -0.867421
      28A     -0.823627    29A     -0.810150    30A     -0.793481
      31A     -0.788387    32A     -0.755096    33A     -0.744423
      34A     -0.734435    35A     -0.714566    36A     -0.704510
      37A     -0.687654    38A     -0.676598    39A     -0.669940
      40A     -0.659947    41A     -0.655947    42A     -0.637631
      43A     -0.599987    44A     -0.591263    45A     -0.588654
      46A     -0.521599    47A     -0.433634    48A     -0.423687

  @DF-RHF Final Energy:  -535.30882999054995

   => Energetics <=

    Nuclear Repulsion Energy =            820.1990190132213456
    One-Electron Energy =               -2338.6871023316530227
    Two-Electron Energy =                 983.1792533278816109
    Total Energy =                       -535.3088299905499525
  Basis Set: (AUG-CC-PVTZ AUX)
    Blend: AUG-CC-PVTZ-RI
    Molecular point group: c1

    Geometry (in Angstrom), charge = 1, multiplicity = 1:

       Center              X                  Y                   Z               Mass
    ------------   -----------------  -----------------  -----------------  -----------------
         N           -3.470367882773    -0.169393467651     0.161088767231    14.003074004430
         N           -0.672058882773     0.004469532349    -0.127946232769    14.003074004430
         C           -2.788384882773    -0.592633467651    -1.120872232769    12.000000000000
         C           -2.677125882773     0.865633532349     0.926766767231    12.000000000000
         C           -1.390420882773    -1.077765467651    -0.781409232769    12.000000000000
         C           -1.277370882773     0.326429532349     1.158295767231    12.000000000000
         C            0.758484117227    -0.172207467651    -0.038907232769    12.000000000000
         C            1.567347117227     0.961980532349    -0.235162232769    12.000000000000
         C            1.319248117227    -1.421479467651     0.250758767231    12.000000000000
         C            2.953854117227     0.797230532349    -0.133475232769    12.000000000000
         C            0.969057117227     2.307505532349    -0.548403232769    12.000000000000
         C            2.705232117227    -1.561562467651     0.330059767231    12.000000000000
         C            3.523075117227    -0.446766467651     0.144087767231    12.000000000000
         H           -2.751632882773     0.289417532349    -1.762494232769     1.007825032230
         H           -3.407162882773    -1.367678467651    -1.580512232769     1.007825032230
         H           -3.214802882773     1.070562532349     1.856091767231     1.007825032230
         H           -2.649578882773     1.761182532349     0.303333767231     1.007825032230
         H           -1.463311882773    -1.997657467651    -0.169748232769     1.007825032230
         H           -0.876750882773    -1.342189467651    -1.710016232769     1.007825032230
         H           -0.687150882773     1.103547532349     1.651257767231     1.007825032230
         H           -1.308514882773    -0.543583467651     1.842922767231     1.007825032230
         H           -4.415516882773     0.184824532349    -0.039395232769     1.007825032230
         H           -3.594443882773    -0.999554467651     0.758380767231     1.007825032230
         H            0.685458117227    -2.291393467651     0.409472767231     1.007825032230
         H            3.599298117227     1.659384532349    -0.288612232769     1.007825032230
         H            0.191487817227     2.241755732349    -1.313482032769     1.007825032230
         H            0.541302117227     2.782901532349     0.342474767231     1.007825032230
         H            1.735281117227     2.982023532349    -0.937839232769     1.007825032230
         H            3.140620117227    -2.533379467651     0.546825767231     1.007825032230
         H            4.603433117227    -0.546301467651     0.205475767231     1.007825032230

  Basis Set: AUG-CC-PVTZ
    Blend: AUG-CC-PVTZ
  Basis Set: (AUG-CC-PVTZ AUX)
    Blend: AUG-CC-PVTZ-JKFIT
	 Reference Energy          =    -535.3088299905499525 [Eh]
	 Singles Energy            =      -0.0000000000000000 [Eh]
	 Same-Spin Energy          =      -0.5852532438949521 [Eh]
	 Opposite-Spin Energy      =      -1.9171069753079197 [Eh]
	 Correlation Energy        =      -2.5023602192028718 [Eh]
	 Total Energy              =    -537.8111902097527945 [Eh]

	 ================> DF-SCS-MP2 Energies <==================
	-----------------------------------------------------------
	 SCS Same-Spin Scale       =       0.3333333333333333 [-]
	 SCS Opposite-Spin Scale   =       1.2000000000000000 [-]
	 SCS Same-Spin Energy      =      -0.1950844146316507 [Eh]
	 SCS Opposite-Spin Energy  =      -2.3005283703695034 [Eh]
	 SCS Correlation Energy    =      -2.4956127850011542 [Eh]
	 SCS Total Energy          =    -537.8044427755511379 [Eh]
	-----------------------------------------------------------

  Dipole Moment: [D]
     X:   -12.0961      Y:    -0.6804      Z:     0.7208     Total:    12.1367

*** Psi4 exiting successfully. Buy a developer a beer!
