                               Psi4 1.4a3.dev225

  ==> Input File <==

--------------------------------------------------------------------------
#psi4
#
memory 32 gb

molecule  {
1 1
  N       -3.4197460    -0.1817000     0.1602720
  N       -0.6214370    -0.0078370    -0.1287630
  C       -2.7377630    -0.6049400    -1.1216890
  C       -2.6265040     0.8533270     0.9259500
  C       -1.3397990    -1.0900720    -0.7822260
  C       -1.2267490     0.3141230     1.1574790
  C        0.8091060    -0.1845140    -0.0397240
  C        1.6179690     0.9496740    -0.2359790
  C        1.3698700    -1.4337860     0.2499420
  C        3.0044760     0.7849240    -0.1342920
  C        1.0196790     2.2951990    -0.5492200
  C        2.7558540    -1.5738690     0.3292430
  C        3.5736970    -0.4590730     0.1432710
  H       -2.7010110     0.2771110    -1.7633110
  H       -3.3565410    -1.3799850    -1.5813290
  H       -3.1641810     1.0582560     1.8552750
  H       -2.5989570     1.7488760     0.3025170
  H       -1.4126900    -2.0099640    -0.1705650
  H       -0.8261290    -1.3544960    -1.7108330
  H       -0.6365290     1.0912410     1.6504410
  H       -1.2578930    -0.5558900     1.8421060
  H       -4.3648950     0.1725180    -0.0402120
  H       -3.5438220    -1.0118610     0.7575640
  H        0.7360800    -2.3037000     0.4086560
  H        3.6499200     1.6470780    -0.2894290
  H        0.2623838     2.2533795    -1.3360095
  H        0.5919240     2.7705950     0.3416580
  H        1.7859030     2.9697170    -0.9386560
  H        3.1912420    -2.5456860     0.5460090
  H        4.6540550    -0.5586080     0.2046590
units angstrom
no_reorient  #important for SAPT in psi4, default
symmetry c1  #important for SAPT in psi4, default
}

set PROPERTIES_ORIGIN ["COM"]
properties('MP2/aug-cc-pvtz', properties = ['dipole'])
--------------------------------------------------------------------------

    Molecular point group: c1
  Charge       = 1
  Multiplicity = 1
  Basis Set: AUG-CC-PVTZ
    Blend: AUG-CC-PVTZ
  Basis Set: (AUG-CC-PVTZ AUX)
    Blend: AUG-CC-PVTZ-JKFIT

    Orbital Energies [Eh]
    ---------------------

    Doubly Occupied:

       1A    -15.866453     2A    -15.702763     3A    -11.456611
       4A    -11.456558     5A    -11.417364     6A    -11.417087
       7A    -11.375311     8A    -11.344648     9A    -11.340157
      10A    -11.332043    11A    -11.330107    12A    -11.328729
      13A    -11.323457    14A     -1.497345    15A     -1.389995
      16A     -1.249937    17A     -1.221649    18A     -1.155423
      19A     -1.142512    20A     -1.088045    21A     -1.053299
      22A     -1.032147    23A     -0.995876    24A     -0.935358
      25A     -0.924122    26A     -0.903765    27A     -0.867359
      28A     -0.823514    29A     -0.810098    30A     -0.793396
      31A     -0.788274    32A     -0.755214    33A     -0.744085
      34A     -0.734295    35A     -0.714538    36A     -0.704493
      37A     -0.687554    38A     -0.678197    39A     -0.670202
      40A     -0.659923    41A     -0.656162    42A     -0.634694
      43A     -0.600022    44A     -0.590749    45A     -0.589168
      46A     -0.521531    47A     -0.433704    48A     -0.423869

  @DF-RHF Final Energy:  -535.30850879915113

   => Energetics <=

    Nuclear Repulsion Energy =            820.1087252382706083
    One-Electron Energy =               -2338.5108697586556445
    Two-Electron Energy =                 983.0936357212339090
    Total Energy =                       -535.3085087991511273
  Basis Set: (AUG-CC-PVTZ AUX)
    Blend: AUG-CC-PVTZ-RI
    Molecular point group: c1

    Geometry (in Angstrom), charge = 1, multiplicity = 1:

       Center              X                  Y                   Z               Mass
    ------------   -----------------  -----------------  -----------------  -----------------
         N           -3.470483231315    -0.169529617972     0.161212289242    14.003074004430
         N           -0.672174231315     0.004333382028    -0.127822710758    14.003074004430
         C           -2.788500231315    -0.592769617972    -1.120748710758    12.000000000000
         C           -2.677241231315     0.865497382028     0.926890289242    12.000000000000
         C           -1.390536231315    -1.077901617972    -0.781285710758    12.000000000000
         C           -1.277486231315     0.326293382028     1.158419289242    12.000000000000
         C            0.758368768685    -0.172343617972    -0.038783710758    12.000000000000
         C            1.567231768685     0.961844382028    -0.235038710758    12.000000000000
         C            1.319132768685    -1.421615617972     0.250882289242    12.000000000000
         C            2.953738768685     0.797094382028    -0.133351710758    12.000000000000
         C            0.968941768685     2.307369382028    -0.548279710758    12.000000000000
         C            2.705116768685    -1.561698617972     0.330183289242    12.000000000000
         C            3.522959768685    -0.446902617972     0.144211289242    12.000000000000
         H           -2.751748231315     0.289281382028    -1.762370710758     1.007825032230
         H           -3.407278231315    -1.367814617972    -1.580388710758     1.007825032230
         H           -3.214918231315     1.070426382028     1.856215289242     1.007825032230
         H           -2.649694231315     1.761046382028     0.303457289242     1.007825032230
         H           -1.463427231315    -1.997793617972    -0.169624710758     1.007825032230
         H           -0.876866231315    -1.342325617972    -1.709892710758     1.007825032230
         H           -0.687266231315     1.103411382028     1.651381289242     1.007825032230
         H           -1.308630231315    -0.543719617972     1.843046289242     1.007825032230
         H           -4.415632231315     0.184688382028    -0.039271710758     1.007825032230
         H           -3.594559231315    -0.999690617972     0.758504289242     1.007825032230
         H            0.685342768685    -2.291529617972     0.409596289242     1.007825032230
         H            3.599182768685     1.659248382028    -0.288488710758     1.007825032230
         H            0.211646568685     2.265549882028    -1.335069210758     1.007825032230
         H            0.541186768685     2.782765382028     0.342598289242     1.007825032230
         H            1.735165768685     2.981887382028    -0.937715710758     1.007825032230
         H            3.140504768685    -2.533515617972     0.546949289242     1.007825032230
         H            4.603317768685    -0.546437617972     0.205599289242     1.007825032230

  Basis Set: AUG-CC-PVTZ
    Blend: AUG-CC-PVTZ
  Basis Set: (AUG-CC-PVTZ AUX)
    Blend: AUG-CC-PVTZ-JKFIT
	 Reference Energy          =    -535.3085087991511273 [Eh]
	 Singles Energy            =      -0.0000000000000000 [Eh]
	 Same-Spin Energy          =      -0.5852279330903958 [Eh]
	 Opposite-Spin Energy      =      -1.9170854679194935 [Eh]
	 Correlation Energy        =      -2.5023134010098893 [Eh]
	 Total Energy              =    -537.8108222001610557 [Eh]

	 ================> DF-SCS-MP2 Energies <==================
	-----------------------------------------------------------
	 SCS Same-Spin Scale       =       0.3333333333333333 [-]
	 SCS Opposite-Spin Scale   =       1.2000000000000000 [-]
	 SCS Same-Spin Energy      =      -0.1950759776967986 [Eh]
	 SCS Opposite-Spin Energy  =      -2.3005025615033921 [Eh]
	 SCS Correlation Energy    =      -2.4955785392001908 [Eh]
	 SCS Total Energy          =    -537.8040873383513372 [Eh]
	-----------------------------------------------------------

  Dipole Moment: [D]
     X:   -12.0856      Y:    -0.6759      Z:     0.7093     Total:    12.1252

*** Psi4 exiting successfully. Buy a developer a beer!
