                               Psi4 1.4a3.dev225

  ==> Input File <==

--------------------------------------------------------------------------
#psi4
#
memory 32 gb

molecule  {
1 1
  N       -3.4197460    -0.1817000     0.1602720
  N       -0.6214370    -0.0078370    -0.1287630
  C       -2.7377630    -0.6049400    -1.1216890
  C       -2.6265040     0.8533270     0.9259500
  C       -1.3397990    -1.0900720    -0.7822260
  C       -1.2267490     0.3141230     1.1574790
  C        0.8091060    -0.1845140    -0.0397240
  C        1.6064699     0.9335499    -0.2331890
  C        1.3698700    -1.4337860     0.2499420
  C        3.0044760     0.7849240    -0.1342920
  C        1.0196790     2.2951990    -0.5492200
  C        2.7558540    -1.5738690     0.3292430
  C        3.5736970    -0.4590730     0.1432710
  H       -2.7010110     0.2771110    -1.7633110
  H       -3.3565410    -1.3799850    -1.5813290
  H       -3.1641810     1.0582560     1.8552750
  H       -2.5989570     1.7488760     0.3025170
  H       -1.4126900    -2.0099640    -0.1705650
  H       -0.8261290    -1.3544960    -1.7108330
  H       -0.6365290     1.0912410     1.6504410
  H       -1.2578930    -0.5558900     1.8421060
  H       -4.3648950     0.1725180    -0.0402120
  H       -3.5438220    -1.0118610     0.7575640
  H        0.7360800    -2.3037000     0.4086560
  H        3.6499200     1.6470780    -0.2894290
  H        0.2227830     2.2055990    -1.2916560
  H        0.5919240     2.7705950     0.3416580
  H        1.7859030     2.9697170    -0.9386560
  H        3.1912420    -2.5456860     0.5460090
  H        4.6540550    -0.5586080     0.2046590
units angstrom
no_reorient  #important for SAPT in psi4, default
symmetry c1  #important for SAPT in psi4, default
}

set PROPERTIES_ORIGIN ["COM"]
properties('MP2/aug-cc-pvtz', properties = ['dipole'])
--------------------------------------------------------------------------

    Molecular point group: c1
  Charge       = 1
  Multiplicity = 1
  Basis Set: AUG-CC-PVTZ
    Blend: AUG-CC-PVTZ
  Basis Set: (AUG-CC-PVTZ AUX)
    Blend: AUG-CC-PVTZ-JKFIT

    Orbital Energies [Eh]
    ---------------------

    Doubly Occupied:

       1A    -15.866609     2A    -15.702831     3A    -11.456796
       4A    -11.456743     5A    -11.417520     6A    -11.417201
       7A    -11.373211     8A    -11.343641     9A    -11.340079
      10A    -11.331993    11A    -11.330810    12A    -11.328744
      13A    -11.323945    14A     -1.497514    15A     -1.390543
      16A     -1.250807    17A     -1.221832    18A     -1.156164
      19A     -1.140706    20A     -1.088539    21A     -1.053470
      22A     -1.031690    23A     -0.995984    24A     -0.936223
      25A     -0.924705    26A     -0.903799    27A     -0.867397
      28A     -0.823703    29A     -0.810142    30A     -0.793759
      31A     -0.788490    32A     -0.754969    33A     -0.744637
      34A     -0.734578    35A     -0.714752    36A     -0.704983
      37A     -0.687679    38A     -0.674530    39A     -0.667903
      40A     -0.659867    41A     -0.655839    42A     -0.640825
      43A     -0.598569    44A     -0.592457    45A     -0.588511
      46A     -0.521782    47A     -0.432846    48A     -0.425297

  @DF-RHF Final Energy:  -535.30877284093287

   => Energetics <=

    Nuclear Repulsion Energy =            820.5446312645798344
    One-Electron Energy =               -2339.3755787067984784
    Two-Electron Energy =                 983.5221746012856556
    Total Energy =                       -535.3087728409328747
  Basis Set: (AUG-CC-PVTZ AUX)
    Blend: AUG-CC-PVTZ-RI
    Molecular point group: c1

    Geometry (in Angstrom), charge = 1, multiplicity = 1:

       Center              X                  Y                   Z               Mass
    ------------   -----------------  -----------------  -----------------  -----------------
         N           -3.469478936929    -0.168165472600     0.160770938151    14.003074004430
         N           -0.671169936929     0.005697527400    -0.128264061849    14.003074004430
         C           -2.787495936929    -0.591405472600    -1.121190061849    12.000000000000
         C           -2.676236936929     0.866861527400     0.926448938151    12.000000000000
         C           -1.389531936929    -1.076537472600    -0.781727061849    12.000000000000
         C           -1.276481936929     0.327657527400     1.157977938151    12.000000000000
         C            0.759373063071    -0.170979472600    -0.039225061849    12.000000000000
         C            1.556736963071     0.947084427400    -0.232690061849    12.000000000000
         C            1.320137063071    -1.420251472600     0.250440938151    12.000000000000
         C            2.954743063071     0.798458527400    -0.133793061849    12.000000000000
         C            0.969946063071     2.308733527400    -0.548721061849    12.000000000000
         C            2.706121063071    -1.560334472600     0.329741938151    12.000000000000
         C            3.523964063071    -0.445538472600     0.143769938151    12.000000000000
         H           -2.750743936929     0.290645527400    -1.762812061849     1.007825032230
         H           -3.406273936929    -1.366450472600    -1.580830061849     1.007825032230
         H           -3.213913936929     1.071790527400     1.855773938151     1.007825032230
         H           -2.648689936929     1.762410527400     0.303015938151     1.007825032230
         H           -1.462422936929    -1.996429472600    -0.170066061849     1.007825032230
         H           -0.875861936929    -1.340961472600    -1.710334061849     1.007825032230
         H           -0.686261936929     1.104775527400     1.650939938151     1.007825032230
         H           -1.307625936929    -0.542355472600     1.842604938151     1.007825032230
         H           -4.414627936929     0.186052527400    -0.039713061849     1.007825032230
         H           -3.593554936929    -0.998326472600     0.758062938151     1.007825032230
         H            0.686347063071    -2.290165472600     0.409154938151     1.007825032230
         H            3.600187063071     1.660612527400    -0.288930061849     1.007825032230
         H            0.173050063071     2.219133527400    -1.291157061849     1.007825032230
         H            0.542191063071     2.784129527400     0.342156938151     1.007825032230
         H            1.736170063071     2.983251527400    -0.938157061849     1.007825032230
         H            3.141509063071    -2.532151472600     0.546507938151     1.007825032230
         H            4.604322063071    -0.545073472600     0.205157938151     1.007825032230

  Basis Set: AUG-CC-PVTZ
    Blend: AUG-CC-PVTZ
  Basis Set: (AUG-CC-PVTZ AUX)
    Blend: AUG-CC-PVTZ-JKFIT
	 Reference Energy          =    -535.3087728409328747 [Eh]
	 Singles Energy            =      -0.0000000000000000 [Eh]
	 Same-Spin Energy          =      -0.5851640320998154 [Eh]
	 Opposite-Spin Energy      =      -1.9170049640632352 [Eh]
	 Correlation Energy        =      -2.5021689961630504 [Eh]
	 Total Energy              =    -537.8109418370959247 [Eh]

	 ================> DF-SCS-MP2 Energies <==================
	-----------------------------------------------------------
	 SCS Same-Spin Scale       =       0.3333333333333333 [-]
	 SCS Opposite-Spin Scale   =       1.2000000000000000 [-]
	 SCS Same-Spin Energy      =      -0.1950546773666051 [Eh]
	 SCS Opposite-Spin Energy  =      -2.3004059568758821 [Eh]
	 SCS Correlation Energy    =      -2.4954606342424874 [Eh]
	 SCS Total Energy          =    -537.8042334751753515 [Eh]
	-----------------------------------------------------------

  Dipole Moment: [D]
     X:   -12.0867      Y:    -0.6852      Z:     0.7329     Total:    12.1282

*** Psi4 exiting successfully. Buy a developer a beer!
