                               Psi4 1.4a3.dev225

  ==> Input File <==

--------------------------------------------------------------------------
#psi4
#
memory 32 gb

molecule  {
1 1
  N       -3.4197460    -0.1817000     0.1602720
  N       -0.6214370    -0.0078370    -0.1287630
  C       -2.7377630    -0.6049400    -1.1216890
  C       -2.6228330     0.7498462     1.0456691
  C       -1.3397990    -1.0900720    -0.7822260
  C       -1.2267490     0.3141230     1.1574790
  C        0.8091060    -0.1845140    -0.0397240
  C        1.6179690     0.9496740    -0.2359790
  C        1.3698700    -1.4337860     0.2499420
  C        3.0044760     0.7849240    -0.1342920
  C        1.0196790     2.2951990    -0.5492200
  C        2.7558540    -1.5738690     0.3292430
  C        3.5736970    -0.4590730     0.1432710
  H       -2.7010110     0.2771110    -1.7633110
  H       -3.3565410    -1.3799850    -1.5813290
  H       -3.1641810     1.0582560     1.8552750
  H       -2.5989570     1.7488760     0.3025170
  H       -1.4126900    -2.0099640    -0.1705650
  H       -0.8261290    -1.3544960    -1.7108330
  H       -0.6365290     1.0912410     1.6504410
  H       -1.2578930    -0.5558900     1.8421060
  H       -4.3648950     0.1725180    -0.0402120
  H       -3.5438220    -1.0118610     0.7575640
  H        0.7360800    -2.3037000     0.4086560
  H        3.6499200     1.6470780    -0.2894290
  H        0.2227830     2.2055990    -1.2916560
  H        0.5919240     2.7705950     0.3416580
  H        1.7859030     2.9697170    -0.9386560
  H        3.1912420    -2.5456860     0.5460090
  H        4.6540550    -0.5586080     0.2046590
units angstrom
no_reorient  #important for SAPT in psi4, default
symmetry c1  #important for SAPT in psi4, default
}

set PROPERTIES_ORIGIN ["COM"]
properties('MP2/aug-cc-pvtz', properties = ['dipole'])
--------------------------------------------------------------------------

    Molecular point group: c1
  Charge       = 1
  Multiplicity = 1
  Basis Set: AUG-CC-PVTZ
    Blend: AUG-CC-PVTZ
  Basis Set: (AUG-CC-PVTZ AUX)
    Blend: AUG-CC-PVTZ-JKFIT

    Orbital Energies [Eh]
    ---------------------

    Doubly Occupied:

       1A    -15.868137     2A    -15.705836     3A    -11.462795
       4A    -11.458338     5A    -11.418530     6A    -11.416579
       7A    -11.376114     8A    -11.345022     9A    -11.340921
      10A    -11.332201    11A    -11.330293    12A    -11.329109
      13A    -11.323281    14A     -1.499190    15A     -1.391884
      16A     -1.250850    17A     -1.229295    18A     -1.158595
      19A     -1.143469    20A     -1.088686    21A     -1.057069
      22A     -1.031605    23A     -0.990625    24A     -0.938674
      25A     -0.928405    26A     -0.905116    27A     -0.873805
      28A     -0.815976    29A     -0.805837    30A     -0.800249
      31A     -0.795688    32A     -0.759073    33A     -0.754288
      34A     -0.738487    35A     -0.714705    36A     -0.697187
      37A     -0.675254    38A     -0.671048    39A     -0.666361
      40A     -0.663832    41A     -0.644513    42A     -0.640656
      43A     -0.599665    44A     -0.593194    45A     -0.588742
      46A     -0.522343    47A     -0.434123    48A     -0.424132

  @DF-RHF Final Energy:  -535.28174179706127

   => Energetics <=

    Nuclear Repulsion Energy =            820.3617618645617995
    One-Electron Energy =               -2338.8874486995496227
    Two-Electron Energy =                 983.2439450379266646
    Total Energy =                       -535.2817417970612723
  Basis Set: (AUG-CC-PVTZ AUX)
    Blend: AUG-CC-PVTZ-RI
    Molecular point group: c1

    Geometry (in Angstrom), charge = 1, multiplicity = 1:

       Center              X                  Y                   Z               Mass
    ------------   -----------------  -----------------  -----------------  -----------------
         N           -3.470506610234    -0.162247637606     0.152849769886    14.003074004430
         N           -0.672197610234     0.011615362394    -0.136185230114    14.003074004430
         C           -2.788523610234    -0.585487637606    -1.129111230114    12.000000000000
         C           -2.673593610234     0.769298562394     1.038246869886    12.000000000000
         C           -1.390559610234    -1.070619637606    -0.789648230114    12.000000000000
         C           -1.277509610234     0.333575362394     1.150056769886    12.000000000000
         C            0.758345389766    -0.165061637606    -0.047146230114    12.000000000000
         C            1.567208389766     0.969126362394    -0.243401230114    12.000000000000
         C            1.319109389766    -1.414333637606     0.242519769886    12.000000000000
         C            2.953715389766     0.804376362394    -0.141714230114    12.000000000000
         C            0.968918389766     2.314651362394    -0.556642230114    12.000000000000
         C            2.705093389766    -1.554416637606     0.321820769886    12.000000000000
         C            3.522936389766    -0.439620637606     0.135848769886    12.000000000000
         H           -2.751771610234     0.296563362394    -1.770733230114     1.007825032230
         H           -3.407301610234    -1.360532637606    -1.588751230114     1.007825032230
         H           -3.214941610234     1.077708362394     1.847852769886     1.007825032230
         H           -2.649717610234     1.768328362394     0.295094769886     1.007825032230
         H           -1.463450610234    -1.990511637606    -0.177987230114     1.007825032230
         H           -0.876889610234    -1.335043637606    -1.718255230114     1.007825032230
         H           -0.687289610234     1.110693362394     1.643018769886     1.007825032230
         H           -1.308653610234    -0.536437637606     1.834683769886     1.007825032230
         H           -4.415655610234     0.191970362394    -0.047634230114     1.007825032230
         H           -3.594582610234    -0.992408637606     0.750141769886     1.007825032230
         H            0.685319389766    -2.284247637606     0.401233769886     1.007825032230
         H            3.599159389766     1.666530362394    -0.296851230114     1.007825032230
         H            0.172022389766     2.225051362394    -1.299078230114     1.007825032230
         H            0.541163389766     2.790047362394     0.334235769886     1.007825032230
         H            1.735142389766     2.989169362394    -0.946078230114     1.007825032230
         H            3.140481389766    -2.526233637606     0.538586769886     1.007825032230
         H            4.603294389766    -0.539155637606     0.197236769886     1.007825032230

  Basis Set: AUG-CC-PVTZ
    Blend: AUG-CC-PVTZ
  Basis Set: (AUG-CC-PVTZ AUX)
    Blend: AUG-CC-PVTZ-JKFIT
	 Reference Energy          =    -535.2817417970612723 [Eh]
	 Singles Energy            =      -0.0000000000000000 [Eh]
	 Same-Spin Energy          =      -0.5863182697997366 [Eh]
	 Opposite-Spin Energy      =      -1.9190219950202574 [Eh]
	 Correlation Energy        =      -2.5053402648199938 [Eh]
	 Total Energy              =    -537.7870820618812786 [Eh]

	 ================> DF-SCS-MP2 Energies <==================
	-----------------------------------------------------------
	 SCS Same-Spin Scale       =       0.3333333333333333 [-]
	 SCS Opposite-Spin Scale   =       1.2000000000000000 [-]
	 SCS Same-Spin Energy      =      -0.1954394232665788 [Eh]
	 SCS Opposite-Spin Energy  =      -2.3028263940243088 [Eh]
	 SCS Correlation Energy    =      -2.4982658172908878 [Eh]
	 SCS Total Energy          =    -537.7800076143521437 [Eh]
	-----------------------------------------------------------

  Dipole Moment: [D]
     X:   -12.0636      Y:    -0.7622      Z:     0.7542     Total:    12.1111

*** Psi4 exiting successfully. Buy a developer a beer!
