                               Psi4 1.4a3.dev225

  ==> Input File <==

--------------------------------------------------------------------------
#psi4
#
memory 32 gb

molecule  {
1 1
  N       -3.4197460    -0.1817000     0.1602720
  N       -0.6214370    -0.0078370    -0.1287630
  C       -2.7377630    -0.6049400    -1.1216890
  C       -2.6265040     0.8533270     0.9259500
  C       -1.3397990    -1.0900720    -0.7822260
  C       -1.2267490     0.3141230     1.1574790
  C        0.8091060    -0.1845140    -0.0397240
  C        1.6179690     0.9496740    -0.2359790
  C        1.3698700    -1.4337860     0.2499420
  C        3.0044760     0.7849240    -0.1342920
  C        1.0196790     2.2951990    -0.5492200
  C        2.7558540    -1.5738690     0.3292430
  C        3.5736970    -0.4590730     0.1432710
  H       -2.7010110     0.2771110    -1.7633110
  H       -3.3565410    -1.3799850    -1.5813290
  H       -3.1641810     1.0582560     1.8552750
  H       -2.5989570     1.7488760     0.3025170
  H       -1.4668629    -1.9454586    -0.0909864
  H       -0.8261290    -1.3544960    -1.7108330
  H       -0.6365290     1.0912410     1.6504410
  H       -1.2578930    -0.5558900     1.8421060
  H       -4.3648950     0.1725180    -0.0402120
  H       -3.5438220    -1.0118610     0.7575640
  H        0.7360800    -2.3037000     0.4086560
  H        3.6499200     1.6470780    -0.2894290
  H        0.2227830     2.2055990    -1.2916560
  H        0.5919240     2.7705950     0.3416580
  H        1.7859030     2.9697170    -0.9386560
  H        3.1912420    -2.5456860     0.5460090
  H        4.6540550    -0.5586080     0.2046590
units angstrom
no_reorient  #important for SAPT in psi4, default
symmetry c1  #important for SAPT in psi4, default
}

set PROPERTIES_ORIGIN ["COM"]
properties('MP2/aug-cc-pvtz', properties = ['dipole'])
--------------------------------------------------------------------------

    Molecular point group: c1
  Charge       = 1
  Multiplicity = 1
  Basis Set: AUG-CC-PVTZ
    Blend: AUG-CC-PVTZ
  Basis Set: (AUG-CC-PVTZ AUX)
    Blend: AUG-CC-PVTZ-JKFIT

    Orbital Energies [Eh]
    ---------------------

    Doubly Occupied:

       1A    -15.866923     2A    -15.702131     3A    -11.456956
       4A    -11.456103     5A    -11.418988     6A    -11.417516
       7A    -11.375004     8A    -11.344270     9A    -11.340006
      10A    -11.331681    11A    -11.329791    12A    -11.328531
      13A    -11.323519    14A     -1.497931    15A     -1.390570
      16A     -1.249966    17A     -1.222330    18A     -1.155794
      19A     -1.142622    20A     -1.088051    21A     -1.053070
      22A     -1.032007    23A     -0.996689    24A     -0.935321
      25A     -0.923317    26A     -0.903296    27A     -0.867671
      28A     -0.824292    29A     -0.809976    30A     -0.795530
      31A     -0.788858    32A     -0.755008    33A     -0.745077
      34A     -0.735106    35A     -0.713580    36A     -0.705495
      37A     -0.685467    38A     -0.675292    39A     -0.669295
      40A     -0.663378    41A     -0.655646    42A     -0.640595
      43A     -0.599833    44A     -0.591588    45A     -0.587981
      46A     -0.520669    47A     -0.433427    48A     -0.423397

  @DF-RHF Final Energy:  -535.30750811898338

   => Energetics <=

    Nuclear Repulsion Energy =            820.4667690339368846
    One-Electron Energy =               -2339.2094724711591880
    Two-Electron Energy =                 983.4351953182388115
    Total Energy =                       -535.3075081189833782
  Basis Set: (AUG-CC-PVTZ AUX)
    Blend: AUG-CC-PVTZ-RI
    Molecular point group: c1

    Geometry (in Angstrom), charge = 1, multiplicity = 1:

       Center              X                  Y                   Z               Mass
    ------------   -----------------  -----------------  -----------------  -----------------
         N           -3.469949710240    -0.169624773508     0.160507183363    14.003074004430
         N           -0.671640710240     0.004238226492    -0.128527816637    14.003074004430
         C           -2.787966710240    -0.592864773508    -1.121453816637    12.000000000000
         C           -2.676707710240     0.865402226492     0.926185183363    12.000000000000
         C           -1.390002710240    -1.077996773508    -0.781990816637    12.000000000000
         C           -1.276952710240     0.326198226492     1.157714183363    12.000000000000
         C            0.758902289760    -0.172438773508    -0.039488816637    12.000000000000
         C            1.567765289760     0.961749226492    -0.235743816637    12.000000000000
         C            1.319666289760    -1.421710773508     0.250177183363    12.000000000000
         C            2.954272289760     0.796999226492    -0.134056816637    12.000000000000
         C            0.969475289760     2.307274226492    -0.548984816637    12.000000000000
         C            2.705650289760    -1.561793773508     0.329478183363    12.000000000000
         C            3.523493289760    -0.446997773508     0.143506183363    12.000000000000
         H           -2.751214710240     0.289186226492    -1.763075816637     1.007825032230
         H           -3.406744710240    -1.367909773508    -1.581093816637     1.007825032230
         H           -3.214384710240     1.070331226492     1.855510183363     1.007825032230
         H           -2.649160710240     1.760951226492     0.302752183363     1.007825032230
         H           -1.517066610240    -1.933383373508    -0.090751216637     1.007825032230
         H           -0.876332710240    -1.342420773508    -1.710597816637     1.007825032230
         H           -0.686732710240     1.103316226492     1.650676183363     1.007825032230
         H           -1.308096710240    -0.543814773508     1.842341183363     1.007825032230
         H           -4.415098710240     0.184593226492    -0.039976816637     1.007825032230
         H           -3.594025710240    -0.999785773508     0.757799183363     1.007825032230
         H            0.685876289760    -2.291624773508     0.408891183363     1.007825032230
         H            3.599716289760     1.659153226492    -0.289193816637     1.007825032230
         H            0.172579289760     2.217674226492    -1.291420816637     1.007825032230
         H            0.541720289760     2.782670226492     0.341893183363     1.007825032230
         H            1.735699289760     2.981792226492    -0.938420816637     1.007825032230
         H            3.141038289760    -2.533610773508     0.546244183363     1.007825032230
         H            4.603851289760    -0.546532773508     0.204894183363     1.007825032230

  Basis Set: AUG-CC-PVTZ
    Blend: AUG-CC-PVTZ
  Basis Set: (AUG-CC-PVTZ AUX)
    Blend: AUG-CC-PVTZ-JKFIT
	 Reference Energy          =    -535.3075081189833782 [Eh]
	 Singles Energy            =      -0.0000000000000000 [Eh]
	 Same-Spin Energy          =      -0.5854302926404202 [Eh]
	 Opposite-Spin Energy      =      -1.9173612649833538 [Eh]
	 Correlation Energy        =      -2.5027915576237740 [Eh]
	 Total Energy              =    -537.8102996766072010 [Eh]

	 ================> DF-SCS-MP2 Energies <==================
	-----------------------------------------------------------
	 SCS Same-Spin Scale       =       0.3333333333333333 [-]
	 SCS Opposite-Spin Scale   =       1.2000000000000000 [-]
	 SCS Same-Spin Energy      =      -0.1951434308801401 [Eh]
	 SCS Opposite-Spin Energy  =      -2.3008335179800246 [Eh]
	 SCS Correlation Energy    =      -2.4959769488601644 [Eh]
	 SCS Total Energy          =    -537.8034850678435532 [Eh]
	-----------------------------------------------------------

  Dipole Moment: [D]
     X:   -12.1176      Y:    -0.6551      Z:     0.7258     Total:    12.1570

*** Psi4 exiting successfully. Buy a developer a beer!
