                               Psi4 1.4a3.dev225

  ==> Input File <==

--------------------------------------------------------------------------
#psi4
#
memory 32 gb

molecule  {
1 1
  N       -3.4197460    -0.1817000     0.1602720
  N       -0.6214370    -0.0078370    -0.1287630
  C       -2.7377630    -0.6049400    -1.1216890
  C       -2.6265040     0.8533270     0.9259500
  C       -1.3397990    -1.0900720    -0.7822260
  C       -1.2267490     0.3141230     1.1574790
  C        0.8091060    -0.1845140    -0.0397240
  C        1.6179690     0.9496740    -0.2359790
  C        1.3698700    -1.4337860     0.2499420
  C        3.0044760     0.7849240    -0.1342920
  C        1.0196790     2.2951990    -0.5492200
  C        2.7558540    -1.5738690     0.3292430
  C        3.5736970    -0.4590730     0.1432710
  H       -2.7010110     0.2771110    -1.7633110
  H       -3.3565410    -1.3799850    -1.5813290
  H       -3.0657991     1.0207589     1.6852310
  H       -2.5989570     1.7488760     0.3025170
  H       -1.4126900    -2.0099640    -0.1705650
  H       -0.8261290    -1.3544960    -1.7108330
  H       -0.6365290     1.0912410     1.6504410
  H       -1.2578930    -0.5558900     1.8421060
  H       -4.3648950     0.1725180    -0.0402120
  H       -3.5438220    -1.0118610     0.7575640
  H        0.7360800    -2.3037000     0.4086560
  H        3.6499200     1.6470780    -0.2894290
  H        0.2227830     2.2055990    -1.2916560
  H        0.5919240     2.7705950     0.3416580
  H        1.7859030     2.9697170    -0.9386560
  H        3.1912420    -2.5456860     0.5460090
  H        4.6540550    -0.5586080     0.2046590
units angstrom
no_reorient  #important for SAPT in psi4, default
symmetry c1  #important for SAPT in psi4, default
}

set PROPERTIES_ORIGIN ["COM"]
properties('MP2/aug-cc-pvtz', properties = ['dipole'])
--------------------------------------------------------------------------

    Molecular point group: c1
  Charge       = 1
  Multiplicity = 1
  Basis Set: AUG-CC-PVTZ
    Blend: AUG-CC-PVTZ
  Basis Set: (AUG-CC-PVTZ AUX)
    Blend: AUG-CC-PVTZ-JKFIT

    Orbital Energies [Eh]
    ---------------------

    Doubly Occupied:

       1A    -15.866221     2A    -15.702534     3A    -11.456685
       4A    -11.434786     5A    -11.417350     6A    -11.416836
       7A    -11.374863     8A    -11.344186     9A    -11.339965
      10A    -11.331652    11A    -11.329733    12A    -11.328450
      13A    -11.323453    14A     -1.498770    15A     -1.389851
      16A     -1.249821    17A     -1.233150    18A     -1.158694
      19A     -1.143097    20A     -1.093025    21A     -1.061170
      22A     -1.032432    23A     -0.996773    24A     -0.936266
      25A     -0.930701    26A     -0.905683    27A     -0.879044
      28A     -0.823837    29A     -0.812123    30A     -0.802738
      31A     -0.789088    32A     -0.754748    33A     -0.754352
      34A     -0.736989    35A     -0.714429    36A     -0.706452
      37A     -0.689032    38A     -0.675107    39A     -0.669764
      40A     -0.661953    41A     -0.656149    42A     -0.640507
      43A     -0.599775    44A     -0.591619    45A     -0.587980
      46A     -0.521298    47A     -0.433381    48A     -0.423314

  @DF-RHF Final Energy:  -535.27528998056744

   => Energetics <=

    Nuclear Repulsion Energy =            821.5414646449384009
    One-Electron Energy =               -2341.1938544964755238
    Two-Electron Energy =                 984.3770998709695732
    Total Energy =                       -535.2752899805674360
  Basis Set: (AUG-CC-PVTZ AUX)
    Blend: AUG-CC-PVTZ-RI
    Molecular point group: c1

    Geometry (in Angstrom), charge = 1, multiplicity = 1:

       Center              X                  Y                   Z               Mass
    ------------   -----------------  -----------------  -----------------  -----------------
         N           -3.470817663631    -0.169044435061     0.161927399456    14.003074004430
         N           -0.672508663631     0.004818564939    -0.127107600544    14.003074004430
         C           -2.788834663631    -0.592284435061    -1.120033600544    12.000000000000
         C           -2.677575663631     0.865982564939     0.927605399456    12.000000000000
         C           -1.390870663631    -1.077416435061    -0.780570600544    12.000000000000
         C           -1.277820663631     0.326778564939     1.159134399456    12.000000000000
         C            0.758034336369    -0.171858435061    -0.038068600544    12.000000000000
         C            1.566897336369     0.962329564939    -0.234323600544    12.000000000000
         C            1.318798336369    -1.421130435061     0.251597399456    12.000000000000
         C            2.953404336369     0.797579564939    -0.132636600544    12.000000000000
         C            0.968607336369     2.307854564939    -0.547564600544    12.000000000000
         C            2.704782336369    -1.561213435061     0.330898399456    12.000000000000
         C            3.522625336369    -0.446417435061     0.144926399456    12.000000000000
         H           -2.752082663631     0.289766564939    -1.761655600544     1.007825032230
         H           -3.407612663631    -1.367329435061    -1.579673600544     1.007825032230
         H           -3.116870763631     1.033414464939     1.686886399456     1.007825032230
         H           -2.650028663631     1.761531564939     0.304172399456     1.007825032230
         H           -1.463761663631    -1.997308435061    -0.168909600544     1.007825032230
         H           -0.877200663631    -1.341840435061    -1.709177600544     1.007825032230
         H           -0.687600663631     1.103896564939     1.652096399456     1.007825032230
         H           -1.308964663631    -0.543234435061     1.843761399456     1.007825032230
         H           -4.415966663631     0.185173564939    -0.038556600544     1.007825032230
         H           -3.594893663631    -0.999205435061     0.759219399456     1.007825032230
         H            0.685008336369    -2.291044435061     0.410311399456     1.007825032230
         H            3.598848336369     1.659733564939    -0.287773600544     1.007825032230
         H            0.171711336369     2.218254564939    -1.290000600544     1.007825032230
         H            0.540852336369     2.783250564939     0.343313399456     1.007825032230
         H            1.734831336369     2.982372564939    -0.937000600544     1.007825032230
         H            3.140170336369    -2.533030435061     0.547664399456     1.007825032230
         H            4.602983336369    -0.545952435061     0.206314399456     1.007825032230

  Basis Set: AUG-CC-PVTZ
    Blend: AUG-CC-PVTZ
  Basis Set: (AUG-CC-PVTZ AUX)
    Blend: AUG-CC-PVTZ-JKFIT
	 Reference Energy          =    -535.2752899805674360 [Eh]
	 Singles Energy            =      -0.0000000000000000 [Eh]
	 Same-Spin Energy          =      -0.5851304660963631 [Eh]
	 Opposite-Spin Energy      =      -1.9162199194092415 [Eh]
	 Correlation Energy        =      -2.5013503855056047 [Eh]
	 Total Energy              =    -537.7766403660730248 [Eh]

	 ================> DF-SCS-MP2 Energies <==================
	-----------------------------------------------------------
	 SCS Same-Spin Scale       =       0.3333333333333333 [-]
	 SCS Opposite-Spin Scale   =       1.2000000000000000 [-]
	 SCS Same-Spin Energy      =      -0.1950434886987877 [Eh]
	 SCS Opposite-Spin Energy  =      -2.2994639032910897 [Eh]
	 SCS Correlation Energy    =      -2.4945073919898775 [Eh]
	 SCS Total Energy          =    -537.7697973725572638 [Eh]
	-----------------------------------------------------------

  Dipole Moment: [D]
     X:   -12.1243      Y:    -0.6817      Z:     0.7183     Total:    12.1647

*** Psi4 exiting successfully. Buy a developer a beer!
