                               Psi4 1.4a3.dev225

  ==> Input File <==

--------------------------------------------------------------------------
#psi4
#
memory 32 gb

molecule  {
1 1
  N       -3.4197460    -0.1817000     0.1602720
  N       -0.6214370    -0.0078370    -0.1287630
  C       -2.7377630    -0.6049400    -1.1216890
  C       -2.6265040     0.8533270     0.9259500
  C       -1.3397990    -1.0900720    -0.7822260
  C       -1.2267490     0.3141230     1.1574790
  C        0.8091060    -0.1845140    -0.0397240
  C        1.6179690     0.9496740    -0.2359790
  C        1.3698700    -1.4337860     0.2499420
  C        3.0044760     0.7849240    -0.1342920
  C        1.0196790     2.2951990    -0.5492200
  C        2.7558540    -1.5738690     0.3292430
  C        3.5736970    -0.4590730     0.1432710
  H       -2.7010110     0.2771110    -1.7633110
  H       -3.3565410    -1.3799850    -1.5813290
  H       -3.1641810     1.0582560     1.8552750
  H       -2.5989570     1.7488760     0.3025170
  H       -1.4126900    -2.0099640    -0.1705650
  H       -0.7791609    -1.3786739    -1.7957414
  H       -0.6365290     1.0912410     1.6504410
  H       -1.2578930    -0.5558900     1.8421060
  H       -4.3648950     0.1725180    -0.0402120
  H       -3.5438220    -1.0118610     0.7575640
  H        0.7360800    -2.3037000     0.4086560
  H        3.6499200     1.6470780    -0.2894290
  H        0.2227830     2.2055990    -1.2916560
  H        0.5919240     2.7705950     0.3416580
  H        1.7859030     2.9697170    -0.9386560
  H        3.1912420    -2.5456860     0.5460090
  H        4.6540550    -0.5586080     0.2046590
units angstrom
no_reorient  #important for SAPT in psi4, default
symmetry c1  #important for SAPT in psi4, default
}

set PROPERTIES_ORIGIN ["COM"]
properties('MP2/aug-cc-pvtz', properties = ['dipole'])
--------------------------------------------------------------------------

    Molecular point group: c1
  Charge       = 1
  Multiplicity = 1
  Basis Set: AUG-CC-PVTZ
    Blend: AUG-CC-PVTZ
  Basis Set: (AUG-CC-PVTZ AUX)
    Blend: AUG-CC-PVTZ-JKFIT

    Orbital Energies [Eh]
    ---------------------

    Doubly Occupied:

       1A    -15.866873     2A    -15.703753     3A    -11.457135
       4A    -11.457078     5A    -11.427763     6A    -11.417921
       7A    -11.375141     8A    -11.344376     9A    -11.340093
      10A    -11.331726    11A    -11.329819    12A    -11.328553
      13A    -11.323592    14A     -1.497846    15A     -1.390158
      16A     -1.249778    17A     -1.220393    18A     -1.155302
      19A     -1.142575    20A     -1.088122    21A     -1.049521
      22A     -1.031923    23A     -0.995492    24A     -0.935065
      25A     -0.921127    26A     -0.903263    27A     -0.867465
      28A     -0.823873    29A     -0.810455    30A     -0.790339
      31A     -0.786655    32A     -0.753759    33A     -0.744019
      34A     -0.732661    35A     -0.714450    36A     -0.704235
      37A     -0.688105    38A     -0.675150    39A     -0.668723
      40A     -0.656609    41A     -0.648587    42A     -0.639715
      43A     -0.599783    44A     -0.591643    45A     -0.588070
      46A     -0.521821    47A     -0.433461    48A     -0.423496

  @DF-RHF Final Energy:  -535.30184850553030

   => Energetics <=

    Nuclear Repulsion Energy =            819.7869410180041996
    One-Electron Energy =               -2337.8826566489187826
    Two-Electron Energy =                 982.7938671253842813
    Total Energy =                       -535.3018485055303017
  Basis Set: (AUG-CC-PVTZ AUX)
    Blend: AUG-CC-PVTZ-RI
    Molecular point group: c1

    Geometry (in Angstrom), charge = 1, multiplicity = 1:

       Center              X                  Y                   Z               Mass
    ------------   -----------------  -----------------  -----------------  -----------------
         N           -3.470525147223    -0.169120214026     0.161443024446    14.003074004430
         N           -0.672216147223     0.004742785974    -0.127591975554    14.003074004430
         C           -2.788542147223    -0.592360214026    -1.120517975554    12.000000000000
         C           -2.677283147223     0.865906785974     0.927121024446    12.000000000000
         C           -1.390578147223    -1.077492214026    -0.781054975554    12.000000000000
         C           -1.277528147223     0.326702785974     1.158650024446    12.000000000000
         C            0.758326852777    -0.171934214026    -0.038552975554    12.000000000000
         C            1.567189852777     0.962253785974    -0.234807975554    12.000000000000
         C            1.319090852777    -1.421206214026     0.251113024446    12.000000000000
         C            2.953696852777     0.797503785974    -0.133120975554    12.000000000000
         C            0.968899852777     2.307778785974    -0.548048975554    12.000000000000
         C            2.705074852777    -1.561289214026     0.330414024446    12.000000000000
         C            3.522917852777    -0.446493214026     0.144442024446    12.000000000000
         H           -2.751790147223     0.289690785974    -1.762139975554     1.007825032230
         H           -3.407320147223    -1.367405214026    -1.580157975554     1.007825032230
         H           -3.214960147223     1.070835785974     1.856446024446     1.007825032230
         H           -2.649736147223     1.761455785974     0.303688024446     1.007825032230
         H           -1.463469147223    -1.997384214026    -0.169393975554     1.007825032230
         H           -0.829940047223    -1.366094114026    -1.794570375554     1.007825032230
         H           -0.687308147223     1.103820785974     1.651612024446     1.007825032230
         H           -1.308672147223    -0.543310214026     1.843277024446     1.007825032230
         H           -4.415674147223     0.185097785974    -0.039040975554     1.007825032230
         H           -3.594601147223    -0.999281214026     0.758735024446     1.007825032230
         H            0.685300852777    -2.291120214026     0.409827024446     1.007825032230
         H            3.599140852777     1.659657785974    -0.288257975554     1.007825032230
         H            0.172003852777     2.218178785974    -1.290484975554     1.007825032230
         H            0.541144852777     2.783174785974     0.342829024446     1.007825032230
         H            1.735123852777     2.982296785974    -0.937484975554     1.007825032230
         H            3.140462852777    -2.533106214026     0.547180024446     1.007825032230
         H            4.603275852777    -0.546028214026     0.205830024446     1.007825032230

  Basis Set: AUG-CC-PVTZ
    Blend: AUG-CC-PVTZ
  Basis Set: (AUG-CC-PVTZ AUX)
    Blend: AUG-CC-PVTZ-JKFIT
	 Reference Energy          =    -535.3018485055303017 [Eh]
	 Singles Energy            =      -0.0000000000000000 [Eh]
	 Same-Spin Energy          =      -0.5855426337907940 [Eh]
	 Opposite-Spin Energy      =      -1.9181168724732438 [Eh]
	 Correlation Energy        =      -2.5036595062640377 [Eh]
	 Total Energy              =    -537.8055080117943589 [Eh]

	 ================> DF-SCS-MP2 Energies <==================
	-----------------------------------------------------------
	 SCS Same-Spin Scale       =       0.3333333333333333 [-]
	 SCS Opposite-Spin Scale   =       1.2000000000000000 [-]
	 SCS Same-Spin Energy      =      -0.1951808779302646 [Eh]
	 SCS Opposite-Spin Energy  =      -2.3017402469678925 [Eh]
	 SCS Correlation Energy    =      -2.4969211248981571 [Eh]
	 SCS Total Energy          =    -537.7987696304284100 [Eh]
	-----------------------------------------------------------

  Dipole Moment: [D]
     X:   -12.0974      Y:    -0.6776      Z:     0.7372     Total:    12.1387

*** Psi4 exiting successfully. Buy a developer a beer!
