                               Psi4 1.4a3.dev225

  ==> Input File <==

--------------------------------------------------------------------------
#psi4
#
memory 32 gb

molecule  {
1 1
  N       -3.4197460    -0.1817000     0.1602720
  N       -0.6214370    -0.0078370    -0.1287630
  C       -2.7377630    -0.6049400    -1.1216890
  C       -2.6265040     0.8533270     0.9259500
  C       -1.3397990    -1.0900720    -0.7822260
  C       -1.2267490     0.3141230     1.1574790
  C        0.8091060    -0.1845140    -0.0397240
  C        1.6179690     0.9496740    -0.2359790
  C        1.3760378    -1.3863202     0.2409471
  C        3.0044760     0.7849240    -0.1342920
  C        1.0196790     2.2951990    -0.5492200
  C        2.7558540    -1.5738690     0.3292430
  C        3.5736970    -0.4590730     0.1432710
  H       -2.7010110     0.2771110    -1.7633110
  H       -3.3565410    -1.3799850    -1.5813290
  H       -3.1641810     1.0582560     1.8552750
  H       -2.5989570     1.7488760     0.3025170
  H       -1.4126900    -2.0099640    -0.1705650
  H       -0.8261290    -1.3544960    -1.7108330
  H       -0.6365290     1.0912410     1.6504410
  H       -1.2578930    -0.5558900     1.8421060
  H       -4.3648950     0.1725180    -0.0402120
  H       -3.5438220    -1.0118610     0.7575640
  H        0.7360800    -2.3037000     0.4086560
  H        3.6499200     1.6470780    -0.2894290
  H        0.2227830     2.2055990    -1.2916560
  H        0.5919240     2.7705950     0.3416580
  H        1.7859030     2.9697170    -0.9386560
  H        3.1912420    -2.5456860     0.5460090
  H        4.6540550    -0.5586080     0.2046590
units angstrom
no_reorient  #important for SAPT in psi4, default
symmetry c1  #important for SAPT in psi4, default
}

set PROPERTIES_ORIGIN ["COM"]
properties('MP2/aug-cc-pvtz', properties = ['dipole'])
--------------------------------------------------------------------------

    Molecular point group: c1
  Charge       = 1
  Multiplicity = 1
  Basis Set: AUG-CC-PVTZ
    Blend: AUG-CC-PVTZ
  Basis Set: (AUG-CC-PVTZ AUX)
    Blend: AUG-CC-PVTZ-JKFIT

    Orbital Energies [Eh]
    ---------------------

    Doubly Occupied:

       1A    -15.866670     2A    -15.703490     3A    -11.456933
       4A    -11.456778     5A    -11.417473     6A    -11.417390
       7A    -11.370783     8A    -11.344272     9A    -11.339527
      10A    -11.331294    11A    -11.329298    12A    -11.327985
      13A    -11.323344    14A     -1.497591    15A     -1.391103
      16A     -1.253799    17A     -1.221918    18A     -1.156137
      19A     -1.142961    20A     -1.090392    21A     -1.053570
      22A     -1.032840    23A     -0.996361    24A     -0.934250
      25A     -0.922835    26A     -0.904986    27A     -0.868225
      28A     -0.823760    29A     -0.812081    30A     -0.793329
      31A     -0.788824    32A     -0.751146    33A     -0.746498
      34A     -0.735126    35A     -0.714949    36A     -0.702053
      37A     -0.687850    38A     -0.675372    39A     -0.667594
      40A     -0.659979    41A     -0.655938    42A     -0.640412
      43A     -0.601486    44A     -0.591792    45A     -0.584756
      46A     -0.523327    47A     -0.437258    48A     -0.422754

  @DF-RHF Final Energy:  -535.30641114278365

   => Energetics <=

    Nuclear Repulsion Energy =            821.1880855893276703
    One-Electron Energy =               -2340.6520184320270346
    Two-Electron Energy =                 984.1575216999156055
    Total Energy =                       -535.3064111427836451
  Basis Set: (AUG-CC-PVTZ AUX)
    Blend: AUG-CC-PVTZ-RI
    Molecular point group: c1

    Geometry (in Angstrom), charge = 1, multiplicity = 1:

       Center              X                  Y                   Z               Mass
    ------------   -----------------  -----------------  -----------------  -----------------
         N           -3.470675751816    -0.172473265081     0.161569286687    14.003074004430
         N           -0.672366751816     0.001389734919    -0.127465713313    14.003074004430
         C           -2.788692751816    -0.595713265081    -1.120391713313    12.000000000000
         C           -2.677433751816     0.862553734919     0.927247286687    12.000000000000
         C           -1.390728751816    -1.080845265081    -0.780928713313    12.000000000000
         C           -1.277678751816     0.323349734919     1.158776286687    12.000000000000
         C            0.758176248184    -0.175287265081    -0.038426713313    12.000000000000
         C            1.567039248184     0.958900734919    -0.234681713313    12.000000000000
         C            1.325108048184    -1.377093465081     0.242244386687    12.000000000000
         C            2.953546248184     0.794150734919    -0.132994713313    12.000000000000
         C            0.968749248184     2.304425734919    -0.547922713313    12.000000000000
         C            2.704924248184    -1.564642265081     0.330540286687    12.000000000000
         C            3.522767248184    -0.449846265081     0.144568286687    12.000000000000
         H           -2.751940751816     0.286337734919    -1.762013713313     1.007825032230
         H           -3.407470751816    -1.370758265081    -1.580031713313     1.007825032230
         H           -3.215110751816     1.067482734919     1.856572286687     1.007825032230
         H           -2.649886751816     1.758102734919     0.303814286687     1.007825032230
         H           -1.463619751816    -2.000737265081    -0.169267713313     1.007825032230
         H           -0.877058751816    -1.345269265081    -1.709535713313     1.007825032230
         H           -0.687458751816     1.100467734919     1.651738286687     1.007825032230
         H           -1.308822751816    -0.546663265081     1.843403286687     1.007825032230
         H           -4.415824751816     0.181744734919    -0.038914713313     1.007825032230
         H           -3.594751751816    -1.002634265081     0.758861286687     1.007825032230
         H            0.685150248184    -2.294473265081     0.409953286687     1.007825032230
         H            3.598990248184     1.656304734919    -0.288131713313     1.007825032230
         H            0.171853248184     2.214825734919    -1.290358713313     1.007825032230
         H            0.540994248184     2.779821734919     0.342955286687     1.007825032230
         H            1.734973248184     2.978943734919    -0.937358713313     1.007825032230
         H            3.140312248184    -2.536459265081     0.547306286687     1.007825032230
         H            4.603125248184    -0.549381265081     0.205956286687     1.007825032230

  Basis Set: AUG-CC-PVTZ
    Blend: AUG-CC-PVTZ
  Basis Set: (AUG-CC-PVTZ AUX)
    Blend: AUG-CC-PVTZ-JKFIT
	 Reference Energy          =    -535.3064111427836451 [Eh]
	 Singles Energy            =      -0.0000000000000000 [Eh]
	 Same-Spin Energy          =      -0.5852888562302263 [Eh]
	 Opposite-Spin Energy      =      -1.9169935507536973 [Eh]
	 Correlation Energy        =      -2.5022824069839236 [Eh]
	 Total Energy              =    -537.8086935497675540 [Eh]

	 ================> DF-SCS-MP2 Energies <==================
	-----------------------------------------------------------
	 SCS Same-Spin Scale       =       0.3333333333333333 [-]
	 SCS Opposite-Spin Scale   =       1.2000000000000000 [-]
	 SCS Same-Spin Energy      =      -0.1950962854100754 [Eh]
	 SCS Opposite-Spin Energy  =      -2.3003922609044367 [Eh]
	 SCS Correlation Energy    =      -2.4954885463145122 [Eh]
	 SCS Total Energy          =    -537.8018996890981498 [Eh]
	-----------------------------------------------------------

  Dipole Moment: [D]
     X:   -12.0990      Y:    -0.7119      Z:     0.7416     Total:    12.1426

*** Psi4 exiting successfully. Buy a developer a beer!
