                               Psi4 1.4a3.dev225

  ==> Input File <==

--------------------------------------------------------------------------
#psi4
#
memory 32 gb

molecule  {
1 1
  N       -3.4197460    -0.1817000     0.1602720
  N       -0.6214370    -0.0078370    -0.1287630
  C       -2.7377630    -0.6049400    -1.1216890
  C       -2.6265040     0.8533270     0.9259500
  C       -1.3397990    -1.0900720    -0.7822260
  C       -1.2267490     0.3141230     1.1574790
  C        0.8091060    -0.1845140    -0.0397240
  C        1.6179690     0.9496740    -0.2359790
  C        1.3934070    -1.2921316     0.2232910
  C        3.0044760     0.7849240    -0.1342920
  C        1.0196790     2.2951990    -0.5492200
  C        2.7558540    -1.5738690     0.3292430
  C        3.5736970    -0.4590730     0.1432710
  H       -2.7010110     0.2771110    -1.7633110
  H       -3.3565410    -1.3799850    -1.5813290
  H       -3.1641810     1.0582560     1.8552750
  H       -2.5989570     1.7488760     0.3025170
  H       -1.4126900    -2.0099640    -0.1705650
  H       -0.8261290    -1.3544960    -1.7108330
  H       -0.6365290     1.0912410     1.6504410
  H       -1.2578930    -0.5558900     1.8421060
  H       -4.3648950     0.1725180    -0.0402120
  H       -3.5438220    -1.0118610     0.7575640
  H        0.7360800    -2.3037000     0.4086560
  H        3.6499200     1.6470780    -0.2894290
  H        0.2227830     2.2055990    -1.2916560
  H        0.5919240     2.7705950     0.3416580
  H        1.7859030     2.9697170    -0.9386560
  H        3.1912420    -2.5456860     0.5460090
  H        4.6540550    -0.5586080     0.2046590
units angstrom
no_reorient  #important for SAPT in psi4, default
symmetry c1  #important for SAPT in psi4, default
}

set PROPERTIES_ORIGIN ["COM"]
properties('MP2/aug-cc-pvtz', properties = ['dipole'])
--------------------------------------------------------------------------

    Molecular point group: c1
  Charge       = 1
  Multiplicity = 1
  Basis Set: AUG-CC-PVTZ
    Blend: AUG-CC-PVTZ
  Basis Set: (AUG-CC-PVTZ AUX)
    Blend: AUG-CC-PVTZ-JKFIT

    Orbital Energies [Eh]
    ---------------------

    Doubly Occupied:

       1A    -15.866731     2A    -15.704591     3A    -11.457296
       4A    -11.456714     5A    -11.417948     6A    -11.416984
       7A    -11.361932     8A    -11.344504     9A    -11.338683
      10A    -11.331241    11A    -11.329375    12A    -11.326272
      13A    -11.323078    14A     -1.497688    15A     -1.393033
      16A     -1.263544    17A     -1.222022    18A     -1.158107
      19A     -1.143590    20A     -1.096520    21A     -1.053696
      22A     -1.034528    23A     -0.997065    24A     -0.932891
      25A     -0.919866    26A     -0.909355    27A     -0.869116
      28A     -0.823797    29A     -0.815750    30A     -0.793003
      31A     -0.789545    32A     -0.756542    33A     -0.741969
      34A     -0.735946    35A     -0.715245    36A     -0.698298
      37A     -0.688145    38A     -0.676073    39A     -0.664276
      40A     -0.660162    41A     -0.654568    42A     -0.640106
      43A     -0.604573    44A     -0.599376    45A     -0.565580
      46A     -0.525889    47A     -0.446226    48A     -0.420922

  @DF-RHF Final Energy:  -535.28244661387942

   => Energetics <=

    Nuclear Repulsion Energy =            823.0028040633135333
    One-Electron Energy =               -2344.2057809944926703
    Two-Electron Energy =                 985.9205303172997219
    Total Energy =                       -535.2824466138794151
  Basis Set: (AUG-CC-PVTZ AUX)
    Blend: AUG-CC-PVTZ-RI
    Molecular point group: c1

    Geometry (in Angstrom), charge = 1, multiplicity = 1:

       Center              X                  Y                   Z               Mass
    ------------   -----------------  -----------------  -----------------  -----------------
         N           -3.471852399510    -0.178853915828     0.162765369946    14.003074004430
         N           -0.673543399510    -0.004990915828    -0.126269630054    14.003074004430
         C           -2.789869399510    -0.602093915828    -1.119195630054    12.000000000000
         C           -2.678610399510     0.856173084172     0.928443369946    12.000000000000
         C           -1.391905399510    -1.087225915828    -0.779732630054    12.000000000000
         C           -1.278855399510     0.316969084172     1.159972369946    12.000000000000
         C            0.756999600490    -0.181667915828    -0.037230630054    12.000000000000
         C            1.565862600490     0.952520084172    -0.233485630054    12.000000000000
         C            1.341300600490    -1.289285515828     0.225784369946    12.000000000000
         C            2.952369600490     0.787770084172    -0.131798630054    12.000000000000
         C            0.967572600490     2.298045084172    -0.546726630054    12.000000000000
         C            2.703747600490    -1.571022915828     0.331736369946    12.000000000000
         C            3.521590600490    -0.456226915828     0.145764369946    12.000000000000
         H           -2.753117399510     0.279957084172    -1.760817630054     1.007825032230
         H           -3.408647399510    -1.377138915828    -1.578835630054     1.007825032230
         H           -3.216287399510     1.061102084172     1.857768369946     1.007825032230
         H           -2.651063399510     1.751722084172     0.305010369946     1.007825032230
         H           -1.464796399510    -2.007117915828    -0.168071630054     1.007825032230
         H           -0.878235399510    -1.351649915828    -1.708339630054     1.007825032230
         H           -0.688635399510     1.094087084172     1.652934369946     1.007825032230
         H           -1.309999399510    -0.553043915828     1.844599369946     1.007825032230
         H           -4.417001399510     0.175364084172    -0.037718630054     1.007825032230
         H           -3.595928399510    -1.009014915828     0.760057369946     1.007825032230
         H            0.683973600490    -2.300853915828     0.411149369946     1.007825032230
         H            3.597813600490     1.649924084172    -0.286935630054     1.007825032230
         H            0.170676600490     2.208445084172    -1.289162630054     1.007825032230
         H            0.539817600490     2.773441084172     0.344151369946     1.007825032230
         H            1.733796600490     2.972563084172    -0.936162630054     1.007825032230
         H            3.139135600490    -2.542839915828     0.548502369946     1.007825032230
         H            4.601948600490    -0.555761915828     0.207152369946     1.007825032230

  Basis Set: AUG-CC-PVTZ
    Blend: AUG-CC-PVTZ
  Basis Set: (AUG-CC-PVTZ AUX)
    Blend: AUG-CC-PVTZ-JKFIT
	 Reference Energy          =    -535.2824466138794151 [Eh]
	 Singles Energy            =      -0.0000000000000000 [Eh]
	 Same-Spin Energy          =      -0.5854847751542039 [Eh]
	 Opposite-Spin Energy      =      -1.9176396506863163 [Eh]
	 Correlation Energy        =      -2.5031244258405203 [Eh]
	 Total Energy              =    -537.7855710397199118 [Eh]

	 ================> DF-SCS-MP2 Energies <==================
	-----------------------------------------------------------
	 SCS Same-Spin Scale       =       0.3333333333333333 [-]
	 SCS Opposite-Spin Scale   =       1.2000000000000000 [-]
	 SCS Same-Spin Energy      =      -0.1951615917180680 [Eh]
	 SCS Opposite-Spin Energy  =      -2.3011675808235794 [Eh]
	 SCS Correlation Energy    =      -2.4963291725416474 [Eh]
	 SCS Total Energy          =    -537.7787757864210789 [Eh]
	-----------------------------------------------------------

  Dipole Moment: [D]
     X:   -12.0685      Y:    -0.7386      Z:     0.7550     Total:    12.1147

*** Psi4 exiting successfully. Buy a developer a beer!
