                               Psi4 1.4a3.dev225

  ==> Input File <==

--------------------------------------------------------------------------
#psi4
#
memory 32 gb

molecule  {
1 1
  N       -3.4197460    -0.1817000     0.1602720
  N       -0.6272163    -0.0569832    -0.1191595
  C       -2.7377630    -0.6049400    -1.1216890
  C       -2.6265040     0.8533270     0.9259500
  C       -1.3397990    -1.0900720    -0.7822260
  C       -1.2267490     0.3141230     1.1574790
  C        0.8091060    -0.1845140    -0.0397240
  C        1.6179690     0.9496740    -0.2359790
  C        1.3698700    -1.4337860     0.2499420
  C        3.0044760     0.7849240    -0.1342920
  C        1.0196790     2.2951990    -0.5492200
  C        2.7558540    -1.5738690     0.3292430
  C        3.5736970    -0.4590730     0.1432710
  H       -2.7010110     0.2771110    -1.7633110
  H       -3.3565410    -1.3799850    -1.5813290
  H       -3.1641810     1.0582560     1.8552750
  H       -2.5989570     1.7488760     0.3025170
  H       -1.4126900    -2.0099640    -0.1705650
  H       -0.8261290    -1.3544960    -1.7108330
  H       -0.6365290     1.0912410     1.6504410
  H       -1.2578930    -0.5558900     1.8421060
  H       -4.3648950     0.1725180    -0.0402120
  H       -3.5438220    -1.0118610     0.7575640
  H        0.7360800    -2.3037000     0.4086560
  H        3.6499200     1.6470780    -0.2894290
  H        0.2227830     2.2055990    -1.2916560
  H        0.5919240     2.7705950     0.3416580
  H        1.7859030     2.9697170    -0.9386560
  H        3.1912420    -2.5456860     0.5460090
  H        4.6540550    -0.5586080     0.2046590
units angstrom
no_reorient  #important for SAPT in psi4, default
symmetry c1  #important for SAPT in psi4, default
}

set PROPERTIES_ORIGIN ["COM"]
properties('MP2/aug-cc-pvtz', properties = ['dipole'])
--------------------------------------------------------------------------

    Molecular point group: c1
  Charge       = 1
  Multiplicity = 1
  Basis Set: AUG-CC-PVTZ
    Blend: AUG-CC-PVTZ
  Basis Set: (AUG-CC-PVTZ AUX)
    Blend: AUG-CC-PVTZ-JKFIT

    Orbital Energies [Eh]
    ---------------------

    Doubly Occupied:

       1A    -15.866629     2A    -15.699026     3A    -11.457138
       4A    -11.456468     5A    -11.418009     6A    -11.415700
       7A    -11.375973     8A    -11.345516     9A    -11.339320
      10A    -11.331556    11A    -11.330337    12A    -11.328863
      13A    -11.324629    14A     -1.497860    15A     -1.394696
      16A     -1.250720    17A     -1.222588    18A     -1.155008
      19A     -1.143587    20A     -1.088917    21A     -1.056392
      22A     -1.032904    23A     -0.994798    24A     -0.935066
      25A     -0.924598    26A     -0.905016    27A     -0.866651
      28A     -0.823388    29A     -0.810760    30A     -0.797159
      31A     -0.791329    32A     -0.756151    33A     -0.744542
      34A     -0.734706    35A     -0.715368    36A     -0.704623
      37A     -0.687046    38A     -0.677047    39A     -0.669854
      40A     -0.664938    41A     -0.655135    42A     -0.640861
      43A     -0.599466    44A     -0.593178    45A     -0.588573
      46A     -0.515519    47A     -0.433315    48A     -0.423592

  @DF-RHF Final Energy:  -535.30864705473152

   => Energetics <=

    Nuclear Repulsion Energy =            820.6053248982999548
    One-Electron Energy =               -2339.4589125470711224
    Two-Electron Energy =                 983.5449405940397583
    Total Energy =                       -535.3086470547315230
  Basis Set: (AUG-CC-PVTZ AUX)
    Blend: AUG-CC-PVTZ-RI
    Molecular point group: c1

    Geometry (in Angstrom), charge = 1, multiplicity = 1:

       Center              X                  Y                   Z               Mass
    ------------   -----------------  -----------------  -----------------  -----------------
         N           -3.469801063499    -0.165372704260     0.160200773352    14.003074004430
         N           -0.677271363499    -0.040655904260    -0.119230726648    14.003074004430
         C           -2.787818063499    -0.588612704260    -1.121760226648    12.000000000000
         C           -2.676559063499     0.869654295740     0.925878773352    12.000000000000
         C           -1.389854063499    -1.073744704260    -0.782297226648    12.000000000000
         C           -1.276804063499     0.330450295740     1.157407773352    12.000000000000
         C            0.759050936501    -0.168186704260    -0.039795226648    12.000000000000
         C            1.567913936501     0.966001295740    -0.236050226648    12.000000000000
         C            1.319814936501    -1.417458704260     0.249870773352    12.000000000000
         C            2.954420936501     0.801251295740    -0.134363226648    12.000000000000
         C            0.969623936501     2.311526295740    -0.549291226648    12.000000000000
         C            2.705798936501    -1.557541704260     0.329171773352    12.000000000000
         C            3.523641936501    -0.442745704260     0.143199773352    12.000000000000
         H           -2.751066063499     0.293438295740    -1.763382226648     1.007825032230
         H           -3.406596063499    -1.363657704260    -1.581400226648     1.007825032230
         H           -3.214236063499     1.074583295740     1.855203773352     1.007825032230
         H           -2.649012063499     1.765203295740     0.302445773352     1.007825032230
         H           -1.462745063499    -1.993636704260    -0.170636226648     1.007825032230
         H           -0.876184063499    -1.338168704260    -1.710904226648     1.007825032230
         H           -0.686584063499     1.107568295740     1.650369773352     1.007825032230
         H           -1.307948063499    -0.539562704260     1.842034773352     1.007825032230
         H           -4.414950063499     0.188845295740    -0.040283226648     1.007825032230
         H           -3.593877063499    -0.995533704260     0.757492773352     1.007825032230
         H            0.686024936501    -2.287372704260     0.408584773352     1.007825032230
         H            3.599864936501     1.663405295740    -0.289500226648     1.007825032230
         H            0.172727936501     2.221926295740    -1.291727226648     1.007825032230
         H            0.541868936501     2.786922295740     0.341586773352     1.007825032230
         H            1.735847936501     2.986044295740    -0.938727226648     1.007825032230
         H            3.141186936501    -2.529358704260     0.545937773352     1.007825032230
         H            4.603999936501    -0.542280704260     0.204587773352     1.007825032230

  Basis Set: AUG-CC-PVTZ
    Blend: AUG-CC-PVTZ
  Basis Set: (AUG-CC-PVTZ AUX)
    Blend: AUG-CC-PVTZ-JKFIT
	 Reference Energy          =    -535.3086470547315230 [Eh]
	 Singles Energy            =      -0.0000000000000000 [Eh]
	 Same-Spin Energy          =      -0.5852369114669894 [Eh]
	 Opposite-Spin Energy      =      -1.9165167358867372 [Eh]
	 Correlation Energy        =      -2.5017536473537265 [Eh]
	 Total Energy              =    -537.8104007020853032 [Eh]

	 ================> DF-SCS-MP2 Energies <==================
	-----------------------------------------------------------
	 SCS Same-Spin Scale       =       0.3333333333333333 [-]
	 SCS Opposite-Spin Scale   =       1.2000000000000000 [-]
	 SCS Same-Spin Energy      =      -0.1950789704889965 [Eh]
	 SCS Opposite-Spin Energy  =      -2.2998200830640845 [Eh]
	 SCS Correlation Energy    =      -2.4948990535530808 [Eh]
	 SCS Total Energy          =    -537.8035461082846496 [Eh]
	-----------------------------------------------------------

  Dipole Moment: [D]
     X:   -12.0609      Y:    -0.5450      Z:     0.7076     Total:    12.0940

*** Psi4 exiting successfully. Buy a developer a beer!
