                               Psi4 1.4a3.dev225

  ==> Input File <==

--------------------------------------------------------------------------
#psi4
#
memory 32 gb

molecule  {
1 1
  N       -3.4197460    -0.1817000     0.1602720
  N       -0.6139148     0.0410940    -0.1382580
  C       -2.7377630    -0.6049400    -1.1216890
  C       -2.6265040     0.8533270     0.9259500
  C       -1.3397990    -1.0900720    -0.7822260
  C       -1.2267490     0.3141230     1.1574790
  C        0.8091060    -0.1845140    -0.0397240
  C        1.6179690     0.9496740    -0.2359790
  C        1.3698700    -1.4337860     0.2499420
  C        3.0044760     0.7849240    -0.1342920
  C        1.0196790     2.2951990    -0.5492200
  C        2.7558540    -1.5738690     0.3292430
  C        3.5736970    -0.4590730     0.1432710
  H       -2.7010110     0.2771110    -1.7633110
  H       -3.3565410    -1.3799850    -1.5813290
  H       -3.1641810     1.0582560     1.8552750
  H       -2.5989570     1.7488760     0.3025170
  H       -1.4126900    -2.0099640    -0.1705650
  H       -0.8261290    -1.3544960    -1.7108330
  H       -0.6365290     1.0912410     1.6504410
  H       -1.2578930    -0.5558900     1.8421060
  H       -4.3648950     0.1725180    -0.0402120
  H       -3.5438220    -1.0118610     0.7575640
  H        0.7360800    -2.3037000     0.4086560
  H        3.6499200     1.6470780    -0.2894290
  H        0.2227830     2.2055990    -1.2916560
  H        0.5919240     2.7705950     0.3416580
  H        1.7859030     2.9697170    -0.9386560
  H        3.1912420    -2.5456860     0.5460090
  H        4.6540550    -0.5586080     0.2046590
units angstrom
no_reorient  #important for SAPT in psi4, default
symmetry c1  #important for SAPT in psi4, default
}

set PROPERTIES_ORIGIN ["COM"]
properties('MP2/aug-cc-pvtz', properties = ['dipole'])
--------------------------------------------------------------------------

    Molecular point group: c1
  Charge       = 1
  Multiplicity = 1
  Basis Set: AUG-CC-PVTZ
    Blend: AUG-CC-PVTZ
  Basis Set: (AUG-CC-PVTZ AUX)
    Blend: AUG-CC-PVTZ-JKFIT

    Orbital Energies [Eh]
    ---------------------

    Doubly Occupied:

       1A    -15.866659     2A    -15.707443     3A    -11.457142
       4A    -11.456550     5A    -11.419305     6A    -11.416819
       7A    -11.374519     8A    -11.343306     9A    -11.341083
      10A    -11.332095    11A    -11.329518    12A    -11.328326
      13A    -11.322596    14A     -1.497249    15A     -1.385994
      16A     -1.249179    17A     -1.221056    18A     -1.156376
      19A     -1.141760    20A     -1.087489    21A     -1.050572
      22A     -1.031103    23A     -0.997464    24A     -0.935977
      25A     -0.923853    26A     -0.901804    27A     -0.868316
      28A     -0.824181    29A     -0.809874    30A     -0.790060
      31A     -0.785338    32A     -0.753920    33A     -0.744916
      34A     -0.734489    35A     -0.713979    36A     -0.704533
      37A     -0.688462    38A     -0.673996    39A     -0.669276
      40A     -0.658048    41A     -0.651788    42A     -0.640131
      43A     -0.600390    44A     -0.590290    45A     -0.587093
      46A     -0.527733    47A     -0.433753    48A     -0.423357

  @DF-RHF Final Energy:  -535.30586841126990

   => Energetics <=

    Nuclear Repulsion Energy =            819.9463929763697934
    One-Electron Energy =               -2338.2062032019175604
    Two-Electron Energy =                 982.9539418142779823
    Total Energy =                       -535.3058684112698984
  Basis Set: (AUG-CC-PVTZ AUX)
    Blend: AUG-CC-PVTZ-RI
    Molecular point group: c1

    Geometry (in Angstrom), charge = 1, multiplicity = 1:

       Center              X                  Y                   Z               Mass
    ------------   -----------------  -----------------  -----------------  -----------------
         N           -3.470852563769    -0.173125830021     0.161710533749    14.003074004430
         N           -0.665021363769     0.049668169979    -0.136819466251    14.003074004430
         C           -2.788869563769    -0.596365830021    -1.120250466251    12.000000000000
         C           -2.677610563769     0.861901169979     0.927388533749    12.000000000000
         C           -1.390905563769    -1.081497830021    -0.780787466251    12.000000000000
         C           -1.277855563769     0.322697169979     1.158917533749    12.000000000000
         C            0.757999436231    -0.175939830021    -0.038285466251    12.000000000000
         C            1.566862436231     0.958248169979    -0.234540466251    12.000000000000
         C            1.318763436231    -1.425211830021     0.251380533749    12.000000000000
         C            2.953369436231     0.793498169979    -0.132853466251    12.000000000000
         C            0.968572436231     2.303773169979    -0.547781466251    12.000000000000
         C            2.704747436231    -1.565294830021     0.330681533749    12.000000000000
         C            3.522590436231    -0.450498830021     0.144709533749    12.000000000000
         H           -2.752117563769     0.285685169979    -1.761872466251     1.007825032230
         H           -3.407647563769    -1.371410830021    -1.579890466251     1.007825032230
         H           -3.215287563769     1.066830169979     1.856713533749     1.007825032230
         H           -2.650063563769     1.757450169979     0.303955533749     1.007825032230
         H           -1.463796563769    -2.001389830021    -0.169126466251     1.007825032230
         H           -0.877235563769    -1.345921830021    -1.709394466251     1.007825032230
         H           -0.687635563769     1.099815169979     1.651879533749     1.007825032230
         H           -1.308999563769    -0.547315830021     1.843544533749     1.007825032230
         H           -4.416001563769     0.181092169979    -0.038773466251     1.007825032230
         H           -3.594928563769    -1.003286830021     0.759002533749     1.007825032230
         H            0.684973436231    -2.295125830021     0.410094533749     1.007825032230
         H            3.598813436231     1.655652169979    -0.287990466251     1.007825032230
         H            0.171676436231     2.214173169979    -1.290217466251     1.007825032230
         H            0.540817436231     2.779169169979     0.343096533749     1.007825032230
         H            1.734796436231     2.978291169979    -0.937217466251     1.007825032230
         H            3.140135436231    -2.537111830021     0.547447533749     1.007825032230
         H            4.602948436231    -0.550033830021     0.206097533749     1.007825032230

  Basis Set: AUG-CC-PVTZ
    Blend: AUG-CC-PVTZ
  Basis Set: (AUG-CC-PVTZ AUX)
    Blend: AUG-CC-PVTZ-JKFIT
	 Reference Energy          =    -535.3058684112698984 [Eh]
	 Singles Energy            =      -0.0000000000000000 [Eh]
	 Same-Spin Energy          =      -0.5855168530244587 [Eh]
	 Opposite-Spin Energy      =      -1.9181398356350678 [Eh]
	 Correlation Energy        =      -2.5036566886595266 [Eh]
	 Total Energy              =    -537.8095250999293739 [Eh]

	 ================> DF-SCS-MP2 Energies <==================
	-----------------------------------------------------------
	 SCS Same-Spin Scale       =       0.3333333333333333 [-]
	 SCS Opposite-Spin Scale   =       1.2000000000000000 [-]
	 SCS Same-Spin Energy      =      -0.1951722843414862 [Eh]
	 SCS Opposite-Spin Energy  =      -2.3017678027620811 [Eh]
	 SCS Correlation Energy    =      -2.4969400871035674 [Eh]
	 SCS Total Energy          =    -537.8028084983734516 [Eh]
	-----------------------------------------------------------

  Dipole Moment: [D]
     X:   -12.1475      Y:    -0.8130      Z:     0.7593     Total:    12.1984

*** Psi4 exiting successfully. Buy a developer a beer!
