                               Psi4 1.4a3.dev225

  ==> Input File <==

--------------------------------------------------------------------------
#psi4
#
memory 32 gb

molecule  {
1 1
  N       -3.4197460    -0.1817000     0.1602720
  N       -0.6214370    -0.0078370    -0.1287630
  C       -2.7377630    -0.6049400    -1.1216890
  C       -2.5598663     0.9623980     0.8315979
  C       -1.3397990    -1.0900720    -0.7822260
  C       -1.2267490     0.3141230     1.1574790
  C        0.8091060    -0.1845140    -0.0397240
  C        1.6179690     0.9496740    -0.2359790
  C        1.3698700    -1.4337860     0.2499420
  C        3.0044760     0.7849240    -0.1342920
  C        1.0196790     2.2951990    -0.5492200
  C        2.7558540    -1.5738690     0.3292430
  C        3.5736970    -0.4590730     0.1432710
  H       -2.7010110     0.2771110    -1.7633110
  H       -3.3565410    -1.3799850    -1.5813290
  H       -3.1641810     1.0582560     1.8552750
  H       -2.5989570     1.7488760     0.3025170
  H       -1.4126900    -2.0099640    -0.1705650
  H       -0.8261290    -1.3544960    -1.7108330
  H       -0.6365290     1.0912410     1.6504410
  H       -1.2578930    -0.5558900     1.8421060
  H       -4.3648950     0.1725180    -0.0402120
  H       -3.5438220    -1.0118610     0.7575640
  H        0.7360800    -2.3037000     0.4086560
  H        3.6499200     1.6470780    -0.2894290
  H        0.2227830     2.2055990    -1.2916560
  H        0.5919240     2.7705950     0.3416580
  H        1.7859030     2.9697170    -0.9386560
  H        3.1912420    -2.5456860     0.5460090
  H        4.6540550    -0.5586080     0.2046590
units angstrom
no_reorient  #important for SAPT in psi4, default
symmetry c1  #important for SAPT in psi4, default
}

set PROPERTIES_ORIGIN ["COM"]
properties('MP2/aug-cc-pvtz', properties = ['dipole'])
--------------------------------------------------------------------------

    Molecular point group: c1
  Charge       = 1
  Multiplicity = 1
  Basis Set: AUG-CC-PVTZ
    Blend: AUG-CC-PVTZ
  Basis Set: (AUG-CC-PVTZ AUX)
    Blend: AUG-CC-PVTZ-JKFIT

    Orbital Energies [Eh]
    ---------------------

    Doubly Occupied:

       1A    -15.860377     2A    -15.702200     3A    -11.462605
       4A    -11.453159     5A    -11.420350     6A    -11.416548
       7A    -11.375132     8A    -11.344661     9A    -11.340321
      10A    -11.332163    11A    -11.330280    12A    -11.328876
      13A    -11.324684    14A     -1.483827    15A     -1.390119
      16A     -1.250439    17A     -1.220569    18A     -1.157292
      19A     -1.143488    20A     -1.091170    21A     -1.051170
      22A     -1.033358    23A     -1.000704    24A     -0.929981
      25A     -0.919096    26A     -0.902557    27A     -0.866028
      28A     -0.837310    29A     -0.811164    30A     -0.789623
      31A     -0.776506    32A     -0.756365    33A     -0.754028
      34A     -0.733081    35A     -0.717327    36A     -0.706847
      37A     -0.693106    38A     -0.675871    39A     -0.669405
      40A     -0.652638    41A     -0.649273    42A     -0.640514
      43A     -0.600764    44A     -0.591171    45A     -0.588026
      46A     -0.522686    47A     -0.433869    48A     -0.423768

  @DF-RHF Final Energy:  -535.27532542230665

   => Energetics <=

    Nuclear Repulsion Energy =            820.4491317516074105
    One-Electron Energy =               -2339.1399222527957136
    Two-Electron Energy =                 983.4154650788816525
    Total Energy =                       -535.2753254223066506
  Basis Set: (AUG-CC-PVTZ AUX)
    Blend: AUG-CC-PVTZ-RI
    Molecular point group: c1

    Geometry (in Angstrom), charge = 1, multiplicity = 1:

       Center              X                  Y                   Z               Mass
    ------------   -----------------  -----------------  -----------------  -----------------
         N           -3.474772185064    -0.176646607347     0.167351668864    14.003074004430
         N           -0.676463185064    -0.002783607347    -0.121683331136    14.003074004430
         C           -2.792789185064    -0.599886607347    -1.114609331136    12.000000000000
         C           -2.614892485064     0.967451392653     0.838677568864    12.000000000000
         C           -1.394825185064    -1.085018607347    -0.775146331136    12.000000000000
         C           -1.281775185064     0.319176392653     1.164558668864    12.000000000000
         C            0.754079814936    -0.179460607347    -0.032644331136    12.000000000000
         C            1.562942814936     0.954727392653    -0.228899331136    12.000000000000
         C            1.314843814936    -1.428732607347     0.257021668864    12.000000000000
         C            2.949449814936     0.789977392653    -0.127212331136    12.000000000000
         C            0.964652814936     2.300252392653    -0.542140331136    12.000000000000
         C            2.700827814936    -1.568815607347     0.336322668864    12.000000000000
         C            3.518670814936    -0.454019607347     0.150350668864    12.000000000000
         H           -2.756037185064     0.282164392653    -1.756231331136     1.007825032230
         H           -3.411567185064    -1.374931607347    -1.574249331136     1.007825032230
         H           -3.219207185064     1.063309392653     1.862354668864     1.007825032230
         H           -2.653983185064     1.753929392653     0.309596668864     1.007825032230
         H           -1.467716185064    -2.004910607347    -0.163485331136     1.007825032230
         H           -0.881155185064    -1.349442607347    -1.703753331136     1.007825032230
         H           -0.691555185064     1.096294392653     1.657520668864     1.007825032230
         H           -1.312919185064    -0.550836607347     1.849185668864     1.007825032230
         H           -4.419921185064     0.177571392653    -0.033132331136     1.007825032230
         H           -3.598848185064    -1.006807607347     0.764643668864     1.007825032230
         H            0.681053814936    -2.298646607347     0.415735668864     1.007825032230
         H            3.594893814936     1.652131392653    -0.282349331136     1.007825032230
         H            0.167756814936     2.210652392653    -1.284576331136     1.007825032230
         H            0.536897814936     2.775648392653     0.348737668864     1.007825032230
         H            1.730876814936     2.974770392653    -0.931576331136     1.007825032230
         H            3.136215814936    -2.540632607347     0.553088668864     1.007825032230
         H            4.599028814936    -0.553554607347     0.211738668864     1.007825032230

  Basis Set: AUG-CC-PVTZ
    Blend: AUG-CC-PVTZ
  Basis Set: (AUG-CC-PVTZ AUX)
    Blend: AUG-CC-PVTZ-JKFIT
	 Reference Energy          =    -535.2753254223066506 [Eh]
	 Singles Energy            =      -0.0000000000000000 [Eh]
	 Same-Spin Energy          =      -0.5855115141017705 [Eh]
	 Opposite-Spin Energy      =      -1.9189027125587503 [Eh]
	 Correlation Energy        =      -2.5044142266605207 [Eh]
	 Total Energy              =    -537.7797396489671655 [Eh]

	 ================> DF-SCS-MP2 Energies <==================
	-----------------------------------------------------------
	 SCS Same-Spin Scale       =       0.3333333333333333 [-]
	 SCS Opposite-Spin Scale   =       1.2000000000000000 [-]
	 SCS Same-Spin Energy      =      -0.1951705047005902 [Eh]
	 SCS Opposite-Spin Energy  =      -2.3026832550705003 [Eh]
	 SCS Correlation Energy    =      -2.4978537597710906 [Eh]
	 SCS Total Energy          =    -537.7731791820777971 [Eh]
	-----------------------------------------------------------

  Dipole Moment: [D]
     X:   -11.9791      Y:    -0.6111      Z:     0.7743     Total:    12.0197

*** Psi4 exiting successfully. Buy a developer a beer!
