                               Psi4 1.4a3.dev225

  ==> Input File <==

--------------------------------------------------------------------------
#psi4
#
memory 32 gb

molecule  {
1 1
  N       -3.4197460    -0.1817000     0.1602720
  N       -0.5936804     0.1380720    -0.1568765
  C       -2.7377630    -0.6049400    -1.1216890
  C       -2.6265040     0.8533270     0.9259500
  C       -1.3397990    -1.0900720    -0.7822260
  C       -1.2267490     0.3141230     1.1574790
  C        0.8091060    -0.1845140    -0.0397240
  C        1.6179690     0.9496740    -0.2359790
  C        1.3698700    -1.4337860     0.2499420
  C        3.0044760     0.7849240    -0.1342920
  C        1.0196790     2.2951990    -0.5492200
  C        2.7558540    -1.5738690     0.3292430
  C        3.5736970    -0.4590730     0.1432710
  H       -2.7010110     0.2771110    -1.7633110
  H       -3.3565410    -1.3799850    -1.5813290
  H       -3.1641810     1.0582560     1.8552750
  H       -2.5989570     1.7488760     0.3025170
  H       -1.4126900    -2.0099640    -0.1705650
  H       -0.8261290    -1.3544960    -1.7108330
  H       -0.6365290     1.0912410     1.6504410
  H       -1.2578930    -0.5558900     1.8421060
  H       -4.3648950     0.1725180    -0.0402120
  H       -3.5438220    -1.0118610     0.7575640
  H        0.7360800    -2.3037000     0.4086560
  H        3.6499200     1.6470780    -0.2894290
  H        0.2227830     2.2055990    -1.2916560
  H        0.5919240     2.7705950     0.3416580
  H        1.7859030     2.9697170    -0.9386560
  H        3.1912420    -2.5456860     0.5460090
  H        4.6540550    -0.5586080     0.2046590
units angstrom
no_reorient  #important for SAPT in psi4, default
symmetry c1  #important for SAPT in psi4, default
}

set PROPERTIES_ORIGIN ["COM"]
properties('MP2/aug-cc-pvtz', properties = ['dipole'])
--------------------------------------------------------------------------

    Molecular point group: c1
  Charge       = 1
  Multiplicity = 1
  Basis Set: AUG-CC-PVTZ
    Blend: AUG-CC-PVTZ
  Basis Set: (AUG-CC-PVTZ AUX)
    Blend: AUG-CC-PVTZ-JKFIT

    Orbital Energies [Eh]
    ---------------------

    Doubly Occupied:

       1A    -15.866669     2A    -15.716979     3A    -11.457699
       4A    -11.456364     5A    -11.422422     6A    -11.416743
       7A    -11.373672     8A    -11.342835     9A    -11.341213
      10A    -11.332691    11A    -11.328960    12A    -11.327587
      13A    -11.320803    14A     -1.496663    15A     -1.377881
      16A     -1.247717    17A     -1.219222    18A     -1.158294
      19A     -1.140094    20A     -1.086502    21A     -1.044986
      22A     -1.029263    23A     -1.000231    24A     -0.937037
      25A     -0.922717    26A     -0.898961    27A     -0.869970
      28A     -0.825149    29A     -0.809417    30A     -0.783402
      31A     -0.778713    32A     -0.752408    33A     -0.744446
      34A     -0.734377    35A     -0.712987    36A     -0.704878
      37A     -0.689598    38A     -0.672487    39A     -0.668704
      40A     -0.658018    41A     -0.640943    42A     -0.637358
      43A     -0.600971    44A     -0.588264    45A     -0.582807
      46A     -0.538905    47A     -0.433911    48A     -0.422919

  @DF-RHF Final Energy:  -535.29069912416128

   => Energetics <=

    Nuclear Repulsion Energy =            819.1770265809053626
    One-Electron Energy =               -2336.7057776178671702
    Two-Electron Energy =                 982.2380519128004153
    Total Energy =                       -535.2906991241612786
  Basis Set: (AUG-CC-PVTZ AUX)
    Blend: AUG-CC-PVTZ-RI
    Molecular point group: c1

    Geometry (in Angstrom), charge = 1, multiplicity = 1:

       Center              X                  Y                   Z               Mass
    ------------   -----------------  -----------------  -----------------  -----------------
         N           -3.472452118486    -0.180792062642     0.163182349542    14.003074004430
         N           -0.646386518486     0.138979937358    -0.153966150458    14.003074004430
         C           -2.790469118486    -0.604032062642    -1.118778650458    12.000000000000
         C           -2.679210118486     0.854234937358     0.928860349542    12.000000000000
         C           -1.392505118486    -1.089164062642    -0.779315650458    12.000000000000
         C           -1.279455118486     0.315030937358     1.160389349542    12.000000000000
         C            0.756399881514    -0.183606062642    -0.036813650458    12.000000000000
         C            1.565262881514     0.950581937358    -0.233068650458    12.000000000000
         C            1.317163881514    -1.432878062642     0.252852349542    12.000000000000
         C            2.951769881514     0.785831937358    -0.131381650458    12.000000000000
         C            0.966972881514     2.296106937358    -0.546309650458    12.000000000000
         C            2.703147881514    -1.572961062642     0.332153349542    12.000000000000
         C            3.520990881514    -0.458165062642     0.146181349542    12.000000000000
         H           -2.753717118486     0.278018937358    -1.760400650458     1.007825032230
         H           -3.409247118486    -1.379077062642    -1.578418650458     1.007825032230
         H           -3.216887118486     1.059163937358     1.858185349542     1.007825032230
         H           -2.651663118486     1.749783937358     0.305427349542     1.007825032230
         H           -1.465396118486    -2.009056062642    -0.167654650458     1.007825032230
         H           -0.878835118486    -1.353588062642    -1.707922650458     1.007825032230
         H           -0.689235118486     1.092148937358     1.653351349542     1.007825032230
         H           -1.310599118486    -0.554982062642     1.845016349542     1.007825032230
         H           -4.417601118486     0.173425937358    -0.037301650458     1.007825032230
         H           -3.596528118486    -1.010953062642     0.760474349542     1.007825032230
         H            0.683373881514    -2.302792062642     0.411566349542     1.007825032230
         H            3.597213881514     1.647985937358    -0.286518650458     1.007825032230
         H            0.170076881514     2.206506937358    -1.288745650458     1.007825032230
         H            0.539217881514     2.771502937358     0.344568349542     1.007825032230
         H            1.733196881514     2.970624937358    -0.935745650458     1.007825032230
         H            3.138535881514    -2.544778062642     0.548919349542     1.007825032230
         H            4.601348881514    -0.557700062642     0.207569349542     1.007825032230

  Basis Set: AUG-CC-PVTZ
    Blend: AUG-CC-PVTZ
  Basis Set: (AUG-CC-PVTZ AUX)
    Blend: AUG-CC-PVTZ-JKFIT
	 Reference Energy          =    -535.2906991241612786 [Eh]
	 Singles Energy            =      -0.0000000000000000 [Eh]
	 Same-Spin Energy          =      -0.5864899866384246 [Eh]
	 Opposite-Spin Energy      =      -1.9212420014507616 [Eh]
	 Correlation Energy        =      -2.5077319880891862 [Eh]
	 Total Energy              =    -537.7984311122504550 [Eh]

	 ================> DF-SCS-MP2 Energies <==================
	-----------------------------------------------------------
	 SCS Same-Spin Scale       =       0.3333333333333333 [-]
	 SCS Opposite-Spin Scale   =       1.2000000000000000 [-]
	 SCS Same-Spin Energy      =      -0.1954966622128082 [Eh]
	 SCS Opposite-Spin Energy  =      -2.3054904017409137 [Eh]
	 SCS Correlation Energy    =      -2.5009870639537217 [Eh]
	 SCS Total Energy          =    -537.7916861881150226 [Eh]
	-----------------------------------------------------------

  Dipole Moment: [D]
     X:   -12.2175      Y:    -1.0316      Z:     0.8155     Total:    12.2881

*** Psi4 exiting successfully. Buy a developer a beer!
