                               Psi4 1.4a3.dev225

  ==> Input File <==

--------------------------------------------------------------------------
#psi4
#
memory 32 gb

molecule  {
1 1
  N       -3.4197460    -0.1817000     0.1602720
  N       -0.6214370    -0.0078370    -0.1287630
  C       -2.7377630    -0.6049400    -1.1216890
  C       -2.6265040     0.8533270     0.9259500
  C       -1.3397990    -1.0900720    -0.7822260
  C       -1.2451937     0.3212282     1.1544281
  C        0.8091060    -0.1845140    -0.0397240
  C        1.6179690     0.9496740    -0.2359790
  C        1.3698700    -1.4337860     0.2499420
  C        3.0044760     0.7849240    -0.1342920
  C        1.0196790     2.2951990    -0.5492200
  C        2.7558540    -1.5738690     0.3292430
  C        3.5736970    -0.4590730     0.1432710
  H       -2.7010110     0.2771110    -1.7633110
  H       -3.3565410    -1.3799850    -1.5813290
  H       -3.1641810     1.0582560     1.8552750
  H       -2.5989570     1.7488760     0.3025170
  H       -1.4126900    -2.0099640    -0.1705650
  H       -0.8261290    -1.3544960    -1.7108330
  H       -0.6365290     1.0912410     1.6504410
  H       -1.2578930    -0.5558900     1.8421060
  H       -4.3648950     0.1725180    -0.0402120
  H       -3.5438220    -1.0118610     0.7575640
  H        0.7360800    -2.3037000     0.4086560
  H        3.6499200     1.6470780    -0.2894290
  H        0.2227830     2.2055990    -1.2916560
  H        0.5919240     2.7705950     0.3416580
  H        1.7859030     2.9697170    -0.9386560
  H        3.1912420    -2.5456860     0.5460090
  H        4.6540550    -0.5586080     0.2046590
units angstrom
no_reorient  #important for SAPT in psi4, default
symmetry c1  #important for SAPT in psi4, default
}

set PROPERTIES_ORIGIN ["COM"]
properties('MP2/aug-cc-pvtz', properties = ['dipole'])
--------------------------------------------------------------------------

    Molecular point group: c1
  Charge       = 1
  Multiplicity = 1
  Basis Set: AUG-CC-PVTZ
    Blend: AUG-CC-PVTZ
  Basis Set: (AUG-CC-PVTZ AUX)
    Blend: AUG-CC-PVTZ-JKFIT

    Orbital Energies [Eh]
    ---------------------

    Doubly Occupied:

       1A    -15.866869     2A    -15.702902     3A    -11.456998
       4A    -11.456860     5A    -11.417445     6A    -11.417136
       7A    -11.375238     8A    -11.344360     9A    -11.340144
      10A    -11.331733    11A    -11.329830    12A    -11.328577
      13A    -11.323518    14A     -1.498253    15A     -1.388700
      16A     -1.249947    17A     -1.224026    18A     -1.156691
      19A     -1.142864    20A     -1.088364    21A     -1.052364
      22A     -1.031963    23A     -0.996073    24A     -0.935512
      25A     -0.924402    26A     -0.903353    27A     -0.867408
      28A     -0.824398    29A     -0.810393    30A     -0.792527
      31A     -0.788393    32A     -0.754928    33A     -0.745268
      34A     -0.736981    35A     -0.714882    36A     -0.703644
      37A     -0.687670    38A     -0.675063    39A     -0.669391
      40A     -0.658193    41A     -0.656183    42A     -0.640421
      43A     -0.599757    44A     -0.591966    45A     -0.587987
      46A     -0.521187    47A     -0.433417    48A     -0.423340

  @DF-RHF Final Energy:  -535.30829195957028

   => Energetics <=

    Nuclear Repulsion Energy =            820.2945800852697857
    One-Electron Energy =               -2338.8707083439890084
    Two-Electron Energy =                 983.2678362991488257
    Total Energy =                       -535.3082919595702833
  Basis Set: (AUG-CC-PVTZ AUX)
    Blend: AUG-CC-PVTZ-RI
    Molecular point group: c1

    Geometry (in Angstrom), charge = 1, multiplicity = 1:

       Center              X                  Y                   Z               Mass
    ------------   -----------------  -----------------  -----------------  -----------------
         N           -3.469008418758    -0.169739103064     0.161166620250    14.003074004430
         N           -0.670699418758     0.004123896936    -0.127868379750    14.003074004430
         C           -2.787025418758    -0.592979103064    -1.120794379750    12.000000000000
         C           -2.675766418758     0.865287896936     0.926844620250    12.000000000000
         C           -1.389061418758    -1.078111103064    -0.781331379750    12.000000000000
         C           -1.294456118758     0.333189096936     1.155322720250    12.000000000000
         C            0.759843581242    -0.172553103064    -0.038829379750    12.000000000000
         C            1.568706581242     0.961634896936    -0.235084379750    12.000000000000
         C            1.320607581242    -1.421825103064     0.250836620250    12.000000000000
         C            2.955213581242     0.796884896936    -0.133397379750    12.000000000000
         C            0.970416581242     2.307159896936    -0.548325379750    12.000000000000
         C            2.706591581242    -1.561908103064     0.330137620250    12.000000000000
         C            3.524434581242    -0.447112103064     0.144165620250    12.000000000000
         H           -2.750273418758     0.289071896936    -1.762416379750     1.007825032230
         H           -3.405803418758    -1.368024103064    -1.580434379750     1.007825032230
         H           -3.213443418758     1.070216896936     1.856169620250     1.007825032230
         H           -2.648219418758     1.760836896936     0.303411620250     1.007825032230
         H           -1.461952418758    -1.998003103064    -0.169670379750     1.007825032230
         H           -0.875391418758    -1.342535103064    -1.709938379750     1.007825032230
         H           -0.685791418758     1.103201896936     1.651335620250     1.007825032230
         H           -1.307155418758    -0.543929103064     1.843000620250     1.007825032230
         H           -4.414157418758     0.184478896936    -0.039317379750     1.007825032230
         H           -3.593084418758    -0.999900103064     0.758458620250     1.007825032230
         H            0.686817581242    -2.291739103064     0.409550620250     1.007825032230
         H            3.600657581242     1.659038896936    -0.288534379750     1.007825032230
         H            0.173520581242     2.217559896936    -1.290761379750     1.007825032230
         H            0.542661581242     2.782555896936     0.342552620250     1.007825032230
         H            1.736640581242     2.981677896936    -0.937761379750     1.007825032230
         H            3.141979581242    -2.533725103064     0.546903620250     1.007825032230
         H            4.604792581242    -0.546647103064     0.205553620250     1.007825032230

  Basis Set: AUG-CC-PVTZ
    Blend: AUG-CC-PVTZ
  Basis Set: (AUG-CC-PVTZ AUX)
    Blend: AUG-CC-PVTZ-JKFIT
	 Reference Energy          =    -535.3082919595702833 [Eh]
	 Singles Energy            =      -0.0000000000000000 [Eh]
	 Same-Spin Energy          =      -0.5854378508181594 [Eh]
	 Opposite-Spin Energy      =      -1.9172702943398097 [Eh]
	 Correlation Energy        =      -2.5027081451579689 [Eh]
	 Total Energy              =    -537.8110001047282367 [Eh]

	 ================> DF-SCS-MP2 Energies <==================
	-----------------------------------------------------------
	 SCS Same-Spin Scale       =       0.3333333333333333 [-]
	 SCS Opposite-Spin Scale   =       1.2000000000000000 [-]
	 SCS Same-Spin Energy      =      -0.1951459502727198 [Eh]
	 SCS Opposite-Spin Energy  =      -2.3007243532077717 [Eh]
	 SCS Correlation Energy    =      -2.4958703034804914 [Eh]
	 SCS Total Energy          =    -537.8041622630507845 [Eh]
	-----------------------------------------------------------

  Dipole Moment: [D]
     X:   -12.1165      Y:    -0.6694      Z:     0.7420     Total:    12.1576

*** Psi4 exiting successfully. Buy a developer a beer!
