                               Psi4 1.4a3.dev225

  ==> Input File <==

--------------------------------------------------------------------------
#psi4
#
memory 32 gb

molecule  {
1 1
  N       -3.4197460    -0.1817000     0.1602720
  N       -0.6214370    -0.0078370    -0.1287630
  C       -2.7377630    -0.6049400    -1.1216890
  C       -2.6265040     0.8533270     0.9259500
  C       -1.3397990    -1.0900720    -0.7822260
  C       -1.2267490     0.3141230     1.1574790
  C        0.8091060    -0.1845140    -0.0397240
  C        1.5604734     0.8690536    -0.2220288
  C        1.3698700    -1.4337860     0.2499420
  C        3.0044760     0.7849240    -0.1342920
  C        1.0196790     2.2951990    -0.5492200
  C        2.7558540    -1.5738690     0.3292430
  C        3.5736970    -0.4590730     0.1432710
  H       -2.7010110     0.2771110    -1.7633110
  H       -3.3565410    -1.3799850    -1.5813290
  H       -3.1641810     1.0582560     1.8552750
  H       -2.5989570     1.7488760     0.3025170
  H       -1.4126900    -2.0099640    -0.1705650
  H       -0.8261290    -1.3544960    -1.7108330
  H       -0.6365290     1.0912410     1.6504410
  H       -1.2578930    -0.5558900     1.8421060
  H       -4.3648950     0.1725180    -0.0402120
  H       -3.5438220    -1.0118610     0.7575640
  H        0.7360800    -2.3037000     0.4086560
  H        3.6499200     1.6470780    -0.2894290
  H        0.2227830     2.2055990    -1.2916560
  H        0.5919240     2.7705950     0.3416580
  H        1.7859030     2.9697170    -0.9386560
  H        3.1912420    -2.5456860     0.5460090
  H        4.6540550    -0.5586080     0.2046590
units angstrom
no_reorient  #important for SAPT in psi4, default
symmetry c1  #important for SAPT in psi4, default
}

set PROPERTIES_ORIGIN ["COM"]
properties('MP2/aug-cc-pvtz', properties = ['dipole'])
--------------------------------------------------------------------------

    Molecular point group: c1
  Charge       = 1
  Multiplicity = 1
  Basis Set: AUG-CC-PVTZ
    Blend: AUG-CC-PVTZ
  Basis Set: (AUG-CC-PVTZ AUX)
    Blend: AUG-CC-PVTZ-JKFIT

    Orbital Energies [Eh]
    ---------------------

    Doubly Occupied:

       1A    -15.866444     2A    -15.701776     3A    -11.456666
       4A    -11.456559     5A    -11.417327     6A    -11.416863
       7A    -11.364065     8A    -11.339838     9A    -11.339493
      10A    -11.335194    11A    -11.332832    12A    -11.328465
      13A    -11.325624    14A     -1.497348    15A     -1.391865
      16A     -1.255395    17A     -1.221641    18A     -1.159025
      19A     -1.133121    20A     -1.090888    21A     -1.053265
      22A     -1.030492    23A     -0.995554    24A     -0.940661
      25A     -0.926475    26A     -0.903774    27A     -0.866437
      28A     -0.823532    29A     -0.810047    30A     -0.794388
      31A     -0.788431    32A     -0.755541    33A     -0.743384
      34A     -0.734581    35A     -0.715636    36A     -0.706327
      37A     -0.687455    38A     -0.672588    39A     -0.663319
      40A     -0.658568    41A     -0.656527    42A     -0.641720
      43A     -0.604456    44A     -0.594188    45A     -0.576572
      46A     -0.521773    47A     -0.439288    48A     -0.424676

  @DF-RHF Final Energy:  -535.29749411438911

   => Energetics <=

    Nuclear Repulsion Energy =            821.6202955506505532
    One-Electron Energy =               -2341.5154110383377883
    Two-Electron Energy =                 984.5976213732981250
    Total Energy =                       -535.2974941143891101
  Basis Set: (AUG-CC-PVTZ AUX)
    Blend: AUG-CC-PVTZ-RI
    Molecular point group: c1

    Geometry (in Angstrom), charge = 1, multiplicity = 1:

       Center              X                  Y                   Z               Mass
    ------------   -----------------  -----------------  -----------------  -----------------
         N           -3.466362980199    -0.163796277551     0.160014908881    14.003074004430
         N           -0.668053980199     0.010066722449    -0.129020091119    14.003074004430
         C           -2.784379980199    -0.587036277551    -1.121946091119    12.000000000000
         C           -2.673120980199     0.871230722449     0.925692908881    12.000000000000
         C           -1.386415980199    -1.072168277551    -0.782483091119    12.000000000000
         C           -1.273365980199     0.332026722449     1.157221908881    12.000000000000
         C            0.762489019801    -0.166610277551    -0.039981091119    12.000000000000
         C            1.513856419801     0.886957322449    -0.222285891119    12.000000000000
         C            1.323253019801    -1.415882277551     0.249684908881    12.000000000000
         C            2.957859019801     0.802827722449    -0.134549091119    12.000000000000
         C            0.973062019801     2.313102722449    -0.549477091119    12.000000000000
         C            2.709237019801    -1.555965277551     0.328985908881    12.000000000000
         C            3.527080019801    -0.441169277551     0.143013908881    12.000000000000
         H           -2.747627980199     0.295014722449    -1.763568091119     1.007825032230
         H           -3.403157980199    -1.362081277551    -1.581586091119     1.007825032230
         H           -3.210797980199     1.076159722449     1.855017908881     1.007825032230
         H           -2.645573980199     1.766779722449     0.302259908881     1.007825032230
         H           -1.459306980199    -1.992060277551    -0.170822091119     1.007825032230
         H           -0.872745980199    -1.336592277551    -1.711090091119     1.007825032230
         H           -0.683145980199     1.109144722449     1.650183908881     1.007825032230
         H           -1.304509980199    -0.537986277551     1.841848908881     1.007825032230
         H           -4.411511980199     0.190421722449    -0.040469091119     1.007825032230
         H           -3.590438980199    -0.993957277551     0.757306908881     1.007825032230
         H            0.689463019801    -2.285796277551     0.408398908881     1.007825032230
         H            3.603303019801     1.664981722449    -0.289686091119     1.007825032230
         H            0.176166019801     2.223502722449    -1.291913091119     1.007825032230
         H            0.545307019801     2.788498722449     0.341400908881     1.007825032230
         H            1.739286019801     2.987620722449    -0.938913091119     1.007825032230
         H            3.144625019801    -2.527782277551     0.545751908881     1.007825032230
         H            4.607438019801    -0.540704277551     0.204401908881     1.007825032230

  Basis Set: AUG-CC-PVTZ
    Blend: AUG-CC-PVTZ
  Basis Set: (AUG-CC-PVTZ AUX)
    Blend: AUG-CC-PVTZ-JKFIT
	 Reference Energy          =    -535.2974941143891101 [Eh]
	 Singles Energy            =      -0.0000000000000000 [Eh]
	 Same-Spin Energy          =      -0.5845321422294758 [Eh]
	 Opposite-Spin Energy      =      -1.9168648854195940 [Eh]
	 Correlation Energy        =      -2.5013970276490696 [Eh]
	 Total Energy              =    -537.7988911420382010 [Eh]

	 ================> DF-SCS-MP2 Energies <==================
	-----------------------------------------------------------
	 SCS Same-Spin Scale       =       0.3333333333333333 [-]
	 SCS Opposite-Spin Scale   =       1.2000000000000000 [-]
	 SCS Same-Spin Energy      =      -0.1948440474098252 [Eh]
	 SCS Opposite-Spin Energy  =      -2.3002378625035127 [Eh]
	 SCS Correlation Energy    =      -2.4950819099133379 [Eh]
	 SCS Total Energy          =    -537.7925760243024342 [Eh]
	-----------------------------------------------------------

  Dipole Moment: [D]
     X:   -12.0066      Y:    -0.6814      Z:     0.7334     Total:    12.0482

*** Psi4 exiting successfully. Buy a developer a beer!
