                               Psi4 1.4a3.dev225

  ==> Input File <==

--------------------------------------------------------------------------
#psi4
#
memory 32 gb

molecule  {
1 1
  N       -3.4197460    -0.1817000     0.1602720
  N       -0.6214370    -0.0078370    -0.1287630
  C       -2.7377630    -0.6049400    -1.1216890
  C       -2.6265040     0.8533270     0.9259500
  C       -1.3397990    -1.0900720    -0.7822260
  C       -1.2267490     0.3141230     1.1574790
  C        0.8091060    -0.1845140    -0.0397240
  C        1.6179690     0.9496740    -0.2359790
  C        1.3727432    -1.4100281     0.2454318
  C        3.0044760     0.7849240    -0.1342920
  C        1.0196790     2.2951990    -0.5492200
  C        2.7558540    -1.5738690     0.3292430
  C        3.5736970    -0.4590730     0.1432710
  H       -2.7010110     0.2771110    -1.7633110
  H       -3.3565410    -1.3799850    -1.5813290
  H       -3.1641810     1.0582560     1.8552750
  H       -2.5989570     1.7488760     0.3025170
  H       -1.4126900    -2.0099640    -0.1705650
  H       -0.8261290    -1.3544960    -1.7108330
  H       -0.6365290     1.0912410     1.6504410
  H       -1.2578930    -0.5558900     1.8421060
  H       -4.3648950     0.1725180    -0.0402120
  H       -3.5438220    -1.0118610     0.7575640
  H        0.7360800    -2.3037000     0.4086560
  H        3.6499200     1.6470780    -0.2894290
  H        0.2227830     2.2055990    -1.2916560
  H        0.5919240     2.7705950     0.3416580
  H        1.7859030     2.9697170    -0.9386560
  H        3.1912420    -2.5456860     0.5460090
  H        4.6540550    -0.5586080     0.2046590
units angstrom
no_reorient  #important for SAPT in psi4, default
symmetry c1  #important for SAPT in psi4, default
}

set PROPERTIES_ORIGIN ["COM"]
properties('MP2/aug-cc-pvtz', properties = ['dipole'])
--------------------------------------------------------------------------

    Molecular point group: c1
  Charge       = 1
  Multiplicity = 1
  Basis Set: AUG-CC-PVTZ
    Blend: AUG-CC-PVTZ
  Basis Set: (AUG-CC-PVTZ AUX)
    Blend: AUG-CC-PVTZ-JKFIT

    Orbital Energies [Eh]
    ---------------------

    Doubly Occupied:

       1A    -15.866658     2A    -15.703271     3A    -11.456859
       4A    -11.456800     5A    -11.417478     6A    -11.417374
       7A    -11.372998     8A    -11.344319     9A    -11.339847
      10A    -11.331513    11A    -11.329522    12A    -11.328347
      13A    -11.323458    14A     -1.497571    15A     -1.390677
      16A     -1.251786    17A     -1.221896    18A     -1.155847
      19A     -1.142806    20A     -1.089181    21A     -1.053542
      22A     -1.032423    23A     -0.996226    24A     -0.934812
      25A     -0.923575    26A     -0.904110    27A     -0.867878
      28A     -0.823753    29A     -0.811147    30A     -0.793447
      31A     -0.788663    32A     -0.752646    33A     -0.745812
      34A     -0.734863    35A     -0.714793    36A     -0.703298
      37A     -0.687800    38A     -0.675269    39A     -0.668616
      40A     -0.659982    41A     -0.655827    42A     -0.640472
      43A     -0.600723    44A     -0.590286    45A     -0.588081
      46A     -0.522532    47A     -0.435297    48A     -0.423187

  @DF-RHF Final Energy:  -535.30843179250405

   => Energetics <=

    Nuclear Repulsion Energy =            820.7386841190668747
    One-Electron Energy =               -2339.7596935687620316
    Two-Electron Energy =                 983.7125776571911047
    Total Energy =                       -535.3084317925040523
  Basis Set: (AUG-CC-PVTZ AUX)
    Blend: AUG-CC-PVTZ-RI
    Molecular point group: c1

    Geometry (in Angstrom), charge = 1, multiplicity = 1:

       Center              X                  Y                   Z               Mass
    ------------   -----------------  -----------------  -----------------  -----------------
         N           -3.470452564594    -0.170867212652     0.161265478112    14.003074004430
         N           -0.672143564594     0.002995787348    -0.127769521888    14.003074004430
         C           -2.788469564594    -0.594107212652    -1.120695521888    12.000000000000
         C           -2.677210564594     0.864159787348     0.926943478112    12.000000000000
         C           -1.390505564594    -1.079239212652    -0.781232521888    12.000000000000
         C           -1.277455564594     0.324955787348     1.158472478112    12.000000000000
         C            0.758399435406    -0.173681212652    -0.038730521888    12.000000000000
         C            1.567262435406     0.960506787348    -0.234985521888    12.000000000000
         C            1.322036635406    -1.399195312652     0.246425278112    12.000000000000
         C            2.953769435406     0.795756787348    -0.133298521888    12.000000000000
         C            0.968972435406     2.306031787348    -0.548226521888    12.000000000000
         C            2.705147435406    -1.563036212652     0.330236478112    12.000000000000
         C            3.522990435406    -0.448240212652     0.144264478112    12.000000000000
         H           -2.751717564594     0.287943787348    -1.762317521888     1.007825032230
         H           -3.407247564594    -1.369152212652    -1.580335521888     1.007825032230
         H           -3.214887564594     1.069088787348     1.856268478112     1.007825032230
         H           -2.649663564594     1.759708787348     0.303510478112     1.007825032230
         H           -1.463396564594    -1.999131212652    -0.169571521888     1.007825032230
         H           -0.876835564594    -1.343663212652    -1.709839521888     1.007825032230
         H           -0.687235564594     1.102073787348     1.651434478112     1.007825032230
         H           -1.308599564594    -0.545057212652     1.843099478112     1.007825032230
         H           -4.415601564594     0.183350787348    -0.039218521888     1.007825032230
         H           -3.594528564594    -1.001028212652     0.758557478112     1.007825032230
         H            0.685373435406    -2.292867212652     0.409649478112     1.007825032230
         H            3.599213435406     1.657910787348    -0.288435521888     1.007825032230
         H            0.172076435406     2.216431787348    -1.290662521888     1.007825032230
         H            0.541217435406     2.781427787348     0.342651478112     1.007825032230
         H            1.735196435406     2.980549787348    -0.937662521888     1.007825032230
         H            3.140535435406    -2.534853212652     0.547002478112     1.007825032230
         H            4.603348435406    -0.547775212652     0.205652478112     1.007825032230

  Basis Set: AUG-CC-PVTZ
    Blend: AUG-CC-PVTZ
  Basis Set: (AUG-CC-PVTZ AUX)
    Blend: AUG-CC-PVTZ-JKFIT
	 Reference Energy          =    -535.3084317925040523 [Eh]
	 Singles Energy            =      -0.0000000000000000 [Eh]
	 Same-Spin Energy          =      -0.5852844027385157 [Eh]
	 Opposite-Spin Energy      =      -1.9170288460253870 [Eh]
	 Correlation Energy        =      -2.5023132487639028 [Eh]
	 Total Energy              =    -537.8107450412679782 [Eh]

	 ================> DF-SCS-MP2 Energies <==================
	-----------------------------------------------------------
	 SCS Same-Spin Scale       =       0.3333333333333333 [-]
	 SCS Opposite-Spin Scale   =       1.2000000000000000 [-]
	 SCS Same-Spin Energy      =      -0.1950948009128385 [Eh]
	 SCS Opposite-Spin Energy  =      -2.3004346152304644 [Eh]
	 SCS Correlation Energy    =      -2.4955294161433028 [Eh]
	 SCS Total Energy          =    -537.8039612086473653 [Eh]
	-----------------------------------------------------------

  Dipole Moment: [D]
     X:   -12.1033      Y:    -0.6993      Z:     0.7371     Total:    12.1458

*** Psi4 exiting successfully. Buy a developer a beer!
