                               Psi4 1.4a3.dev225

  ==> Input File <==

--------------------------------------------------------------------------
#psi4
#
memory 32 gb

molecule  {
1 1
  N       -3.4197460    -0.1817000     0.1602720
  N       -0.6214370    -0.0078370    -0.1287630
  C       -2.7377630    -0.6049400    -1.1216890
  C       -2.6361366     0.8345408     0.9419504
  C       -1.3397990    -1.0900720    -0.7822260
  C       -1.2267490     0.3141230     1.1574790
  C        0.8091060    -0.1845140    -0.0397240
  C        1.6179690     0.9496740    -0.2359790
  C        1.3698700    -1.4337860     0.2499420
  C        3.0044760     0.7849240    -0.1342920
  C        1.0196790     2.2951990    -0.5492200
  C        2.7558540    -1.5738690     0.3292430
  C        3.5736970    -0.4590730     0.1432710
  H       -2.7010110     0.2771110    -1.7633110
  H       -3.3565410    -1.3799850    -1.5813290
  H       -3.1641810     1.0582560     1.8552750
  H       -2.5989570     1.7488760     0.3025170
  H       -1.4126900    -2.0099640    -0.1705650
  H       -0.8261290    -1.3544960    -1.7108330
  H       -0.6365290     1.0912410     1.6504410
  H       -1.2578930    -0.5558900     1.8421060
  H       -4.3648950     0.1725180    -0.0402120
  H       -3.5438220    -1.0118610     0.7575640
  H        0.7360800    -2.3037000     0.4086560
  H        3.6499200     1.6470780    -0.2894290
  H        0.2227830     2.2055990    -1.2916560
  H        0.5919240     2.7705950     0.3416580
  H        1.7859030     2.9697170    -0.9386560
  H        3.1912420    -2.5456860     0.5460090
  H        4.6540550    -0.5586080     0.2046590
units angstrom
no_reorient  #important for SAPT in psi4, default
symmetry c1  #important for SAPT in psi4, default
}

set PROPERTIES_ORIGIN ["COM"]
properties('MP2/aug-cc-pvtz', properties = ['dipole'])
--------------------------------------------------------------------------

    Molecular point group: c1
  Charge       = 1
  Multiplicity = 1
  Basis Set: AUG-CC-PVTZ
    Blend: AUG-CC-PVTZ
  Basis Set: (AUG-CC-PVTZ AUX)
    Blend: AUG-CC-PVTZ-JKFIT

    Orbital Energies [Eh]
    ---------------------

    Doubly Occupied:

       1A    -15.867606     2A    -15.703326     3A    -11.457449
       4A    -11.456563     5A    -11.417775     6A    -11.417187
       7A    -11.375244     8A    -11.344411     9A    -11.340235
      10A    -11.331806    11A    -11.329881    12A    -11.328629
      13A    -11.323450    14A     -1.499791    15A     -1.390390
      16A     -1.249926    17A     -1.222409    18A     -1.155514
      19A     -1.142595    20A     -1.087917    21A     -1.054518
      22A     -1.031846    23A     -0.995503    24A     -0.936583
      25A     -0.925283    26A     -0.903607    27A     -0.869014
      28A     -0.821639    29A     -0.809774    30A     -0.794839
      31A     -0.790042    32A     -0.755094    33A     -0.745121
      34A     -0.735600    35A     -0.714019    36A     -0.702602
      37A     -0.684033    38A     -0.675121    39A     -0.669576
      40A     -0.660611    41A     -0.656574    42A     -0.640463
      43A     -0.599851    44A     -0.591800    45A     -0.588111
      46A     -0.521527    47A     -0.433570    48A     -0.423512

  @DF-RHF Final Energy:  -535.30804712265547

   => Energetics <=

    Nuclear Repulsion Energy =            820.2683487677976473
    One-Electron Energy =               -2338.8089171030824218
    Two-Electron Energy =                 983.2325212126291945
    Total Energy =                       -535.3080471226554664
  Basis Set: (AUG-CC-PVTZ AUX)
    Blend: AUG-CC-PVTZ-RI
    Molecular point group: c1

    Geometry (in Angstrom), charge = 1, multiplicity = 1:

       Center              X                  Y                   Z               Mass
    ------------   -----------------  -----------------  -----------------  -----------------
         N           -3.469605379881    -0.167985133043     0.159876021477    14.003074004430
         N           -0.671296379881     0.005877866957    -0.129158978523    14.003074004430
         C           -2.787622379881    -0.591225133043    -1.122084978523    12.000000000000
         C           -2.685995979881     0.848255666957     0.941554421477    12.000000000000
         C           -1.389658379881    -1.076357133043    -0.782621978523    12.000000000000
         C           -1.276608379881     0.327837866957     1.157083021477    12.000000000000
         C            0.759246620119    -0.170799133043    -0.040119978523    12.000000000000
         C            1.568109620119     0.963388866957    -0.236374978523    12.000000000000
         C            1.320010620119    -1.420071133043     0.249546021477    12.000000000000
         C            2.954616620119     0.798638866957    -0.134687978523    12.000000000000
         C            0.969819620119     2.308913866957    -0.549615978523    12.000000000000
         C            2.705994620119    -1.560154133043     0.328847021477    12.000000000000
         C            3.523837620119    -0.445358133043     0.142875021477    12.000000000000
         H           -2.750870379881     0.290825866957    -1.763706978523     1.007825032230
         H           -3.406400379881    -1.366270133043    -1.581724978523     1.007825032230
         H           -3.214040379881     1.071970866957     1.854879021477     1.007825032230
         H           -2.648816379881     1.762590866957     0.302121021477     1.007825032230
         H           -1.462549379881    -1.996249133043    -0.170960978523     1.007825032230
         H           -0.875988379881    -1.340781133043    -1.711228978523     1.007825032230
         H           -0.686388379881     1.104955866957     1.650045021477     1.007825032230
         H           -1.307752379881    -0.542175133043     1.841710021477     1.007825032230
         H           -4.414754379881     0.186232866957    -0.040607978523     1.007825032230
         H           -3.593681379881    -0.998146133043     0.757168021477     1.007825032230
         H            0.686220620119    -2.289985133043     0.408260021477     1.007825032230
         H            3.600060620119     1.660792866957    -0.289824978523     1.007825032230
         H            0.172923620119     2.219313866957    -1.292051978523     1.007825032230
         H            0.542064620119     2.784309866957     0.341262021477     1.007825032230
         H            1.736043620119     2.983431866957    -0.939051978523     1.007825032230
         H            3.141382620119    -2.531971133043     0.545613021477     1.007825032230
         H            4.604195620119    -0.544893133043     0.204263021477     1.007825032230

  Basis Set: AUG-CC-PVTZ
    Blend: AUG-CC-PVTZ
  Basis Set: (AUG-CC-PVTZ AUX)
    Blend: AUG-CC-PVTZ-JKFIT
	 Reference Energy          =    -535.3080471226554664 [Eh]
	 Singles Energy            =      -0.0000000000000000 [Eh]
	 Same-Spin Energy          =      -0.5853674676467112 [Eh]
	 Opposite-Spin Energy      =      -1.9171806644300788 [Eh]
	 Correlation Energy        =      -2.5025481320767899 [Eh]
	 Total Energy              =    -537.8105952547322204 [Eh]

	 ================> DF-SCS-MP2 Energies <==================
	-----------------------------------------------------------
	 SCS Same-Spin Scale       =       0.3333333333333333 [-]
	 SCS Opposite-Spin Scale   =       1.2000000000000000 [-]
	 SCS Same-Spin Energy      =      -0.1951224892155704 [Eh]
	 SCS Opposite-Spin Energy  =      -2.3006167973160947 [Eh]
	 SCS Correlation Energy    =      -2.4957392865316650 [Eh]
	 SCS Total Energy          =    -537.8037864091871825 [Eh]
	-----------------------------------------------------------

  Dipole Moment: [D]
     X:   -12.1168      Y:    -0.7026      Z:     0.7246     Total:    12.1588

*** Psi4 exiting successfully. Buy a developer a beer!
