                               Psi4 1.4a3.dev225

  ==> Input File <==

--------------------------------------------------------------------------
#psi4
#
memory 32 gb

molecule  {
1 1
  N       -3.4197460    -0.1817000     0.1602720
  N       -0.6214370    -0.0078370    -0.1287630
  C       -2.7377630    -0.6049400    -1.1216890
  C       -2.6265040     0.8533270     0.9259500
  C       -1.3397990    -1.0900720    -0.7822260
  C       -1.2267490     0.3141230     1.1574790
  C        0.8091060    -0.1845140    -0.0397240
  C        1.6179690     0.9496740    -0.2359790
  C        1.3698700    -1.4337860     0.2499420
  C        3.0044760     0.7849240    -0.1342920
  C        1.0196790     2.2951990    -0.5492200
  C        2.7558540    -1.5738690     0.3292430
  C        3.5736970    -0.4590730     0.1432710
  H       -2.7010110     0.2771110    -1.7633110
  H       -3.3565410    -1.3799850    -1.5813290
  H       -3.1641810     1.0582560     1.8552750
  H       -2.5989570     1.7488760     0.3025170
  H       -1.4126900    -2.0099640    -0.1705650
  H       -0.8261290    -1.3544960    -1.7108330
  H       -0.6365290     1.0912410     1.6504410
  H       -1.2578930    -0.5558900     1.8421060
  H       -4.3648950     0.1725180    -0.0402120
  H       -3.5438220    -1.0118610     0.7575640
  H        0.7360800    -2.3037000     0.4086560
  H        3.6499200     1.6470780    -0.2894290
  H        0.2227830     2.2055990    -1.2916560
  H        0.5460393     2.7097460     0.3488086
  H        1.7859030     2.9697170    -0.9386560
  H        3.1912420    -2.5456860     0.5460090
  H        4.6540550    -0.5586080     0.2046590
units angstrom
no_reorient  #important for SAPT in psi4, default
symmetry c1  #important for SAPT in psi4, default
}

set PROPERTIES_ORIGIN ["COM"]
properties('MP2/aug-cc-pvtz', properties = ['dipole'])
--------------------------------------------------------------------------

    Molecular point group: c1
  Charge       = 1
  Multiplicity = 1
  Basis Set: AUG-CC-PVTZ
    Blend: AUG-CC-PVTZ
  Basis Set: (AUG-CC-PVTZ AUX)
    Blend: AUG-CC-PVTZ-JKFIT

    Orbital Energies [Eh]
    ---------------------

    Doubly Occupied:

       1A    -15.866812     2A    -15.703202     3A    -11.457030
       4A    -11.456929     5A    -11.417662     6A    -11.417599
       7A    -11.374955     8A    -11.344186     9A    -11.340200
      10A    -11.331546    11A    -11.329695    12A    -11.328492
      13A    -11.324115    14A     -1.497717    15A     -1.390419
      16A     -1.249909    17A     -1.222075    18A     -1.155768
      19A     -1.142883    20A     -1.088167    21A     -1.053715
      22A     -1.032075    23A     -0.996268    24A     -0.935556
      25A     -0.924401    26A     -0.902973    27A     -0.867592
      28A     -0.823938    29A     -0.810286    30A     -0.793752
      31A     -0.788697    32A     -0.754604    33A     -0.745132
      34A     -0.734713    35A     -0.714739    36A     -0.704645
      37A     -0.687825    38A     -0.676345    39A     -0.669355
      40A     -0.660135    41A     -0.655778    42A     -0.641845
      43A     -0.598945    44A     -0.591855    45A     -0.588172
      46A     -0.521786    47A     -0.433520    48A     -0.423099

  @DF-RHF Final Energy:  -535.30830594319013

   => Energetics <=

    Nuclear Repulsion Energy =            820.4648142425936612
    One-Electron Energy =               -2339.2040234558776319
    Two-Electron Energy =                 983.4309032700939497
    Total Energy =                       -535.3083059431901347
  Basis Set: (AUG-CC-PVTZ AUX)
    Blend: AUG-CC-PVTZ-RI
    Molecular point group: c1

    Geometry (in Angstrom), charge = 1, multiplicity = 1:

       Center              X                  Y                   Z               Mass
    ------------   -----------------  -----------------  -----------------  -----------------
         N           -3.469996865566    -0.168911575520     0.160919259077    14.003074004430
         N           -0.671687865566     0.004951424480    -0.128115740923    14.003074004430
         C           -2.788013865566    -0.592151575520    -1.121041740923    12.000000000000
         C           -2.676754865566     0.866115424480     0.926597259077    12.000000000000
         C           -1.390049865566    -1.077283575520    -0.781578740923    12.000000000000
         C           -1.276999865566     0.326911424480     1.158126259077    12.000000000000
         C            0.758855134434    -0.171725575520    -0.039076740923    12.000000000000
         C            1.567718134434     0.962462424480    -0.235331740923    12.000000000000
         C            1.319619134434    -1.420997575520     0.250589259077    12.000000000000
         C            2.954225134434     0.797712424480    -0.133644740923    12.000000000000
         C            0.969428134434     2.307987424480    -0.548572740923    12.000000000000
         C            2.705603134434    -1.561080575520     0.329890259077    12.000000000000
         C            3.523446134434    -0.446284575520     0.143918259077    12.000000000000
         H           -2.751261865566     0.289899424480    -1.762663740923     1.007825032230
         H           -3.406791865566    -1.367196575520    -1.580681740923     1.007825032230
         H           -3.214431865566     1.071044424480     1.855922259077     1.007825032230
         H           -2.649207865566     1.761664424480     0.303164259077     1.007825032230
         H           -1.462940865566    -1.997175575520    -0.169917740923     1.007825032230
         H           -0.876379865566    -1.341707575520    -1.710185740923     1.007825032230
         H           -0.686779865566     1.104029424480     1.651088259077     1.007825032230
         H           -1.308143865566    -0.543101575520     1.842753259077     1.007825032230
         H           -4.415145865566     0.185306424480    -0.039564740923     1.007825032230
         H           -3.594072865566    -0.999072575520     0.758211259077     1.007825032230
         H            0.685829134434    -2.290911575520     0.409303259077     1.007825032230
         H            3.599669134434     1.659866424480    -0.288781740923     1.007825032230
         H            0.172532134434     2.218387424480    -1.291008740923     1.007825032230
         H            0.495788434434     2.722534424480     0.349455859077     1.007825032230
         H            1.735652134434     2.982505424480    -0.938008740923     1.007825032230
         H            3.140991134434    -2.532897575520     0.546656259077     1.007825032230
         H            4.603804134434    -0.545819575520     0.205306259077     1.007825032230

  Basis Set: AUG-CC-PVTZ
    Blend: AUG-CC-PVTZ
  Basis Set: (AUG-CC-PVTZ AUX)
    Blend: AUG-CC-PVTZ-JKFIT
	 Reference Energy          =    -535.3083059431901347 [Eh]
	 Singles Energy            =      -0.0000000000000000 [Eh]
	 Same-Spin Energy          =      -0.5853603863837137 [Eh]
	 Opposite-Spin Energy      =      -1.9172717789124989 [Eh]
	 Correlation Energy        =      -2.5026321652962125 [Eh]
	 Total Energy              =    -537.8109381084863116 [Eh]

	 ================> DF-SCS-MP2 Energies <==================
	-----------------------------------------------------------
	 SCS Same-Spin Scale       =       0.3333333333333333 [-]
	 SCS Opposite-Spin Scale   =       1.2000000000000000 [-]
	 SCS Same-Spin Energy      =      -0.1951201287945712 [Eh]
	 SCS Opposite-Spin Energy  =      -2.3007261346949988 [Eh]
	 SCS Correlation Energy    =      -2.4958462634895699 [Eh]
	 SCS Total Energy          =    -537.8041522066797597 [Eh]
	-----------------------------------------------------------

  Dipole Moment: [D]
     X:   -12.1285      Y:    -0.6987      Z:     0.7184     Total:    12.1698

*** Psi4 exiting successfully. Buy a developer a beer!
