                               Psi4 1.4a3.dev225

  ==> Input File <==

--------------------------------------------------------------------------
#psi4
#
memory 32 gb

molecule  {
1 1
  N       -3.4197460    -0.1817000     0.1602720
  N       -0.6214370    -0.0078370    -0.1287630
  C       -2.7377630    -0.6049400    -1.1216890
  C       -2.6265040     0.8533270     0.9259500
  C       -1.3397990    -1.0900720    -0.7822260
  C       -1.2267490     0.3141230     1.1574790
  C        0.8091060    -0.1845140    -0.0397240
  C        1.6179690     0.9496740    -0.2359790
  C        1.3698700    -1.4337860     0.2499420
  C        3.0044760     0.7849240    -0.1342920
  C        1.0196790     2.2951990    -0.5492200
  C        2.8783419    -1.6508635     0.3490365
  C        3.5736970    -0.4590730     0.1432710
  H       -2.7010110     0.2771110    -1.7633110
  H       -3.3565410    -1.3799850    -1.5813290
  H       -3.1641810     1.0582560     1.8552750
  H       -2.5989570     1.7488760     0.3025170
  H       -1.4126900    -2.0099640    -0.1705650
  H       -0.8261290    -1.3544960    -1.7108330
  H       -0.6365290     1.0912410     1.6504410
  H       -1.2578930    -0.5558900     1.8421060
  H       -4.3648950     0.1725180    -0.0402120
  H       -3.5438220    -1.0118610     0.7575640
  H        0.7360800    -2.3037000     0.4086560
  H        3.6499200     1.6470780    -0.2894290
  H        0.2227830     2.2055990    -1.2916560
  H        0.5919240     2.7705950     0.3416580
  H        1.7859030     2.9697170    -0.9386560
  H        3.1912420    -2.5456860     0.5460090
  H        4.6540550    -0.5586080     0.2046590
units angstrom
no_reorient  #important for SAPT in psi4, default
symmetry c1  #important for SAPT in psi4, default
}

set PROPERTIES_ORIGIN ["COM"]
properties('MP2/aug-cc-pvtz', properties = ['dipole'])
--------------------------------------------------------------------------

    Molecular point group: c1
  Charge       = 1
  Multiplicity = 1
  Basis Set: AUG-CC-PVTZ
    Blend: AUG-CC-PVTZ
  Basis Set: (AUG-CC-PVTZ AUX)
    Blend: AUG-CC-PVTZ-JKFIT

    Orbital Energies [Eh]
    ---------------------

    Doubly Occupied:

       1A    -15.866615     2A    -15.703753     3A    -11.456870
       4A    -11.456663     5A    -11.417387     6A    -11.417288
       7A    -11.376414     8A    -11.352652     9A    -11.346978
      10A    -11.336520    11A    -11.331827    12A    -11.330130
      13A    -11.324540    14A     -1.497538    15A     -1.390370
      16A     -1.242106    17A     -1.221828    18A     -1.154709
      19A     -1.137021    20A     -1.083469    21A     -1.053468
      22A     -1.035770    23A     -0.996635    24A     -0.935622
      25A     -0.922968    26A     -0.909304    27A     -0.868879
      28A     -0.823736    29A     -0.816844    30A     -0.793639
      31A     -0.788637    32A     -0.748895    33A     -0.741302
      34A     -0.734145    35A     -0.728923    36A     -0.711054
      37A     -0.687847    38A     -0.678998    39A     -0.668801
      40A     -0.660341    41A     -0.653458    42A     -0.635635
      43A     -0.612304    44A     -0.581040    45A     -0.572850
      46A     -0.523008    47A     -0.434067    48A     -0.417058

  @DF-RHF Final Energy:  -535.27999467322002

   => Energetics <=

    Nuclear Repulsion Energy =            817.4788681425186496
    One-Electron Energy =               -2333.1579034238397981
    Two-Electron Energy =                 980.3990406081011315
    Total Energy =                       -535.2799946732200169
  Basis Set: (AUG-CC-PVTZ AUX)
    Blend: AUG-CC-PVTZ-RI
    Molecular point group: c1

    Geometry (in Angstrom), charge = 1, multiplicity = 1:

       Center              X                  Y                   Z               Mass
    ------------   -----------------  -----------------  -----------------  -----------------
         N           -3.478555664384    -0.164041908143     0.159619064198    14.003074004430
         N           -0.680246664384     0.009821091857    -0.129415935802    14.003074004430
         C           -2.796572664384    -0.587281908143    -1.122341935802    12.000000000000
         C           -2.685313664384     0.870985091857     0.925297064198    12.000000000000
         C           -1.398608664384    -1.072413908143    -0.782878935802    12.000000000000
         C           -1.285558664384     0.331781091857     1.156826064198    12.000000000000
         C            0.750296335616    -0.166855908143    -0.040376935802    12.000000000000
         C            1.559159335616     0.967332091857    -0.236631935802    12.000000000000
         C            1.311060335616    -1.416127908143     0.249289064198    12.000000000000
         C            2.945666335616     0.802582091857    -0.134944935802    12.000000000000
         C            0.960869335616     2.312857091857    -0.549872935802    12.000000000000
         C            2.819532235616    -1.633205408143     0.348383564198    12.000000000000
         C            3.514887335616    -0.441414908143     0.142618064198    12.000000000000
         H           -2.759820664384     0.294769091857    -1.763963935802     1.007825032230
         H           -3.415350664384    -1.362326908143    -1.581981935802     1.007825032230
         H           -3.222990664384     1.075914091857     1.854622064198     1.007825032230
         H           -2.657766664384     1.766534091857     0.301864064198     1.007825032230
         H           -1.471499664384    -1.992305908143    -0.171217935802     1.007825032230
         H           -0.884938664384    -1.336837908143    -1.711485935802     1.007825032230
         H           -0.695338664384     1.108899091857     1.649788064198     1.007825032230
         H           -1.316702664384    -0.538231908143     1.841453064198     1.007825032230
         H           -4.423704664384     0.190176091857    -0.040864935802     1.007825032230
         H           -3.602631664384    -0.994202908143     0.756911064198     1.007825032230
         H            0.677270335616    -2.286041908143     0.408003064198     1.007825032230
         H            3.591110335616     1.664736091857    -0.290081935802     1.007825032230
         H            0.163973335616     2.223257091857    -1.292308935802     1.007825032230
         H            0.533114335616     2.788253091857     0.341005064198     1.007825032230
         H            1.727093335616     2.987375091857    -0.939308935802     1.007825032230
         H            3.132432335616    -2.528027908143     0.545356064198     1.007825032230
         H            4.595245335616    -0.540949908143     0.204006064198     1.007825032230

  Basis Set: AUG-CC-PVTZ
    Blend: AUG-CC-PVTZ
  Basis Set: (AUG-CC-PVTZ AUX)
    Blend: AUG-CC-PVTZ-JKFIT
	 Reference Energy          =    -535.2799946732200169 [Eh]
	 Singles Energy            =      -0.0000000000000000 [Eh]
	 Same-Spin Energy          =      -0.5853545669916238 [Eh]
	 Opposite-Spin Energy      =      -1.9192920640677591 [Eh]
	 Correlation Energy        =      -2.5046466310593827 [Eh]
	 Total Energy              =    -537.7846413042793756 [Eh]

	 ================> DF-SCS-MP2 Energies <==================
	-----------------------------------------------------------
	 SCS Same-Spin Scale       =       0.3333333333333333 [-]
	 SCS Opposite-Spin Scale   =       1.2000000000000000 [-]
	 SCS Same-Spin Energy      =      -0.1951181889972079 [Eh]
	 SCS Opposite-Spin Energy  =      -2.3031504768813109 [Eh]
	 SCS Correlation Energy    =      -2.4982686658785189 [Eh]
	 SCS Total Energy          =    -537.7782633390985438 [Eh]
	-----------------------------------------------------------

  Dipole Moment: [D]
     X:   -12.1565      Y:    -0.6726      Z:     0.7315     Total:    12.1970

*** Psi4 exiting successfully. Buy a developer a beer!
