                               Psi4 1.4a3.dev225

  ==> Input File <==

--------------------------------------------------------------------------
#psi4
#
memory 32 gb

molecule  {
1 1
  N       -3.4197460    -0.1817000     0.1602720
  N       -0.6214370    -0.0078370    -0.1287630
  C       -2.7377630    -0.6049400    -1.1216890
  C       -2.6265040     0.8533270     0.9259500
  C       -1.3397990    -1.0900720    -0.7822260
  C       -1.2267490     0.3141230     1.1574790
  C        0.8091060    -0.1845140    -0.0397240
  C        1.6179690     0.9496740    -0.2359790
  C        1.3698700    -1.4337860     0.2499420
  C        3.0044760     0.7849240    -0.1342920
  C        1.0196790     2.2951990    -0.5492200
  C        2.7558540    -1.5738690     0.3292430
  C        3.5736970    -0.4590730     0.1432710
  H       -2.7010110     0.2771110    -1.7633110
  H       -3.3565410    -1.3799850    -1.5813290
  H       -3.1641810     1.0582560     1.8552750
  H       -2.5989570     1.7488760     0.3025170
  H       -1.4126900    -2.0099640    -0.1705650
  H       -0.8261290    -1.3544960    -1.7108330
  H       -0.6365290     1.0912410     1.6504410
  H       -1.2578930    -0.5558900     1.8421060
  H       -4.3648950     0.1725180    -0.0402120
  H       -3.5438220    -1.0118610     0.7575640
  H        0.7360800    -2.3037000     0.4086560
  H        3.6499200     1.6470780    -0.2894290
  H        0.2227830     2.2055990    -1.2916560
  H        0.5919240     2.7705950     0.3416580
  H        1.7859030     2.9697170    -0.9386560
  H        3.2713702    -2.7245379     0.5859023
  H        4.6540550    -0.5586080     0.2046590
units angstrom
no_reorient  #important for SAPT in psi4, default
symmetry c1  #important for SAPT in psi4, default
}

set PROPERTIES_ORIGIN ["COM"]
properties('MP2/aug-cc-pvtz', properties = ['dipole'])
--------------------------------------------------------------------------

    Molecular point group: c1
  Charge       = 1
  Multiplicity = 1
  Basis Set: AUG-CC-PVTZ
    Blend: AUG-CC-PVTZ
  Basis Set: (AUG-CC-PVTZ AUX)
    Blend: AUG-CC-PVTZ-JKFIT

    Orbital Energies [Eh]
    ---------------------

    Doubly Occupied:

       1A    -15.866953     2A    -15.703864     3A    -11.457164
       4A    -11.457151     5A    -11.417981     6A    -11.417737
       7A    -11.376443     8A    -11.352439     9A    -11.345119
      10A    -11.341998    11A    -11.331594    12A    -11.330366
      13A    -11.324121    14A     -1.497885    15A     -1.390946
      16A     -1.250465    17A     -1.222259    18A     -1.154944
      19A     -1.142103    20A     -1.089159    21A     -1.053870
      22A     -1.028906    23A     -0.996047    24A     -0.935792
      25A     -0.924844    26A     -0.899417    27A     -0.865727
      28A     -0.824072    29A     -0.803247    30A     -0.792728
      31A     -0.787733    32A     -0.755389    33A     -0.745241
      34A     -0.734946    35A     -0.713162    36A     -0.700553
      37A     -0.687652    38A     -0.675340    39A     -0.662185
      40A     -0.658647    41A     -0.647475    42A     -0.641270
      43A     -0.592983    44A     -0.592362    45A     -0.583493
      46A     -0.521034    47A     -0.434700    48A     -0.424445

  @DF-RHF Final Energy:  -535.28655982806686

   => Energetics <=

    Nuclear Repulsion Energy =            819.3206038921563277
    One-Electron Energy =               -2336.9064287412174963
    Two-Electron Energy =                 982.2992650209944259
    Total Energy =                       -535.2865598280668564
  Basis Set: (AUG-CC-PVTZ AUX)
    Blend: AUG-CC-PVTZ-RI
    Molecular point group: c1

    Geometry (in Angstrom), charge = 1, multiplicity = 1:

       Center              X                  Y                   Z               Mass
    ------------   -----------------  -----------------  -----------------  -----------------
         N           -3.470713810059    -0.168240203546     0.160732971019    14.003074004430
         N           -0.672404810059     0.005622796454    -0.128302028981    14.003074004430
         C           -2.788730810059    -0.591480203546    -1.121228028981    12.000000000000
         C           -2.677471810059     0.866786796454     0.926410971019    12.000000000000
         C           -1.390766810059    -1.076612203546    -0.781765028981    12.000000000000
         C           -1.277716810059     0.327582796454     1.157939971019    12.000000000000
         C            0.758138189941    -0.171054203546    -0.039263028981    12.000000000000
         C            1.567001189941     0.963133796454    -0.235518028981    12.000000000000
         C            1.318902189941    -1.420326203546     0.250402971019    12.000000000000
         C            2.953508189941     0.798383796454    -0.133831028981    12.000000000000
         C            0.968711189941     2.308658796454    -0.548759028981    12.000000000000
         C            2.704886189941    -1.560409203546     0.329703971019    12.000000000000
         C            3.522729189941    -0.445613203546     0.143731971019    12.000000000000
         H           -2.751978810059     0.290570796454    -1.762850028981     1.007825032230
         H           -3.407508810059    -1.366525203546    -1.580868028981     1.007825032230
         H           -3.215148810059     1.071715796454     1.855735971019     1.007825032230
         H           -2.649924810059     1.762335796454     0.302977971019     1.007825032230
         H           -1.463657810059    -1.996504203546    -0.170104028981     1.007825032230
         H           -0.877096810059    -1.341036203546    -1.710372028981     1.007825032230
         H           -0.687496810059     1.104700796454     1.650901971019     1.007825032230
         H           -1.308860810059    -0.542430203546     1.842566971019     1.007825032230
         H           -4.415862810059     0.185977796454    -0.039751028981     1.007825032230
         H           -3.594789810059    -0.998401203546     0.758024971019     1.007825032230
         H            0.685112189941    -2.290240203546     0.409116971019     1.007825032230
         H            3.598952189941     1.660537796454    -0.288968028981     1.007825032230
         H            0.171815189941     2.219058796454    -1.291195028981     1.007825032230
         H            0.540956189941     2.784054796454     0.342118971019     1.007825032230
         H            1.734935189941     2.983176796454    -0.938195028981     1.007825032230
         H            3.220402389941    -2.711078103546     0.586363271019     1.007825032230
         H            4.603087189941    -0.545148203546     0.205119971019     1.007825032230

  Basis Set: AUG-CC-PVTZ
    Blend: AUG-CC-PVTZ
  Basis Set: (AUG-CC-PVTZ AUX)
    Blend: AUG-CC-PVTZ-JKFIT
	 Reference Energy          =    -535.2865598280668564 [Eh]
	 Singles Energy            =      -0.0000000000000000 [Eh]
	 Same-Spin Energy          =      -0.5858013874830108 [Eh]
	 Opposite-Spin Energy      =      -1.9194114865042471 [Eh]
	 Correlation Energy        =      -2.5052128739872579 [Eh]
	 Total Energy              =    -537.7917727020541179 [Eh]

	 ================> DF-SCS-MP2 Energies <==================
	-----------------------------------------------------------
	 SCS Same-Spin Scale       =       0.3333333333333333 [-]
	 SCS Opposite-Spin Scale   =       1.2000000000000000 [-]
	 SCS Same-Spin Energy      =      -0.1952671291610036 [Eh]
	 SCS Opposite-Spin Energy  =      -2.3032937838050964 [Eh]
	 SCS Correlation Energy    =      -2.4985609129660999 [Eh]
	 SCS Total Energy          =    -537.7851207410329835 [Eh]
	-----------------------------------------------------------

  Dipole Moment: [D]
     X:   -12.1465      Y:    -0.6284      Z:     0.7207     Total:    12.1841

*** Psi4 exiting successfully. Buy a developer a beer!
