                               Psi4 1.4a3.dev225

  ==> Input File <==

--------------------------------------------------------------------------
#psi4
#
memory 32 gb

molecule  {
1 1
  N       -3.4197460    -0.1817000     0.1602720
  N       -0.6214370    -0.0078370    -0.1287630
  C       -2.7377630    -0.6049400    -1.1216890
  C       -2.6265040     0.8533270     0.9259500
  C       -1.3397990    -1.0900720    -0.7822260
  C       -1.2267490     0.3141230     1.1574790
  C        0.8091060    -0.1845140    -0.0397240
  C        1.6179690     0.9496740    -0.2359790
  C        1.3698700    -1.4337860     0.2499420
  C        3.0044760     0.7849240    -0.1342920
  C        1.0196790     2.2951990    -0.5492200
  C        2.7756815    -1.5875741     0.3326896
  C        3.5736970    -0.4590730     0.1432710
  H       -2.7010110     0.2771110    -1.7633110
  H       -3.3565410    -1.3799850    -1.5813290
  H       -3.1641810     1.0582560     1.8552750
  H       -2.5989570     1.7488760     0.3025170
  H       -1.4126900    -2.0099640    -0.1705650
  H       -0.8261290    -1.3544960    -1.7108330
  H       -0.6365290     1.0912410     1.6504410
  H       -1.2578930    -0.5558900     1.8421060
  H       -4.3648950     0.1725180    -0.0402120
  H       -3.5438220    -1.0118610     0.7575640
  H        0.7360800    -2.3037000     0.4086560
  H        3.6499200     1.6470780    -0.2894290
  H        0.2227830     2.2055990    -1.2916560
  H        0.5919240     2.7705950     0.3416580
  H        1.7859030     2.9697170    -0.9386560
  H        3.1912420    -2.5456860     0.5460090
  H        4.6540550    -0.5586080     0.2046590
units angstrom
no_reorient  #important for SAPT in psi4, default
symmetry c1  #important for SAPT in psi4, default
}

set PROPERTIES_ORIGIN ["COM"]
properties('MP2/aug-cc-pvtz', properties = ['dipole'])
--------------------------------------------------------------------------

    Molecular point group: c1
  Charge       = 1
  Multiplicity = 1
  Basis Set: AUG-CC-PVTZ
    Blend: AUG-CC-PVTZ
  Basis Set: (AUG-CC-PVTZ AUX)
    Blend: AUG-CC-PVTZ-JKFIT

    Orbital Energies [Eh]
    ---------------------

    Doubly Occupied:

       1A    -15.866631     2A    -15.703181     3A    -11.456794
       4A    -11.456781     5A    -11.417497     6A    -11.417285
       7A    -11.375364     8A    -11.344766     9A    -11.342481
      10A    -11.332509    11A    -11.330031    12A    -11.328794
      13A    -11.323705    14A     -1.497539    15A     -1.390264
      16A     -1.248277    17A     -1.221855    18A     -1.155342
      19A     -1.141525    20A     -1.087226    21A     -1.053490
      22A     -1.032472    23A     -0.996226    24A     -0.935433
      25A     -0.923921    26A     -0.904112    27A     -0.867466
      28A     -0.823727    29A     -0.811252    30A     -0.793465
      31A     -0.788554    32A     -0.753933    33A     -0.744062
      34A     -0.734511    35A     -0.715684    36A     -0.705923
      37A     -0.687806    38A     -0.675773    39A     -0.669442
      40A     -0.660091    41A     -0.655681    42A     -0.639911
      43A     -0.602475    44A     -0.589465    45A     -0.586840
      46A     -0.522048    47A     -0.432698    48A     -0.423097

  @DF-RHF Final Energy:  -535.30793885185460

   => Energetics <=

    Nuclear Repulsion Energy =            819.7995622291135760
    One-Electron Energy =               -2337.8801954942641714
    Two-Electron Energy =                 982.7726944132958806
    Total Energy =                       -535.3079388518546011
  Basis Set: (AUG-CC-PVTZ AUX)
    Blend: AUG-CC-PVTZ-RI
    Molecular point group: c1

    Geometry (in Angstrom), charge = 1, multiplicity = 1:

       Center              X                  Y                   Z               Mass
    ------------   -----------------  -----------------  -----------------  -----------------
         N           -3.471601105575    -0.168329343749     0.160726457871    14.003074004430
         N           -0.673292105575     0.005533656251    -0.128308542129    14.003074004430
         C           -2.789618105575    -0.591569343749    -1.121234542129    12.000000000000
         C           -2.678359105575     0.866697656251     0.926404457871    12.000000000000
         C           -1.391654105575    -1.076701343749    -0.781771542129    12.000000000000
         C           -1.278604105575     0.327493656251     1.157933457871    12.000000000000
         C            0.757250894425    -0.171143343749    -0.039269542129    12.000000000000
         C            1.566113894425     0.963044656251    -0.235524542129    12.000000000000
         C            1.318014894425    -1.420415343749     0.250396457871    12.000000000000
         C            2.952620894425     0.798294656251    -0.133837542129    12.000000000000
         C            0.967823894425     2.308569656251    -0.548765542129    12.000000000000
         C            2.723826394425    -1.574203443749     0.333144057871    12.000000000000
         C            3.521841894425    -0.445702343749     0.143725457871    12.000000000000
         H           -2.752866105575     0.290481656251    -1.762856542129     1.007825032230
         H           -3.408396105575    -1.366614343749    -1.580874542129     1.007825032230
         H           -3.216036105575     1.071626656251     1.855729457871     1.007825032230
         H           -2.650812105575     1.762246656251     0.302971457871     1.007825032230
         H           -1.464545105575    -1.996593343749    -0.170110542129     1.007825032230
         H           -0.877984105575    -1.341125343749    -1.710378542129     1.007825032230
         H           -0.688384105575     1.104611656251     1.650895457871     1.007825032230
         H           -1.309748105575    -0.542519343749     1.842560457871     1.007825032230
         H           -4.416750105575     0.185888656251    -0.039757542129     1.007825032230
         H           -3.595677105575    -0.998490343749     0.758018457871     1.007825032230
         H            0.684224894425    -2.290329343749     0.409110457871     1.007825032230
         H            3.598064894425     1.660448656251    -0.288974542129     1.007825032230
         H            0.170927894425     2.218969656251    -1.291201542129     1.007825032230
         H            0.540068894425     2.783965656251     0.342112457871     1.007825032230
         H            1.734047894425     2.983087656251    -0.938201542129     1.007825032230
         H            3.139386894425    -2.532315343749     0.546463457871     1.007825032230
         H            4.602199894425    -0.545237343749     0.205113457871     1.007825032230

  Basis Set: AUG-CC-PVTZ
    Blend: AUG-CC-PVTZ
  Basis Set: (AUG-CC-PVTZ AUX)
    Blend: AUG-CC-PVTZ-JKFIT
	 Reference Energy          =    -535.3079388518546011 [Eh]
	 Singles Energy            =      -0.0000000000000000 [Eh]
	 Same-Spin Energy          =      -0.5852653027343915 [Eh]
	 Opposite-Spin Energy      =      -1.9172848075318205 [Eh]
	 Correlation Energy        =      -2.5025501102662120 [Eh]
	 Total Energy              =    -537.8104889621207576 [Eh]

	 ================> DF-SCS-MP2 Energies <==================
	-----------------------------------------------------------
	 SCS Same-Spin Scale       =       0.3333333333333333 [-]
	 SCS Opposite-Spin Scale   =       1.2000000000000000 [-]
	 SCS Same-Spin Energy      =      -0.1950884342447972 [Eh]
	 SCS Opposite-Spin Energy  =      -2.3007417690381846 [Eh]
	 SCS Correlation Energy    =      -2.4958302032829818 [Eh]
	 SCS Total Energy          =    -537.8037690551375363 [Eh]
	-----------------------------------------------------------

  Dipole Moment: [D]
     X:   -12.1131      Y:    -0.6874      Z:     0.7332     Total:    12.1548

*** Psi4 exiting successfully. Buy a developer a beer!
