                               Psi4 1.4a3.dev225

  ==> Input File <==

--------------------------------------------------------------------------
#psi4
#
memory 32 gb

molecule  {
1 1
  N       -3.4197460    -0.1817000     0.1602720
  N       -0.6214370    -0.0078370    -0.1287630
  C       -2.7377630    -0.6049400    -1.1216890
  C       -2.6265040     0.8533270     0.9259500
  C       -1.3397990    -1.0900720    -0.7822260
  C       -1.2267490     0.3141230     1.1574790
  C        0.8091060    -0.1845140    -0.0397240
  C        1.6179690     0.9496740    -0.2359790
  C        1.3698700    -1.4337860     0.2499420
  C        3.0044760     0.7849240    -0.1342920
  C        1.0196790     2.2951990    -0.5492200
  C        2.5571894    -1.5537897     0.3178761
  C        3.5736970    -0.4590730     0.1432710
  H       -2.7010110     0.2771110    -1.7633110
  H       -3.3565410    -1.3799850    -1.5813290
  H       -3.1641810     1.0582560     1.8552750
  H       -2.5989570     1.7488760     0.3025170
  H       -1.4126900    -2.0099640    -0.1705650
  H       -0.8261290    -1.3544960    -1.7108330
  H       -0.6365290     1.0912410     1.6504410
  H       -1.2578930    -0.5558900     1.8421060
  H       -4.3648950     0.1725180    -0.0402120
  H       -3.5438220    -1.0118610     0.7575640
  H        0.7360800    -2.3037000     0.4086560
  H        3.6499200     1.6470780    -0.2894290
  H        0.2227830     2.2055990    -1.2916560
  H        0.5919240     2.7705950     0.3416580
  H        1.7859030     2.9697170    -0.9386560
  H        3.1912420    -2.5456860     0.5460090
  H        4.6540550    -0.5586080     0.2046590
units angstrom
no_reorient  #important for SAPT in psi4, default
symmetry c1  #important for SAPT in psi4, default
}

set PROPERTIES_ORIGIN ["COM"]
properties('MP2/aug-cc-pvtz', properties = ['dipole'])
--------------------------------------------------------------------------

    Molecular point group: c1
  Charge       = 1
  Multiplicity = 1
  Basis Set: AUG-CC-PVTZ
    Blend: AUG-CC-PVTZ
  Basis Set: (AUG-CC-PVTZ AUX)
    Blend: AUG-CC-PVTZ-JKFIT

    Orbital Energies [Eh]
    ---------------------

    Doubly Occupied:

       1A    -15.866579     2A    -15.702363     3A    -11.456899
       4A    -11.456605     5A    -11.417549     6A    -11.416817
       7A    -11.372411     8A    -11.344663     9A    -11.339562
      10A    -11.328057    11A    -11.325839    12A    -11.323750
      13A    -11.313358    14A     -1.497449    15A     -1.390106
      16A     -1.265253    17A     -1.221785    18A     -1.167737
      19A     -1.148185    20A     -1.089775    21A     -1.053411
      22A     -1.032211    23A     -0.991871    24A     -0.933505
      25A     -0.926124    26A     -0.897335    27A     -0.870589
      28A     -0.823698    29A     -0.806805    30A     -0.794690
      31A     -0.787853    32A     -0.759846    33A     -0.749264
      34A     -0.734834    35A     -0.711467    36A     -0.701095
      37A     -0.687287    38A     -0.683406    39A     -0.672632
      40A     -0.660266    41A     -0.646974    42A     -0.639287
      43A     -0.605010    44A     -0.603941    45A     -0.560442
      46A     -0.514268    47A     -0.459379    48A     -0.411255

  @DF-RHF Final Energy:  -535.24565555717163

   => Energetics <=

    Nuclear Repulsion Energy =            823.5336647483778734
    One-Electron Energy =               -2345.2316684798379356
    Two-Electron Energy =                 986.4523481742885451
    Total Energy =                       -535.2456555571716308
  Basis Set: (AUG-CC-PVTZ AUX)
    Blend: AUG-CC-PVTZ-RI
    Molecular point group: c1

    Geometry (in Angstrom), charge = 1, multiplicity = 1:

       Center              X                  Y                   Z               Mass
    ------------   -----------------  -----------------  -----------------  -----------------
         N           -3.456799720046    -0.170618011986     0.161729973900    14.003074004430
         N           -0.658490720046     0.003244988014    -0.127305026100    14.003074004430
         C           -2.774816720046    -0.593858011986    -1.120231026100    12.000000000000
         C           -2.663557720046     0.864408988014     0.927407973900    12.000000000000
         C           -1.376852720046    -1.078990011986    -0.780768026100    12.000000000000
         C           -1.263802720046     0.325204988014     1.158936973900    12.000000000000
         C            0.772052279954    -0.173432011986    -0.038266026100    12.000000000000
         C            1.580915279954     0.960755988014    -0.234521026100    12.000000000000
         C            1.332816279954    -1.422704011986     0.251399973900    12.000000000000
         C            2.967422279954     0.796005988014    -0.132834026100    12.000000000000
         C            0.982625279954     2.306280988014    -0.547762026100    12.000000000000
         C            2.520135679954    -1.542707711986     0.319334073900    12.000000000000
         C            3.536643279954    -0.447991011986     0.144728973900    12.000000000000
         H           -2.738064720046     0.288192988014    -1.761853026100     1.007825032230
         H           -3.393594720046    -1.368903011986    -1.579871026100     1.007825032230
         H           -3.201234720046     1.069337988014     1.856732973900     1.007825032230
         H           -2.636010720046     1.759957988014     0.303974973900     1.007825032230
         H           -1.449743720046    -1.998882011986    -0.169107026100     1.007825032230
         H           -0.863182720046    -1.343414011986    -1.709375026100     1.007825032230
         H           -0.673582720046     1.102322988014     1.651898973900     1.007825032230
         H           -1.294946720046    -0.544808011986     1.843563973900     1.007825032230
         H           -4.401948720046     0.183599988014    -0.038754026100     1.007825032230
         H           -3.580875720046    -1.000779011986     0.759021973900     1.007825032230
         H            0.699026279954    -2.292618011986     0.410113973900     1.007825032230
         H            3.612866279954     1.658159988014    -0.287971026100     1.007825032230
         H            0.185729279954     2.216680988014    -1.290198026100     1.007825032230
         H            0.554870279954     2.781676988014     0.343115973900     1.007825032230
         H            1.748849279954     2.980798988014    -0.937198026100     1.007825032230
         H            3.154188279954    -2.534604011986     0.547466973900     1.007825032230
         H            4.617001279954    -0.547526011986     0.206116973900     1.007825032230

  Basis Set: AUG-CC-PVTZ
    Blend: AUG-CC-PVTZ
  Basis Set: (AUG-CC-PVTZ AUX)
    Blend: AUG-CC-PVTZ-JKFIT
	 Reference Energy          =    -535.2456555571716308 [Eh]
	 Singles Energy            =      -0.0000000000000000 [Eh]
	 Same-Spin Energy          =      -0.5850484694237341 [Eh]
	 Opposite-Spin Energy      =      -1.9190187051787795 [Eh]
	 Correlation Energy        =      -2.5040671746025138 [Eh]
	 Total Energy              =    -537.7497227317741135 [Eh]

	 ================> DF-SCS-MP2 Energies <==================
	-----------------------------------------------------------
	 SCS Same-Spin Scale       =       0.3333333333333333 [-]
	 SCS Opposite-Spin Scale   =       1.2000000000000000 [-]
	 SCS Same-Spin Energy      =      -0.1950161564745780 [Eh]
	 SCS Opposite-Spin Energy  =      -2.3028224462145355 [Eh]
	 SCS Correlation Energy    =      -2.4978386026891135 [Eh]
	 SCS Total Energy          =    -537.7434941598606883 [Eh]
	-----------------------------------------------------------

  Dipole Moment: [D]
     X:   -12.0432      Y:    -0.6295      Z:     0.7208     Total:    12.0812

*** Psi4 exiting successfully. Buy a developer a beer!
