                               Psi4 1.4a3.dev225

  ==> Input File <==

--------------------------------------------------------------------------
#psi4
#
memory 32 gb

molecule  {
1 1
  N       -3.4197460    -0.1817000     0.1602720
  N       -0.6214370    -0.0078370    -0.1287630
  C       -2.7377630    -0.6049400    -1.1216890
  C       -2.6265040     0.8533270     0.9259500
  C       -1.3496798    -1.1049577    -0.7912141
  C       -1.2267490     0.3141230     1.1574790
  C        0.8091060    -0.1845140    -0.0397240
  C        1.6179690     0.9496740    -0.2359790
  C        1.3698700    -1.4337860     0.2499420
  C        3.0044760     0.7849240    -0.1342920
  C        1.0196790     2.2951990    -0.5492200
  C        2.7558540    -1.5738690     0.3292430
  C        3.5736970    -0.4590730     0.1432710
  H       -2.7010110     0.2771110    -1.7633110
  H       -3.3565410    -1.3799850    -1.5813290
  H       -3.1641810     1.0582560     1.8552750
  H       -2.5989570     1.7488760     0.3025170
  H       -1.4126900    -2.0099640    -0.1705650
  H       -0.8261290    -1.3544960    -1.7108330
  H       -0.6365290     1.0912410     1.6504410
  H       -1.2578930    -0.5558900     1.8421060
  H       -4.3648950     0.1725180    -0.0402120
  H       -3.5438220    -1.0118610     0.7575640
  H        0.7360800    -2.3037000     0.4086560
  H        3.6499200     1.6470780    -0.2894290
  H        0.2227830     2.2055990    -1.2916560
  H        0.5919240     2.7705950     0.3416580
  H        1.7859030     2.9697170    -0.9386560
  H        3.1912420    -2.5456860     0.5460090
  H        4.6540550    -0.5586080     0.2046590
units angstrom
no_reorient  #important for SAPT in psi4, default
symmetry c1  #important for SAPT in psi4, default
}

set PROPERTIES_ORIGIN ["COM"]
properties('MP2/aug-cc-pvtz', properties = ['dipole'])
--------------------------------------------------------------------------

    Molecular point group: c1
  Charge       = 1
  Multiplicity = 1
  Basis Set: AUG-CC-PVTZ
    Blend: AUG-CC-PVTZ
  Basis Set: (AUG-CC-PVTZ AUX)
    Blend: AUG-CC-PVTZ-JKFIT

    Orbital Energies [Eh]
    ---------------------

    Doubly Occupied:

       1A    -15.867100     2A    -15.702819     3A    -11.457192
       4A    -11.456658     5A    -11.417309     6A    -11.416856
       7A    -11.374778     8A    -11.344023     9A    -11.339881
      10A    -11.331586    11A    -11.329635    12A    -11.328333
      13A    -11.323271    14A     -1.497682    15A     -1.386263
      16A     -1.249382    17A     -1.222687    18A     -1.155745
      19A     -1.142457    20A     -1.087557    21A     -1.052959
      22A     -1.031639    23A     -0.996512    24A     -0.935683
      25A     -0.924232    26A     -0.902851    27A     -0.867529
      28A     -0.824564    29A     -0.809445    30A     -0.792552
      31A     -0.787256    32A     -0.754508    33A     -0.744804
      34A     -0.734763    35A     -0.715470    36A     -0.704530
      37A     -0.688520    38A     -0.674689    39A     -0.669802
      40A     -0.660790    41A     -0.654938    42A     -0.640308
      43A     -0.599632    44A     -0.591308    45A     -0.587555
      46A     -0.521353    47A     -0.433249    48A     -0.423115

  @DF-RHF Final Energy:  -535.30852326258355

   => Energetics <=

    Nuclear Repulsion Energy =            819.9158900490867836
    One-Electron Energy =               -2338.1372863051974491
    Two-Electron Energy =                 982.9128729935271167
    Total Energy =                       -535.3085232625835488
  Basis Set: (AUG-CC-PVTZ AUX)
    Blend: AUG-CC-PVTZ-RI
    Molecular point group: c1

    Geometry (in Angstrom), charge = 1, multiplicity = 1:

       Center              X                  Y                   Z               Mass
    ------------   -----------------  -----------------  -----------------  -----------------
         N           -3.469588565983    -0.168249365957     0.161568826033    14.003074004430
         N           -0.671279565983     0.005613634043    -0.127466173967    14.003074004430
         C           -2.787605565983    -0.591489365957    -1.120392173967    12.000000000000
         C           -2.676346565983     0.866777634043     0.927246826033    12.000000000000
         C           -1.399522365983    -1.091507065957    -0.789917273967    12.000000000000
         C           -1.276591565983     0.327573634043     1.158775826033    12.000000000000
         C            0.759263434017    -0.171063365957    -0.038427173967    12.000000000000
         C            1.568126434017     0.963124634043    -0.234682173967    12.000000000000
         C            1.320027434017    -1.420335365957     0.251238826033    12.000000000000
         C            2.954633434017     0.798374634043    -0.132995173967    12.000000000000
         C            0.969836434017     2.308649634043    -0.547923173967    12.000000000000
         C            2.706011434017    -1.560418365957     0.330539826033    12.000000000000
         C            3.523854434017    -0.445622365957     0.144567826033    12.000000000000
         H           -2.750853565983     0.290561634043    -1.762014173967     1.007825032230
         H           -3.406383565983    -1.366534365957    -1.580032173967     1.007825032230
         H           -3.214023565983     1.071706634043     1.856571826033     1.007825032230
         H           -2.648799565983     1.762326634043     0.303813826033     1.007825032230
         H           -1.462532565983    -1.996513365957    -0.169268173967     1.007825032230
         H           -0.875971565983    -1.341045365957    -1.709536173967     1.007825032230
         H           -0.686371565983     1.104691634043     1.651737826033     1.007825032230
         H           -1.307735565983    -0.542439365957     1.843402826033     1.007825032230
         H           -4.414737565983     0.185968634043    -0.038915173967     1.007825032230
         H           -3.593664565983    -0.998410365957     0.758860826033     1.007825032230
         H            0.686237434017    -2.290249365957     0.409952826033     1.007825032230
         H            3.600077434017     1.660528634043    -0.288132173967     1.007825032230
         H            0.172940434017     2.219049634043    -1.290359173967     1.007825032230
         H            0.542081434017     2.784045634043     0.342954826033     1.007825032230
         H            1.736060434017     2.983167634043    -0.937359173967     1.007825032230
         H            3.141399434017    -2.532235365957     0.547305826033     1.007825032230
         H            4.604212434017    -0.545157365957     0.205955826033     1.007825032230

  Basis Set: AUG-CC-PVTZ
    Blend: AUG-CC-PVTZ
  Basis Set: (AUG-CC-PVTZ AUX)
    Blend: AUG-CC-PVTZ-JKFIT
	 Reference Energy          =    -535.3085232625835488 [Eh]
	 Singles Energy            =      -0.0000000000000000 [Eh]
	 Same-Spin Energy          =      -0.5852096065790138 [Eh]
	 Opposite-Spin Energy      =      -1.9171863197796160 [Eh]
	 Correlation Energy        =      -2.5023959263586297 [Eh]
	 Total Energy              =    -537.8109191889421936 [Eh]

	 ================> DF-SCS-MP2 Energies <==================
	-----------------------------------------------------------
	 SCS Same-Spin Scale       =       0.3333333333333333 [-]
	 SCS Opposite-Spin Scale   =       1.2000000000000000 [-]
	 SCS Same-Spin Energy      =      -0.1950698688596713 [Eh]
	 SCS Opposite-Spin Energy  =      -2.3006235837355389 [Eh]
	 SCS Correlation Energy    =      -2.4956934525952099 [Eh]
	 SCS Total Energy          =    -537.8042167151787680 [Eh]
	-----------------------------------------------------------

  Dipole Moment: [D]
     X:   -12.1423      Y:    -0.7138      Z:     0.7217     Total:    12.1847

*** Psi4 exiting successfully. Buy a developer a beer!
