                               Psi4 1.4a3.dev225

  ==> Input File <==

--------------------------------------------------------------------------
#psi4
#
memory 32 gb

molecule  {
1 1
  N       -3.4197460    -0.1817000     0.1602720
  N       -0.6214370    -0.0078370    -0.1287630
  C       -2.7377630    -0.6049400    -1.1216890
  C       -2.5837412     0.9267727     0.8627023
  C       -1.3397990    -1.0900720    -0.7822260
  C       -1.2267490     0.3141230     1.1574790
  C        0.8091060    -0.1845140    -0.0397240
  C        1.6179690     0.9496740    -0.2359790
  C        1.3698700    -1.4337860     0.2499420
  C        3.0044760     0.7849240    -0.1342920
  C        1.0196790     2.2951990    -0.5492200
  C        2.7558540    -1.5738690     0.3292430
  C        3.5736970    -0.4590730     0.1432710
  H       -2.7010110     0.2771110    -1.7633110
  H       -3.3565410    -1.3799850    -1.5813290
  H       -3.1641810     1.0582560     1.8552750
  H       -2.5989570     1.7488760     0.3025170
  H       -1.4126900    -2.0099640    -0.1705650
  H       -0.8261290    -1.3544960    -1.7108330
  H       -0.6365290     1.0912410     1.6504410
  H       -1.2578930    -0.5558900     1.8421060
  H       -4.3648950     0.1725180    -0.0402120
  H       -3.5438220    -1.0118610     0.7575640
  H        0.7360800    -2.3037000     0.4086560
  H        3.6499200     1.6470780    -0.2894290
  H        0.2227830     2.2055990    -1.2916560
  H        0.5919240     2.7705950     0.3416580
  H        1.7859030     2.9697170    -0.9386560
  H        3.1912420    -2.5456860     0.5460090
  H        4.6540550    -0.5586080     0.2046590
units angstrom
no_reorient  #important for SAPT in psi4, default
symmetry c1  #important for SAPT in psi4, default
}

set PROPERTIES_ORIGIN ["COM"]
properties('MP2/aug-cc-pvtz', properties = ['dipole'])
--------------------------------------------------------------------------

    Molecular point group: c1
  Charge       = 1
  Multiplicity = 1
  Basis Set: AUG-CC-PVTZ
    Blend: AUG-CC-PVTZ
  Basis Set: (AUG-CC-PVTZ AUX)
    Blend: AUG-CC-PVTZ-JKFIT

    Orbital Energies [Eh]
    ---------------------

    Doubly Occupied:

       1A    -15.862618     2A    -15.702361     3A    -11.459827
       4A    -11.454365     5A    -11.418839     6A    -11.416828
       7A    -11.375078     8A    -11.344501     9A    -11.340208
      10A    -11.331988    11A    -11.330088    12A    -11.328731
      13A    -11.324256    14A     -1.488428    15A     -1.390064
      16A     -1.250171    17A     -1.220579    18A     -1.156539
      19A     -1.143121    20A     -1.089719    21A     -1.050975
      22A     -1.032885    23A     -0.999070    24A     -0.931614
      25A     -0.920704    26A     -0.902687    27A     -0.864265
      28A     -0.834163    29A     -0.811015    30A     -0.790544
      31A     -0.780244    32A     -0.754690    33A     -0.749786
      34A     -0.731675    35A     -0.719197    36A     -0.707968
      37A     -0.692845    38A     -0.675596    39A     -0.669389
      40A     -0.655714    41A     -0.651561    42A     -0.640649
      43A     -0.600444    44A     -0.591312    45A     -0.588034
      46A     -0.522310    47A     -0.433698    48A     -0.423606

  @DF-RHF Final Energy:  -535.29444164862798

   => Energetics <=

    Nuclear Repulsion Energy =            820.3899684302230071
    One-Electron Energy =               -2339.0589263458082314
    Two-Electron Energy =                 983.3745162669572437
    Total Energy =                       -535.2944416486279806
  Basis Set: (AUG-CC-PVTZ AUX)
    Blend: AUG-CC-PVTZ-RI
    Molecular point group: c1

    Geometry (in Angstrom), charge = 1, multiplicity = 1:

       Center              X                  Y                   Z               Mass
    ------------   -----------------  -----------------  -----------------  -----------------
         N           -3.473154819496    -0.174233230388     0.165244552790    14.003074004430
         N           -0.674845819496    -0.000370230388    -0.123790447210    14.003074004430
         C           -2.791171819496    -0.597473230388    -1.116716447210    12.000000000000
         C           -2.637150019496     0.934239469612     0.867674852790    12.000000000000
         C           -1.393207819496    -1.082605230388    -0.777253447210    12.000000000000
         C           -1.280157819496     0.321589769612     1.162451552790    12.000000000000
         C            0.755697180504    -0.177047230388    -0.034751447210    12.000000000000
         C            1.564560180504     0.957140769612    -0.231006447210    12.000000000000
         C            1.316461180504    -1.426319230388     0.254914552790    12.000000000000
         C            2.951067180504     0.792390769612    -0.129319447210    12.000000000000
         C            0.966270180504     2.302665769612    -0.544247447210    12.000000000000
         C            2.702445180504    -1.566402230388     0.334215552790    12.000000000000
         C            3.520288180504    -0.451606230388     0.148243552790    12.000000000000
         H           -2.754419819496     0.284577769612    -1.758338447210     1.007825032230
         H           -3.409949819496    -1.372518230388    -1.576356447210     1.007825032230
         H           -3.217589819496     1.065722769612     1.860247552790     1.007825032230
         H           -2.652365819496     1.756342769612     0.307489552790     1.007825032230
         H           -1.466098819496    -2.002497230388    -0.165592447210     1.007825032230
         H           -0.879537819496    -1.347029230388    -1.705860447210     1.007825032230
         H           -0.689937819496     1.098707769612     1.655413552790     1.007825032230
         H           -1.311301819496    -0.548423230388     1.847078552790     1.007825032230
         H           -4.418303819496     0.179984769612    -0.035239447210     1.007825032230
         H           -3.597230819496    -1.004394230388     0.762536552790     1.007825032230
         H            0.682671180504    -2.296233230388     0.413628552790     1.007825032230
         H            3.596511180504     1.654544769612    -0.284456447210     1.007825032230
         H            0.169374180504     2.213065769612    -1.286683447210     1.007825032230
         H            0.538515180504     2.778061769612     0.346630552790     1.007825032230
         H            1.732494180504     2.977183769612    -0.933683447210     1.007825032230
         H            3.137833180504    -2.538219230388     0.550981552790     1.007825032230
         H            4.600646180504    -0.551141230388     0.209631552790     1.007825032230

  Basis Set: AUG-CC-PVTZ
    Blend: AUG-CC-PVTZ
  Basis Set: (AUG-CC-PVTZ AUX)
    Blend: AUG-CC-PVTZ-JKFIT
	 Reference Energy          =    -535.2944416486279806 [Eh]
	 Singles Energy            =      -0.0000000000000000 [Eh]
	 Same-Spin Energy          =      -0.5853136834544296 [Eh]
	 Opposite-Spin Energy      =      -1.9179402628692808 [Eh]
	 Correlation Energy        =      -2.5032539463237105 [Eh]
	 Total Energy              =    -537.7976955949517333 [Eh]

	 ================> DF-SCS-MP2 Energies <==================
	-----------------------------------------------------------
	 SCS Same-Spin Scale       =       0.3333333333333333 [-]
	 SCS Opposite-Spin Scale   =       1.2000000000000000 [-]
	 SCS Same-Spin Energy      =      -0.1951045611514765 [Eh]
	 SCS Opposite-Spin Energy  =      -2.3015283154431367 [Eh]
	 SCS Correlation Energy    =      -2.4966328765946133 [Eh]
	 SCS Total Energy          =    -537.7910745252225979 [Eh]
	-----------------------------------------------------------

  Dipole Moment: [D]
     X:   -12.0348      Y:    -0.6294      Z:     0.7616     Total:    12.0752

*** Psi4 exiting successfully. Buy a developer a beer!
