                               Psi4 1.4a3.dev225

  ==> Input File <==

--------------------------------------------------------------------------
#psi4
#
memory 32 gb

molecule  {
1 1
  N       -3.4197460    -0.1817000     0.1602720
  N       -0.6214370    -0.0078370    -0.1287630
  C       -2.7377630    -0.6049400    -1.1216890
  C       -2.6243107     0.8200399     0.9668553
  C       -1.3397990    -1.0900720    -0.7822260
  C       -1.2267490     0.3141230     1.1574790
  C        0.8091060    -0.1845140    -0.0397240
  C        1.6179690     0.9496740    -0.2359790
  C        1.3698700    -1.4337860     0.2499420
  C        3.0044760     0.7849240    -0.1342920
  C        1.0196790     2.2951990    -0.5492200
  C        2.7558540    -1.5738690     0.3292430
  C        3.5736970    -0.4590730     0.1432710
  H       -2.7010110     0.2771110    -1.7633110
  H       -3.3565410    -1.3799850    -1.5813290
  H       -3.1641810     1.0582560     1.8552750
  H       -2.5989570     1.7488760     0.3025170
  H       -1.4126900    -2.0099640    -0.1705650
  H       -0.8261290    -1.3544960    -1.7108330
  H       -0.6365290     1.0912410     1.6504410
  H       -1.2578930    -0.5558900     1.8421060
  H       -4.3648950     0.1725180    -0.0402120
  H       -3.5438220    -1.0118610     0.7575640
  H        0.7360800    -2.3037000     0.4086560
  H        3.6499200     1.6470780    -0.2894290
  H        0.2227830     2.2055990    -1.2916560
  H        0.5919240     2.7705950     0.3416580
  H        1.7859030     2.9697170    -0.9386560
  H        3.1912420    -2.5456860     0.5460090
  H        4.6540550    -0.5586080     0.2046590
units angstrom
no_reorient  #important for SAPT in psi4, default
symmetry c1  #important for SAPT in psi4, default
}

set PROPERTIES_ORIGIN ["COM"]
properties('MP2/aug-cc-pvtz', properties = ['dipole'])
--------------------------------------------------------------------------

    Molecular point group: c1
  Charge       = 1
  Multiplicity = 1
  Basis Set: AUG-CC-PVTZ
    Blend: AUG-CC-PVTZ
  Basis Set: (AUG-CC-PVTZ AUX)
    Blend: AUG-CC-PVTZ-JKFIT

    Orbital Energies [Eh]
    ---------------------

    Doubly Occupied:

       1A    -15.866816     2A    -15.703892     3A    -11.458147
       4A    -11.457236     5A    -11.417791     6A    -11.416599
       7A    -11.375457     8A    -11.344566     9A    -11.340393
      10A    -11.331911    11A    -11.329990    12A    -11.328754
      13A    -11.323479    14A     -1.497874    15A     -1.390724
      16A     -1.250182    17A     -1.224234    18A     -1.156493
      19A     -1.142887    20A     -1.088056    21A     -1.054336
      22A     -1.031757    23A     -0.993958    24A     -0.936342
      25A     -0.925592    26A     -0.903891    27A     -0.869185
      28A     -0.818778    29A     -0.809193    30A     -0.795994
      31A     -0.791254    32A     -0.755355    33A     -0.747057
      34A     -0.737607    35A     -0.714119    36A     -0.700457
      37A     -0.680283    38A     -0.675118    39A     -0.669770
      40A     -0.661004    41A     -0.657564    42A     -0.640590
      43A     -0.599925    44A     -0.592227    45A     -0.588303
      46A     -0.521953    47A     -0.433709    48A     -0.423675

  @DF-RHF Final Energy:  -535.30541423472539

   => Energetics <=

    Nuclear Repulsion Energy =            820.3339186348118801
    One-Electron Energy =               -2338.9297098626111620
    Two-Electron Energy =                 983.2903769930738918
    Total Energy =                       -535.3054142347253901
  Basis Set: (AUG-CC-PVTZ AUX)
    Blend: AUG-CC-PVTZ-RI
    Molecular point group: c1

    Geometry (in Angstrom), charge = 1, multiplicity = 1:

       Center              X                  Y                   Z               Mass
    ------------   -----------------  -----------------  -----------------  -----------------
         N           -3.470406505895    -0.167002793584     0.158188880265    14.003074004430
         N           -0.672097505895     0.006860206416    -0.130846119735    14.003074004430
         C           -2.788423505895    -0.590242793584    -1.123772119735    12.000000000000
         C           -2.674971205895     0.834737106416     0.964772180265    12.000000000000
         C           -1.390459505895    -1.075374793584    -0.784309119735    12.000000000000
         C           -1.277409505895     0.328820206416     1.155395880265    12.000000000000
         C            0.758445494105    -0.169816793584    -0.041807119735    12.000000000000
         C            1.567308494105     0.964371206416    -0.238062119735    12.000000000000
         C            1.319209494105    -1.419088793584     0.247858880265    12.000000000000
         C            2.953815494105     0.799621206416    -0.136375119735    12.000000000000
         C            0.969018494105     2.309896206416    -0.551303119735    12.000000000000
         C            2.705193494105    -1.559171793584     0.327159880265    12.000000000000
         C            3.523036494105    -0.444375793584     0.141187880265    12.000000000000
         H           -2.751671505895     0.291808206416    -1.765394119735     1.007825032230
         H           -3.407201505895    -1.365287793584    -1.583412119735     1.007825032230
         H           -3.214841505895     1.072953206416     1.853191880265     1.007825032230
         H           -2.649617505895     1.763573206416     0.300433880265     1.007825032230
         H           -1.463350505895    -1.995266793584    -0.172648119735     1.007825032230
         H           -0.876789505895    -1.339798793584    -1.712916119735     1.007825032230
         H           -0.687189505895     1.105938206416     1.648357880265     1.007825032230
         H           -1.308553505895    -0.541192793584     1.840022880265     1.007825032230
         H           -4.415555505895     0.187215206416    -0.042295119735     1.007825032230
         H           -3.594482505895    -0.997163793584     0.755480880265     1.007825032230
         H            0.685419494105    -2.289002793584     0.406572880265     1.007825032230
         H            3.599259494105     1.661775206416    -0.291512119735     1.007825032230
         H            0.172122494105     2.220296206416    -1.293739119735     1.007825032230
         H            0.541263494105     2.785292206416     0.339574880265     1.007825032230
         H            1.735242494105     2.984414206416    -0.940739119735     1.007825032230
         H            3.140581494105    -2.530988793584     0.543925880265     1.007825032230
         H            4.603394494105    -0.543910793584     0.202575880265     1.007825032230

  Basis Set: AUG-CC-PVTZ
    Blend: AUG-CC-PVTZ
  Basis Set: (AUG-CC-PVTZ AUX)
    Blend: AUG-CC-PVTZ-JKFIT
	 Reference Energy          =    -535.3054142347253901 [Eh]
	 Singles Energy            =      -0.0000000000000000 [Eh]
	 Same-Spin Energy          =      -0.5855051681330792 [Eh]
	 Opposite-Spin Energy      =      -1.9174229991869745 [Eh]
	 Correlation Energy        =      -2.5029281673200536 [Eh]
	 Total Energy              =    -537.8083424020454686 [Eh]

	 ================> DF-SCS-MP2 Energies <==================
	-----------------------------------------------------------
	 SCS Same-Spin Scale       =       0.3333333333333333 [-]
	 SCS Opposite-Spin Scale   =       1.2000000000000000 [-]
	 SCS Same-Spin Energy      =      -0.1951683893776930 [Eh]
	 SCS Opposite-Spin Energy  =      -2.3009075990243693 [Eh]
	 SCS Correlation Energy    =      -2.4960759884020622 [Eh]
	 SCS Total Energy          =    -537.8014902231274164 [Eh]
	-----------------------------------------------------------

  Dipole Moment: [D]
     X:   -12.0992      Y:    -0.6997      Z:     0.7421     Total:    12.1421

*** Psi4 exiting successfully. Buy a developer a beer!
