                               Psi4 1.4a3.dev225

  ==> Input File <==

--------------------------------------------------------------------------
#psi4
#
memory 32 gb

molecule  {
1 1
  N       -3.4197460    -0.1817000     0.1602720
  N       -0.6214370    -0.0078370    -0.1287630
  C       -2.7377630    -0.6049400    -1.1216890
  C       -2.6265040     0.8533270     0.9259500
  C       -1.3397990    -1.0900720    -0.7822260
  C       -1.2267490     0.3141230     1.1574790
  C        0.8091060    -0.1845140    -0.0397240
  C        1.6179690     0.9496740    -0.2359790
  C        1.3698700    -1.4337860     0.2499420
  C        3.0044760     0.7849240    -0.1342920
  C        1.0196790     2.2951990    -0.5492200
  C        2.7359875    -1.5718611     0.3281063
  C        3.5736970    -0.4590730     0.1432710
  H       -2.7010110     0.2771110    -1.7633110
  H       -3.3565410    -1.3799850    -1.5813290
  H       -3.1641810     1.0582560     1.8552750
  H       -2.5989570     1.7488760     0.3025170
  H       -1.4126900    -2.0099640    -0.1705650
  H       -0.8261290    -1.3544960    -1.7108330
  H       -0.6365290     1.0912410     1.6504410
  H       -1.2578930    -0.5558900     1.8421060
  H       -4.3648950     0.1725180    -0.0402120
  H       -3.5438220    -1.0118610     0.7575640
  H        0.7360800    -2.3037000     0.4086560
  H        3.6499200     1.6470780    -0.2894290
  H        0.2227830     2.2055990    -1.2916560
  H        0.5919240     2.7705950     0.3416580
  H        1.7859030     2.9697170    -0.9386560
  H        3.1912420    -2.5456860     0.5460090
  H        4.6540550    -0.5586080     0.2046590
units angstrom
no_reorient  #important for SAPT in psi4, default
symmetry c1  #important for SAPT in psi4, default
}

set PROPERTIES_ORIGIN ["COM"]
properties('MP2/aug-cc-pvtz', properties = ['dipole'])
--------------------------------------------------------------------------

    Molecular point group: c1
  Charge       = 1
  Multiplicity = 1
  Basis Set: AUG-CC-PVTZ
    Blend: AUG-CC-PVTZ
  Basis Set: (AUG-CC-PVTZ AUX)
    Blend: AUG-CC-PVTZ-JKFIT

    Orbital Energies [Eh]
    ---------------------

    Doubly Occupied:

       1A    -15.866634     2A    -15.702993     3A    -11.456825
       4A    -11.456765     5A    -11.417551     6A    -11.417230
       7A    -11.374886     8A    -11.344341     9A    -11.338057
      10A    -11.331601    11A    -11.330307    12A    -11.329015
      13A    -11.323567    14A     -1.497536    15A     -1.390234
      16A     -1.250834    17A     -1.221859    18A     -1.155340
      19A     -1.143887    20A     -1.088520    21A     -1.053501
      22A     -1.031887    23A     -0.995778    24A     -0.935287
      25A     -0.924358    26A     -0.903112    27A     -0.867731
      28A     -0.823731    29A     -0.809796    30A     -0.793585
      31A     -0.788462    32A     -0.755484    33A     -0.745262
      34A     -0.734602    35A     -0.714051    36A     -0.703479
      37A     -0.687757    38A     -0.674932    39A     -0.671021
      40A     -0.659956    41A     -0.654906    42A     -0.640690
      43A     -0.599043    44A     -0.592284    45A     -0.588342
      46A     -0.521365    47A     -0.435096    48A     -0.422654

  @DF-RHF Final Energy:  -535.30841135244032

   => Energetics <=

    Nuclear Repulsion Energy =            820.5824498834784890
    One-Electron Energy =               -2339.4494550464696658
    Two-Electron Energy =                 983.5585938105507466
    Total Energy =                       -535.3084113524403165
  Basis Set: (AUG-CC-PVTZ AUX)
    Blend: AUG-CC-PVTZ-RI
    Molecular point group: c1

    Geometry (in Angstrom), charge = 1, multiplicity = 1:

       Center              X                  Y                   Z               Mass
    ------------   -----------------  -----------------  -----------------  -----------------
         N           -3.468912101271    -0.169393794916     0.161036945940    14.003074004430
         N           -0.670603101271     0.004469205084    -0.127998054060    14.003074004430
         C           -2.786929101271    -0.592633794916    -1.120924054060    12.000000000000
         C           -2.675670101271     0.865633205084     0.926714945940    12.000000000000
         C           -1.388965101271    -1.077765794916    -0.781461054060    12.000000000000
         C           -1.275915101271     0.326429205084     1.158243945940    12.000000000000
         C            0.759939898729    -0.172207794916    -0.038959054060    12.000000000000
         C            1.568802898729     0.961980205084    -0.235214054060    12.000000000000
         C            1.320703898729    -1.421479794916     0.250706945940    12.000000000000
         C            2.955309898729     0.797230205084    -0.133527054060    12.000000000000
         C            0.970512898729     2.307505205084    -0.548455054060    12.000000000000
         C            2.686821398729    -1.559554894916     0.328871245940    12.000000000000
         C            3.524530898729    -0.446766794916     0.144035945940    12.000000000000
         H           -2.750177101271     0.289417205084    -1.762546054060     1.007825032230
         H           -3.405707101271    -1.367678794916    -1.580564054060     1.007825032230
         H           -3.213347101271     1.070562205084     1.856039945940     1.007825032230
         H           -2.648123101271     1.761182205084     0.303281945940     1.007825032230
         H           -1.461856101271    -1.997657794916    -0.169800054060     1.007825032230
         H           -0.875295101271    -1.342189794916    -1.710068054060     1.007825032230
         H           -0.685695101271     1.103547205084     1.651205945940     1.007825032230
         H           -1.307059101271    -0.543583794916     1.842870945940     1.007825032230
         H           -4.414061101271     0.184824205084    -0.039447054060     1.007825032230
         H           -3.592988101271    -0.999554794916     0.758328945940     1.007825032230
         H            0.686913898729    -2.291393794916     0.409420945940     1.007825032230
         H            3.600753898729     1.659384205084    -0.288664054060     1.007825032230
         H            0.173616898729     2.217905205084    -1.290891054060     1.007825032230
         H            0.542757898729     2.782901205084     0.342422945940     1.007825032230
         H            1.736736898729     2.982023205084    -0.937891054060     1.007825032230
         H            3.142075898729    -2.533379794916     0.546773945940     1.007825032230
         H            4.604888898729    -0.546301794916     0.205423945940     1.007825032230

  Basis Set: AUG-CC-PVTZ
    Blend: AUG-CC-PVTZ
  Basis Set: (AUG-CC-PVTZ AUX)
    Blend: AUG-CC-PVTZ-JKFIT
	 Reference Energy          =    -535.3084113524403165 [Eh]
	 Singles Energy            =      -0.0000000000000000 [Eh]
	 Same-Spin Energy          =      -0.5853180102598646 [Eh]
	 Opposite-Spin Energy      =      -1.9171469193088402 [Eh]
	 Correlation Energy        =      -2.5024649295687049 [Eh]
	 Total Energy              =    -537.8108762820090760 [Eh]

	 ================> DF-SCS-MP2 Energies <==================
	-----------------------------------------------------------
	 SCS Same-Spin Scale       =       0.3333333333333333 [-]
	 SCS Opposite-Spin Scale   =       1.2000000000000000 [-]
	 SCS Same-Spin Energy      =      -0.1951060034199549 [Eh]
	 SCS Opposite-Spin Energy  =      -2.3005763031706081 [Eh]
	 SCS Correlation Energy    =      -2.4956823065905631 [Eh]
	 SCS Total Energy          =    -537.8040936590308547 [Eh]
	-----------------------------------------------------------

  Dipole Moment: [D]
     X:   -12.0975      Y:    -0.6814      Z:     0.7317     Total:    12.1387

*** Psi4 exiting successfully. Buy a developer a beer!
