                               Psi4 1.4a3.dev225

  ==> Input File <==

--------------------------------------------------------------------------
#psi4
#
memory 32 gb

molecule  {
1 1
  N       -3.4197460    -0.1817000     0.1602720
  N       -0.6214370    -0.0078370    -0.1287630
  C       -2.7377630    -0.6049400    -1.1216890
  C       -2.6265040     0.8533270     0.9259500
  C       -1.3645009    -1.1272862    -0.8046963
  C       -1.2267490     0.3141230     1.1574790
  C        0.8091060    -0.1845140    -0.0397240
  C        1.6179690     0.9496740    -0.2359790
  C        1.3698700    -1.4337860     0.2499420
  C        3.0044760     0.7849240    -0.1342920
  C        1.0196790     2.2951990    -0.5492200
  C        2.7558540    -1.5738690     0.3292430
  C        3.5736970    -0.4590730     0.1432710
  H       -2.7010110     0.2771110    -1.7633110
  H       -3.3565410    -1.3799850    -1.5813290
  H       -3.1641810     1.0582560     1.8552750
  H       -2.5989570     1.7488760     0.3025170
  H       -1.4126900    -2.0099640    -0.1705650
  H       -0.8261290    -1.3544960    -1.7108330
  H       -0.6365290     1.0912410     1.6504410
  H       -1.2578930    -0.5558900     1.8421060
  H       -4.3648950     0.1725180    -0.0402120
  H       -3.5438220    -1.0118610     0.7575640
  H        0.7360800    -2.3037000     0.4086560
  H        3.6499200     1.6470780    -0.2894290
  H        0.2227830     2.2055990    -1.2916560
  H        0.5919240     2.7705950     0.3416580
  H        1.7859030     2.9697170    -0.9386560
  H        3.1912420    -2.5456860     0.5460090
  H        4.6540550    -0.5586080     0.2046590
units angstrom
no_reorient  #important for SAPT in psi4, default
symmetry c1  #important for SAPT in psi4, default
}

set PROPERTIES_ORIGIN ["COM"]
properties('MP2/aug-cc-pvtz', properties = ['dipole'])
--------------------------------------------------------------------------

    Molecular point group: c1
  Charge       = 1
  Multiplicity = 1
  Basis Set: AUG-CC-PVTZ
    Blend: AUG-CC-PVTZ
  Basis Set: (AUG-CC-PVTZ AUX)
    Blend: AUG-CC-PVTZ-JKFIT

    Orbital Energies [Eh]
    ---------------------

    Doubly Occupied:

       1A    -15.867770     2A    -15.702396     3A    -11.457759
       4A    -11.456474     5A    -11.417136     6A    -11.416259
       7A    -11.374214     8A    -11.343494     9A    -11.339430
      10A    -11.331257    11A    -11.329269    12A    -11.327915
      13A    -11.322825    14A     -1.497906    15A     -1.380704
      16A     -1.248604    17A     -1.223980    18A     -1.155929
      19A     -1.142155    20A     -1.086811    21A     -1.052238
      22A     -1.031131    23A     -0.997030    24A     -0.936069
      25A     -0.924061    26A     -0.902111    27A     -0.867647
      28A     -0.825871    29A     -0.808476    30A     -0.791683
      31A     -0.785031    32A     -0.753806    33A     -0.744884
      34A     -0.735063    35A     -0.717039    36A     -0.704631
      37A     -0.689745    38A     -0.674595    39A     -0.670228
      40A     -0.661966    41A     -0.652304    42A     -0.639985
      43A     -0.599092    44A     -0.590714    45A     -0.586693
      46A     -0.520658    47A     -0.432797    48A     -0.422557

  @DF-RHF Final Energy:  -535.30664262138453

   => Energetics <=

    Nuclear Repulsion Energy =            819.3587579642041874
    One-Electron Energy =               -2337.0500182629220944
    Two-Electron Energy =                 982.3846176773333809
    Total Energy =                       -535.3066426213845261
  Basis Set: (AUG-CC-PVTZ AUX)
    Blend: AUG-CC-PVTZ-RI
    Molecular point group: c1

    Geometry (in Angstrom), charge = 1, multiplicity = 1:

       Center              X                  Y                   Z               Mass
    ------------   -----------------  -----------------  -----------------  -----------------
         N           -3.468584535105    -0.166736758697     0.162482155347    14.003074004430
         N           -0.670275535105     0.007126241303    -0.126552844653    14.003074004430
         C           -2.786601535105    -0.589976758697    -1.119478844653    12.000000000000
         C           -2.675342535105     0.868290241303     0.928160155347    12.000000000000
         C           -1.413339435105    -1.112322958697    -0.802486144653    12.000000000000
         C           -1.275587535105     0.329086241303     1.159689155347    12.000000000000
         C            0.760267464895    -0.169550758697    -0.037513844653    12.000000000000
         C            1.569130464895     0.964637241303    -0.233768844653    12.000000000000
         C            1.321031464895    -1.418822758697     0.252152155347    12.000000000000
         C            2.955637464895     0.799887241303    -0.132081844653    12.000000000000
         C            0.970840464895     2.310162241303    -0.547009844653    12.000000000000
         C            2.707015464895    -1.558905758697     0.331453155347    12.000000000000
         C            3.524858464895    -0.444109758697     0.145481155347    12.000000000000
         H           -2.749849535105     0.292074241303    -1.761100844653     1.007825032230
         H           -3.405379535105    -1.365021758697    -1.579118844653     1.007825032230
         H           -3.213019535105     1.073219241303     1.857485155347     1.007825032230
         H           -2.647795535105     1.763839241303     0.304727155347     1.007825032230
         H           -1.461528535105    -1.995000758697    -0.168354844653     1.007825032230
         H           -0.874967535105    -1.339532758697    -1.708622844653     1.007825032230
         H           -0.685367535105     1.106204241303     1.652651155347     1.007825032230
         H           -1.306731535105    -0.540926758697     1.844316155347     1.007825032230
         H           -4.413733535105     0.187481241303    -0.038001844653     1.007825032230
         H           -3.592660535105    -0.996897758697     0.759774155347     1.007825032230
         H            0.687241464895    -2.288736758697     0.410866155347     1.007825032230
         H            3.601081464895     1.662041241303    -0.287218844653     1.007825032230
         H            0.173944464895     2.220562241303    -1.289445844653     1.007825032230
         H            0.543085464895     2.785558241303     0.343868155347     1.007825032230
         H            1.737064464895     2.984680241303    -0.936445844653     1.007825032230
         H            3.142403464895    -2.530722758697     0.548219155347     1.007825032230
         H            4.605216464895    -0.543644758697     0.206869155347     1.007825032230

  Basis Set: AUG-CC-PVTZ
    Blend: AUG-CC-PVTZ
  Basis Set: (AUG-CC-PVTZ AUX)
    Blend: AUG-CC-PVTZ-JKFIT
	 Reference Energy          =    -535.3066426213845261 [Eh]
	 Singles Energy            =      -0.0000000000000000 [Eh]
	 Same-Spin Energy          =      -0.5851504138524154 [Eh]
	 Opposite-Spin Energy      =      -1.9173570865979239 [Eh]
	 Correlation Energy        =      -2.5025075004503394 [Eh]
	 Total Energy              =    -537.8091501218348185 [Eh]

	 ================> DF-SCS-MP2 Energies <==================
	-----------------------------------------------------------
	 SCS Same-Spin Scale       =       0.3333333333333333 [-]
	 SCS Opposite-Spin Scale   =       1.2000000000000000 [-]
	 SCS Same-Spin Energy      =      -0.1950501379508051 [Eh]
	 SCS Opposite-Spin Energy  =      -2.3008285039175087 [Eh]
	 SCS Correlation Energy    =      -2.4958786418683139 [Eh]
	 SCS Total Energy          =    -537.8025212632528564 [Eh]
	-----------------------------------------------------------

  Dipole Moment: [D]
     X:   -12.1916      Y:    -0.7529      Z:     0.7076     Total:    12.2353

*** Psi4 exiting successfully. Buy a developer a beer!
