                               Psi4 1.4a3.dev225

  ==> Input File <==

--------------------------------------------------------------------------
#psi4
#
memory 32 gb

molecule  {
1 1
  N       -3.4197460    -0.1817000     0.1602720
  N       -0.6214370    -0.0078370    -0.1287630
  C       -2.7377630    -0.6049400    -1.1216890
  C       -2.6265040     0.8533270     0.9259500
  C       -1.3397990    -1.0900720    -0.7822260
  C       -1.2267490     0.3141230     1.1574790
  C        0.8091060    -0.1845140    -0.0397240
  C        1.6179690     0.9496740    -0.2359790
  C        1.3698700    -1.4337860     0.2499420
  C        3.0044760     0.7849240    -0.1342920
  C        1.0196790     2.2951990    -0.5492200
  C        2.7558540    -1.5738690     0.3292430
  C        3.5736970    -0.4590730     0.1432710
  H       -2.7026948     0.2367000    -1.7339152
  H       -3.3565410    -1.3799850    -1.5813290
  H       -3.1641810     1.0582560     1.8552750
  H       -2.5989570     1.7488760     0.3025170
  H       -1.4126900    -2.0099640    -0.1705650
  H       -0.8261290    -1.3544960    -1.7108330
  H       -0.6365290     1.0912410     1.6504410
  H       -1.2578930    -0.5558900     1.8421060
  H       -4.3648950     0.1725180    -0.0402120
  H       -3.5438220    -1.0118610     0.7575640
  H        0.7360800    -2.3037000     0.4086560
  H        3.6499200     1.6470780    -0.2894290
  H        0.2227830     2.2055990    -1.2916560
  H        0.5919240     2.7705950     0.3416580
  H        1.7859030     2.9697170    -0.9386560
  H        3.1912420    -2.5456860     0.5460090
  H        4.6540550    -0.5586080     0.2046590
units angstrom
no_reorient  #important for SAPT in psi4, default
symmetry c1  #important for SAPT in psi4, default
}

set PROPERTIES_ORIGIN ["COM"]
properties('MP2/aug-cc-pvtz', properties = ['dipole'])
--------------------------------------------------------------------------

    Molecular point group: c1
  Charge       = 1
  Multiplicity = 1
  Basis Set: AUG-CC-PVTZ
    Blend: AUG-CC-PVTZ
  Basis Set: (AUG-CC-PVTZ AUX)
    Blend: AUG-CC-PVTZ-JKFIT

    Orbital Energies [Eh]
    ---------------------

    Doubly Occupied:

       1A    -15.866413     2A    -15.703146     3A    -11.456858
       4A    -11.451486     5A    -11.417314     6A    -11.417298
       7A    -11.375185     8A    -11.344405     9A    -11.340192
      10A    -11.331810    11A    -11.329892    12A    -11.328624
      13A    -11.323589    14A     -1.497765    15A     -1.390288
      16A     -1.249977    17A     -1.223505    18A     -1.156243
      19A     -1.143079    20A     -1.088998    21A     -1.054730
      22A     -1.032421    23A     -0.997775    24A     -0.935491
      25A     -0.924238    26A     -0.903397    27A     -0.867863
      28A     -0.828768    29A     -0.810307    30A     -0.793665
      31A     -0.788489    32A     -0.755112    33A     -0.745366
      34A     -0.735255    35A     -0.716666    36A     -0.705625
      37A     -0.689536    38A     -0.675276    39A     -0.669569
      40A     -0.660067    41A     -0.655600    42A     -0.640539
      43A     -0.599953    44A     -0.591693    45A     -0.588084
      46A     -0.521656    47A     -0.433562    48A     -0.423507

  @DF-RHF Final Energy:  -535.30801730276721

   => Energetics <=

    Nuclear Repulsion Energy =            820.5409175901698973
    One-Electron Energy =               -2339.3373185526629641
    Two-Electron Energy =                 983.4883836597257414
    Total Energy =                       -535.3080173027672117
  Basis Set: (AUG-CC-PVTZ AUX)
    Blend: AUG-CC-PVTZ-RI
    Molecular point group: c1

    Geometry (in Angstrom), charge = 1, multiplicity = 1:

       Center              X                  Y                   Z               Mass
    ------------   -----------------  -----------------  -----------------  -----------------
         N           -3.470248344517    -0.169027856563     0.160792696054    14.003074004430
         N           -0.671939344517     0.004835143437    -0.128242303946    14.003074004430
         C           -2.788265344517    -0.592267856563    -1.121168303946    12.000000000000
         C           -2.677006344517     0.865999143437     0.926470696054    12.000000000000
         C           -1.390301344517    -1.077399856563    -0.781705303946    12.000000000000
         C           -1.277251344517     0.326795143437     1.157999696054    12.000000000000
         C            0.758603655483    -0.171841856563    -0.039203303946    12.000000000000
         C            1.567466655483     0.962346143437    -0.235458303946    12.000000000000
         C            1.319367655483    -1.421113856563     0.250462696054    12.000000000000
         C            2.953973655483     0.797596143437    -0.133771303946    12.000000000000
         C            0.969176655483     2.307871143437    -0.548699303946    12.000000000000
         C            2.705351655483    -1.561196856563     0.329763696054    12.000000000000
         C            3.523194655483    -0.446400856563     0.143791696054    12.000000000000
         H           -2.753197144517     0.249372143437    -1.733394503946     1.007825032230
         H           -3.407043344517    -1.367312856563    -1.580808303946     1.007825032230
         H           -3.214683344517     1.070928143437     1.855795696054     1.007825032230
         H           -2.649459344517     1.761548143437     0.303037696054     1.007825032230
         H           -1.463192344517    -1.997291856563    -0.170044303946     1.007825032230
         H           -0.876631344517    -1.341823856563    -1.710312303946     1.007825032230
         H           -0.687031344517     1.103913143437     1.650961696054     1.007825032230
         H           -1.308395344517    -0.543217856563     1.842626696054     1.007825032230
         H           -4.415397344517     0.185190143437    -0.039691303946     1.007825032230
         H           -3.594324344517    -0.999188856563     0.758084696054     1.007825032230
         H            0.685577655483    -2.291027856563     0.409176696054     1.007825032230
         H            3.599417655483     1.659750143437    -0.288908303946     1.007825032230
         H            0.172280655483     2.218271143437    -1.291135303946     1.007825032230
         H            0.541421655483     2.783267143437     0.342178696054     1.007825032230
         H            1.735400655483     2.982389143437    -0.938135303946     1.007825032230
         H            3.140739655483    -2.533013856563     0.546529696054     1.007825032230
         H            4.603552655483    -0.545935856563     0.205179696054     1.007825032230

  Basis Set: AUG-CC-PVTZ
    Blend: AUG-CC-PVTZ
  Basis Set: (AUG-CC-PVTZ AUX)
    Blend: AUG-CC-PVTZ-JKFIT
	 Reference Energy          =    -535.3080173027672117 [Eh]
	 Singles Energy            =      -0.0000000000000000 [Eh]
	 Same-Spin Energy          =      -0.5852120105682348 [Eh]
	 Opposite-Spin Energy      =      -1.9167858260015904 [Eh]
	 Correlation Energy        =      -2.5019978365698252 [Eh]
	 Total Energy              =    -537.8100151393369970 [Eh]

	 ================> DF-SCS-MP2 Energies <==================
	-----------------------------------------------------------
	 SCS Same-Spin Scale       =       0.3333333333333333 [-]
	 SCS Opposite-Spin Scale   =       1.2000000000000000 [-]
	 SCS Same-Spin Energy      =      -0.1950706701894116 [Eh]
	 SCS Opposite-Spin Energy  =      -2.3001429912019082 [Eh]
	 SCS Correlation Energy    =      -2.4952136613913196 [Eh]
	 SCS Total Energy          =    -537.8032309641585016 [Eh]
	-----------------------------------------------------------

  Dipole Moment: [D]
     X:   -12.1113      Y:    -0.6863      Z:     0.7349     Total:    12.1529

*** Psi4 exiting successfully. Buy a developer a beer!
