                               Psi4 1.4a3.dev225

  ==> Input File <==

--------------------------------------------------------------------------
#psi4
#
memory 32 gb

molecule  {
1 1
  N       -3.4197460    -0.1817000     0.1602720
  N       -0.6214370    -0.0078370    -0.1287630
  C       -2.7377630    -0.6049400    -1.1216890
  C       -2.6265040     0.8533270     0.9259500
  C       -1.3397990    -1.0900720    -0.7822260
  C       -1.2267490     0.3141230     1.1574790
  C        0.8091060    -0.1845140    -0.0397240
  C        1.6179690     0.9496740    -0.2359790
  C        1.3698700    -1.4337860     0.2499420
  C        3.0044760     0.7849240    -0.1342920
  C        1.0196790     2.2951990    -0.5492200
  C        2.7558540    -1.5738690     0.3292430
  C        3.5736970    -0.4590730     0.1432710
  H       -2.7077461     0.1154669    -1.6457278
  H       -3.3565410    -1.3799850    -1.5813290
  H       -3.1641810     1.0582560     1.8552750
  H       -2.5989570     1.7488760     0.3025170
  H       -1.4126900    -2.0099640    -0.1705650
  H       -0.8261290    -1.3544960    -1.7108330
  H       -0.6365290     1.0912410     1.6504410
  H       -1.2578930    -0.5558900     1.8421060
  H       -4.3648950     0.1725180    -0.0402120
  H       -3.5438220    -1.0118610     0.7575640
  H        0.7360800    -2.3037000     0.4086560
  H        3.6499200     1.6470780    -0.2894290
  H        0.2227830     2.2055990    -1.2916560
  H        0.5919240     2.7705950     0.3416580
  H        1.7859030     2.9697170    -0.9386560
  H        3.1912420    -2.5456860     0.5460090
  H        4.6540550    -0.5586080     0.2046590
units angstrom
no_reorient  #important for SAPT in psi4, default
symmetry c1  #important for SAPT in psi4, default
}

set PROPERTIES_ORIGIN ["COM"]
properties('MP2/aug-cc-pvtz', properties = ['dipole'])
--------------------------------------------------------------------------

    Molecular point group: c1
  Charge       = 1
  Multiplicity = 1
  Basis Set: AUG-CC-PVTZ
    Blend: AUG-CC-PVTZ
  Basis Set: (AUG-CC-PVTZ AUX)
    Blend: AUG-CC-PVTZ-JKFIT

    Orbital Energies [Eh]
    ---------------------

    Doubly Occupied:

       1A    -15.866020     2A    -15.703411     3A    -11.457090
       4A    -11.435086     5A    -11.417417     6A    -11.416822
       7A    -11.375235     8A    -11.344447     9A    -11.340214
      10A    -11.331817    11A    -11.329907    12A    -11.328650
      13A    -11.323589    14A     -1.498952    15A     -1.390403
      16A     -1.250329    17A     -1.231371    18A     -1.159368
      19A     -1.144575    20A     -1.093156    21A     -1.059701
      22A     -1.033778    23A     -1.002943    24A     -0.935568
      25A     -0.924235    26A     -0.903648    27A     -0.870603
      28A     -0.845294    29A     -0.810505    30A     -0.793912
      31A     -0.788537    32A     -0.755737    33A     -0.747969
      34A     -0.737654    35A     -0.722179    36A     -0.707168
      37A     -0.692243    38A     -0.675381    39A     -0.669608
      40A     -0.660251    41A     -0.655591    42A     -0.640599
      43A     -0.599972    44A     -0.591727    45A     -0.588109
      46A     -0.521662    47A     -0.433584    48A     -0.423550

  @DF-RHF Final Energy:  -535.27472921602146

   => Energetics <=

    Nuclear Repulsion Energy =            821.3845615615464339
    One-Electron Energy =               -2340.8594481265704417
    Two-Electron Energy =                 984.2001573490025521
    Total Energy =                       -535.2747292160214556
  Basis Set: (AUG-CC-PVTZ AUX)
    Blend: AUG-CC-PVTZ-RI
    Molecular point group: c1

    Geometry (in Angstrom), charge = 1, multiplicity = 1:

       Center              X                  Y                   Z               Mass
    ------------   -----------------  -----------------  -----------------  -----------------
         N           -3.470219605382    -0.168338106518     0.160290957971    14.003074004430
         N           -0.671910605382     0.005524893482    -0.128744042029    14.003074004430
         C           -2.788236605382    -0.591578106518    -1.121670042029    12.000000000000
         C           -2.676977605382     0.866688893482     0.925968957971    12.000000000000
         C           -1.390272605382    -1.076710106518    -0.782207042029    12.000000000000
         C           -1.277222605382     0.327484893482     1.157497957971    12.000000000000
         C            0.758632394618    -0.171152106518    -0.039705042029    12.000000000000
         C            1.567495394618     0.963035893482    -0.235960042029    12.000000000000
         C            1.319396394618    -1.420424106518     0.249960957971    12.000000000000
         C            2.954002394618     0.798285893482    -0.134273042029    12.000000000000
         C            0.969205394618     2.308560893482    -0.549201042029    12.000000000000
         C            2.705380394618    -1.560507106518     0.329261957971    12.000000000000
         C            3.523223394618    -0.445711106518     0.143289957971    12.000000000000
         H           -2.758219705382     0.128828793482    -1.645708842029     1.007825032230
         H           -3.407014605382    -1.366623106518    -1.581310042029     1.007825032230
         H           -3.214654605382     1.071617893482     1.855293957971     1.007825032230
         H           -2.649430605382     1.762237893482     0.302535957971     1.007825032230
         H           -1.463163605382    -1.996602106518    -0.170546042029     1.007825032230
         H           -0.876602605382    -1.341134106518    -1.710814042029     1.007825032230
         H           -0.687002605382     1.104602893482     1.650459957971     1.007825032230
         H           -1.308366605382    -0.542528106518     1.842124957971     1.007825032230
         H           -4.415368605382     0.185879893482    -0.040193042029     1.007825032230
         H           -3.594295605382    -0.998499106518     0.757582957971     1.007825032230
         H            0.685606394618    -2.290338106518     0.408674957971     1.007825032230
         H            3.599446394618     1.660439893482    -0.289410042029     1.007825032230
         H            0.172309394618     2.218960893482    -1.291637042029     1.007825032230
         H            0.541450394618     2.783956893482     0.341676957971     1.007825032230
         H            1.735429394618     2.983078893482    -0.938637042029     1.007825032230
         H            3.140768394618    -2.532324106518     0.546027957971     1.007825032230
         H            4.603581394618    -0.545246106518     0.204677957971     1.007825032230

  Basis Set: AUG-CC-PVTZ
    Blend: AUG-CC-PVTZ
  Basis Set: (AUG-CC-PVTZ AUX)
    Blend: AUG-CC-PVTZ-JKFIT
	 Reference Energy          =    -535.2747292160214556 [Eh]
	 Singles Energy            =      -0.0000000000000000 [Eh]
	 Same-Spin Energy          =      -0.5850843967631169 [Eh]
	 Opposite-Spin Energy      =      -1.9162353103639596 [Eh]
	 Correlation Energy        =      -2.5013197071270765 [Eh]
	 Total Energy              =    -537.7760489231485508 [Eh]

	 ================> DF-SCS-MP2 Energies <==================
	-----------------------------------------------------------
	 SCS Same-Spin Scale       =       0.3333333333333333 [-]
	 SCS Opposite-Spin Scale   =       1.2000000000000000 [-]
	 SCS Same-Spin Energy      =      -0.1950281322543723 [Eh]
	 SCS Opposite-Spin Energy  =      -2.2994823724367515 [Eh]
	 SCS Correlation Energy    =      -2.4945105046911236 [Eh]
	 SCS Total Energy          =    -537.7692397207125623 [Eh]
	-----------------------------------------------------------

  Dipole Moment: [D]
     X:   -12.1232      Y:    -0.6962      Z:     0.7509     Total:    12.1664

*** Psi4 exiting successfully. Buy a developer a beer!
