                               Psi4 1.4a3.dev225

  ==> Input File <==

--------------------------------------------------------------------------
#psi4
#
memory 32 gb

molecule  {
1 1
  N       -3.4197460    -0.1817000     0.1602720
  N       -0.6214370    -0.0078370    -0.1287630
  C       -2.7377630    -0.6049400    -1.1216890
  C       -2.6265040     0.8533270     0.9259500
  C       -1.3397990    -1.0900720    -0.7822260
  C       -1.2267490     0.3141230     1.1574790
  C        0.8541714    -0.1658077    -0.0421695
  C        1.6179690     0.9496740    -0.2359790
  C        1.3698700    -1.4337860     0.2499420
  C        3.0044760     0.7849240    -0.1342920
  C        1.0196790     2.2951990    -0.5492200
  C        2.7558540    -1.5738690     0.3292430
  C        3.5736970    -0.4590730     0.1432710
  H       -2.7010110     0.2771110    -1.7633110
  H       -3.3565410    -1.3799850    -1.5813290
  H       -3.1641810     1.0582560     1.8552750
  H       -2.5989570     1.7488760     0.3025170
  H       -1.4126900    -2.0099640    -0.1705650
  H       -0.8261290    -1.3544960    -1.7108330
  H       -0.6365290     1.0912410     1.6504410
  H       -1.2578930    -0.5558900     1.8421060
  H       -4.3648950     0.1725180    -0.0402120
  H       -3.5438220    -1.0118610     0.7575640
  H        0.7360800    -2.3037000     0.4086560
  H        3.6499200     1.6470780    -0.2894290
  H        0.2227830     2.2055990    -1.2916560
  H        0.5919240     2.7705950     0.3416580
  H        1.7859030     2.9697170    -0.9386560
  H        3.1912420    -2.5456860     0.5460090
  H        4.6540550    -0.5586080     0.2046590
units angstrom
no_reorient  #important for SAPT in psi4, default
symmetry c1  #important for SAPT in psi4, default
}

set PROPERTIES_ORIGIN ["COM"]
properties('MP2/aug-cc-pvtz', properties = ['dipole'])
--------------------------------------------------------------------------

    Molecular point group: c1
  Charge       = 1
  Multiplicity = 1
  Basis Set: AUG-CC-PVTZ
    Blend: AUG-CC-PVTZ
  Basis Set: (AUG-CC-PVTZ AUX)
    Blend: AUG-CC-PVTZ-JKFIT

    Orbital Energies [Eh]
    ---------------------

    Doubly Occupied:

       1A    -15.865340     2A    -15.700335     3A    -11.455506
       4A    -11.455262     5A    -11.415878     6A    -11.415117
       7A    -11.374771     8A    -11.341452     9A    -11.341088
      10A    -11.333262    11A    -11.331389    12A    -11.329312
      13A    -11.324787    14A     -1.495955    15A     -1.381111
      16A     -1.255828    17A     -1.220053    18A     -1.155131
      19A     -1.142244    20A     -1.088501    21A     -1.051058
      22A     -1.034684    23A     -0.993404    24A     -0.936151
      25A     -0.924384    26A     -0.904382    27A     -0.866248
      28A     -0.822198    29A     -0.807244    30A     -0.792017
      31A     -0.785125    32A     -0.755406    33A     -0.744588
      34A     -0.732837    35A     -0.715105    36A     -0.704847
      37A     -0.686158    38A     -0.676882    39A     -0.670849
      40A     -0.657804    41A     -0.653282    42A     -0.640584
      43A     -0.601216    44A     -0.593307    45A     -0.590356
      46A     -0.518247    47A     -0.433799    48A     -0.429820

  @DF-RHF Final Energy:  -535.30662290093107

   => Energetics <=

    Nuclear Repulsion Energy =            820.1896477668790340
    One-Electron Energy =               -2338.7039314018429650
    Two-Electron Energy =                 983.2076607340328565
    Total Energy =                       -535.3066229009310746
  Basis Set: (AUG-CC-PVTZ AUX)
    Blend: AUG-CC-PVTZ-RI
    Molecular point group: c1

    Geometry (in Angstrom), charge = 1, multiplicity = 1:

       Center              X                  Y                   Z               Mass
    ------------   -----------------  -----------------  -----------------  -----------------
         N           -3.473310805320    -0.170525000374     0.161125608429    14.003074004430
         N           -0.675001805320     0.003337999626    -0.127909391571    14.003074004430
         C           -2.791327805320    -0.593765000374    -1.120835391571    12.000000000000
         C           -2.680068805320     0.864501999626     0.926803608429    12.000000000000
         C           -1.393363805320    -1.078897000374    -0.781372391571    12.000000000000
         C           -1.280313805320     0.325297999626     1.158332608429    12.000000000000
         C            0.800606594680    -0.154632700374    -0.041315891571    12.000000000000
         C            1.564404194680     0.960848999626    -0.235125391571    12.000000000000
         C            1.316305194680    -1.422611000374     0.250795608429    12.000000000000
         C            2.950911194680     0.796098999626    -0.133438391571    12.000000000000
         C            0.966114194680     2.306373999626    -0.548366391571    12.000000000000
         C            2.702289194680    -1.562694000374     0.330096608429    12.000000000000
         C            3.520132194680    -0.447898000374     0.144124608429    12.000000000000
         H           -2.754575805320     0.288285999626    -1.762457391571     1.007825032230
         H           -3.410105805320    -1.368810000374    -1.580475391571     1.007825032230
         H           -3.217745805320     1.069430999626     1.856128608429     1.007825032230
         H           -2.652521805320     1.760050999626     0.303370608429     1.007825032230
         H           -1.466254805320    -1.998789000374    -0.169711391571     1.007825032230
         H           -0.879693805320    -1.343321000374    -1.709979391571     1.007825032230
         H           -0.690093805320     1.102415999626     1.651294608429     1.007825032230
         H           -1.311457805320    -0.544715000374     1.842959608429     1.007825032230
         H           -4.418459805320     0.183692999626    -0.039358391571     1.007825032230
         H           -3.597386805320    -1.000686000374     0.758417608429     1.007825032230
         H            0.682515194680    -2.292525000374     0.409509608429     1.007825032230
         H            3.596355194680     1.658252999626    -0.288575391571     1.007825032230
         H            0.169218194680     2.216773999626    -1.290802391571     1.007825032230
         H            0.538359194680     2.781769999626     0.342511608429     1.007825032230
         H            1.732338194680     2.980891999626    -0.937802391571     1.007825032230
         H            3.137677194680    -2.534511000374     0.546862608429     1.007825032230
         H            4.600490194680    -0.547433000374     0.205512608429     1.007825032230

  Basis Set: AUG-CC-PVTZ
    Blend: AUG-CC-PVTZ
  Basis Set: (AUG-CC-PVTZ AUX)
    Blend: AUG-CC-PVTZ-JKFIT
	 Reference Energy          =    -535.3066229009310746 [Eh]
	 Singles Energy            =      -0.0000000000000000 [Eh]
	 Same-Spin Energy          =      -0.5850353274082738 [Eh]
	 Opposite-Spin Energy      =      -1.9169367302879576 [Eh]
	 Correlation Energy        =      -2.5019720576962312 [Eh]
	 Total Energy              =    -537.8085949586272818 [Eh]

	 ================> DF-SCS-MP2 Energies <==================
	-----------------------------------------------------------
	 SCS Same-Spin Scale       =       0.3333333333333333 [-]
	 SCS Opposite-Spin Scale   =       1.2000000000000000 [-]
	 SCS Same-Spin Energy      =      -0.1950117758027579 [Eh]
	 SCS Opposite-Spin Energy  =      -2.3003240763455493 [Eh]
	 SCS Correlation Energy    =      -2.4953358521483073 [Eh]
	 SCS Total Energy          =    -537.8019587530793615 [Eh]
	-----------------------------------------------------------

  Dipole Moment: [D]
     X:   -11.9333      Y:    -0.6805      Z:     0.7202     Total:    11.9744

*** Psi4 exiting successfully. Buy a developer a beer!
