                               Psi4 1.4a3.dev225

  ==> Input File <==

--------------------------------------------------------------------------
#psi4
#
memory 32 gb

molecule  {
1 1
  N       -3.4315261    -0.1103872     0.0833522
  N       -0.6214370    -0.0078370    -0.1287630
  C       -2.7377630    -0.6049400    -1.1216890
  C       -2.6265040     0.8533270     0.9259500
  C       -1.3397990    -1.0900720    -0.7822260
  C       -1.2267490     0.3141230     1.1574790
  C        0.8091060    -0.1845140    -0.0397240
  C        1.6179690     0.9496740    -0.2359790
  C        1.3698700    -1.4337860     0.2499420
  C        3.0044760     0.7849240    -0.1342920
  C        1.0196790     2.2951990    -0.5492200
  C        2.7558540    -1.5738690     0.3292430
  C        3.5736970    -0.4590730     0.1432710
  H       -2.7010110     0.2771110    -1.7633110
  H       -3.3565410    -1.3799850    -1.5813290
  H       -3.1641810     1.0582560     1.8552750
  H       -2.5989570     1.7488760     0.3025170
  H       -1.4126900    -2.0099640    -0.1705650
  H       -0.8261290    -1.3544960    -1.7108330
  H       -0.6365290     1.0912410     1.6504410
  H       -1.2578930    -0.5558900     1.8421060
  H       -4.3648950     0.1725180    -0.0402120
  H       -3.5438220    -1.0118610     0.7575640
  H        0.7360800    -2.3037000     0.4086560
  H        3.6499200     1.6470780    -0.2894290
  H        0.2227830     2.2055990    -1.2916560
  H        0.5919240     2.7705950     0.3416580
  H        1.7859030     2.9697170    -0.9386560
  H        3.1912420    -2.5456860     0.5460090
  H        4.6540550    -0.5586080     0.2046590
units angstrom
no_reorient  #important for SAPT in psi4, default
symmetry c1  #important for SAPT in psi4, default
}

set PROPERTIES_ORIGIN ["COM"]
properties('MP2/aug-cc-pvtz', properties = ['dipole'])
--------------------------------------------------------------------------

    Molecular point group: c1
  Charge       = 1
  Multiplicity = 1
  Basis Set: AUG-CC-PVTZ
    Blend: AUG-CC-PVTZ
  Basis Set: (AUG-CC-PVTZ AUX)
    Blend: AUG-CC-PVTZ-JKFIT

    Orbital Energies [Eh]
    ---------------------

    Doubly Occupied:

       1A    -15.870582     2A    -15.703682     3A    -11.457708
       4A    -11.453726     5A    -11.419030     6A    -11.418681
       7A    -11.375453     8A    -11.344646     9A    -11.340492
      10A    -11.332047    11A    -11.330114    12A    -11.328859
      13A    -11.323622    14A     -1.500222    15A     -1.391090
      16A     -1.250263    17A     -1.224242    18A     -1.156335
      19A     -1.143015    20A     -1.088108    21A     -1.058890
      22A     -1.031631    23A     -0.986492    24A     -0.943115
      25A     -0.926485    26A     -0.903719    27A     -0.862259
      28A     -0.818776    29A     -0.808224    30A     -0.797832
      31A     -0.792321    32A     -0.756723    33A     -0.743201
      34A     -0.732302    35A     -0.713588    36A     -0.694572
      37A     -0.689852    38A     -0.675284    39A     -0.670417
      40A     -0.661235    41A     -0.657366    42A     -0.640635
      43A     -0.600160    44A     -0.592076    45A     -0.588323
      46A     -0.522133    47A     -0.433841    48A     -0.423758

  @DF-RHF Final Energy:  -535.29411298911805

   => Energetics <=

    Nuclear Repulsion Energy =            820.3936381056868186
    One-Electron Energy =               -2339.0212466569569187
    Two-Electron Energy =                 983.3334955621519384
    Total Energy =                       -535.2941129891180481
  Basis Set: (AUG-CC-PVTZ AUX)
    Blend: AUG-CC-PVTZ-RI
    Molecular point group: c1

    Geometry (in Angstrom), charge = 1, multiplicity = 1:

       Center              X                  Y                   Z               Mass
    ------------   -----------------  -----------------  -----------------  -----------------
         N           -3.481106792727    -0.103582339403     0.090120748816    14.003074004430
         N           -0.671017692727    -0.001032139403    -0.121994451184    14.003074004430
         C           -2.787343692727    -0.598135139403    -1.114920451184    12.000000000000
         C           -2.676084692727     0.860131860597     0.932718548816    12.000000000000
         C           -1.389379692727    -1.083267139403    -0.775457451184    12.000000000000
         C           -1.276329692727     0.320927860597     1.164247548816    12.000000000000
         C            0.759525307273    -0.177709139403    -0.032955451184    12.000000000000
         C            1.568388307273     0.956478860597    -0.229210451184    12.000000000000
         C            1.320289307273    -1.426981139403     0.256710548816    12.000000000000
         C            2.954895307273     0.791728860597    -0.127523451184    12.000000000000
         C            0.970098307273     2.302003860597    -0.542451451184    12.000000000000
         C            2.706273307273    -1.567064139403     0.336011548816    12.000000000000
         C            3.524116307273    -0.452268139403     0.150039548816    12.000000000000
         H           -2.750591692727     0.283915860597    -1.756542451184     1.007825032230
         H           -3.406121692727    -1.373180139403    -1.574560451184     1.007825032230
         H           -3.213761692727     1.065060860597     1.862043548816     1.007825032230
         H           -2.648537692727     1.755680860597     0.309285548816     1.007825032230
         H           -1.462270692727    -2.003159139403    -0.163796451184     1.007825032230
         H           -0.875709692727    -1.347691139403    -1.704064451184     1.007825032230
         H           -0.686109692727     1.098045860597     1.657209548816     1.007825032230
         H           -1.307473692727    -0.549085139403     1.848874548816     1.007825032230
         H           -4.414475692727     0.179322860597    -0.033443451184     1.007825032230
         H           -3.593402692727    -1.005056139403     0.764332548816     1.007825032230
         H            0.686499307273    -2.296895139403     0.415424548816     1.007825032230
         H            3.600339307273     1.653882860597    -0.282660451184     1.007825032230
         H            0.173202307273     2.212403860597    -1.284887451184     1.007825032230
         H            0.542343307273     2.777399860597     0.348426548816     1.007825032230
         H            1.736322307273     2.976521860597    -0.931887451184     1.007825032230
         H            3.141661307273    -2.538881139403     0.552777548816     1.007825032230
         H            4.604474307273    -0.551803139403     0.211427548816     1.007825032230

  Basis Set: AUG-CC-PVTZ
    Blend: AUG-CC-PVTZ
  Basis Set: (AUG-CC-PVTZ AUX)
    Blend: AUG-CC-PVTZ-JKFIT
	 Reference Energy          =    -535.2941129891180481 [Eh]
	 Singles Energy            =      -0.0000000000000000 [Eh]
	 Same-Spin Energy          =      -0.5861012646010779 [Eh]
	 Opposite-Spin Energy      =      -1.9186225434644628 [Eh]
	 Correlation Energy        =      -2.5047238080655410 [Eh]
	 Total Energy              =    -537.7988367971836396 [Eh]

	 ================> DF-SCS-MP2 Energies <==================
	-----------------------------------------------------------
	 SCS Same-Spin Scale       =       0.3333333333333333 [-]
	 SCS Opposite-Spin Scale   =       1.2000000000000000 [-]
	 SCS Same-Spin Energy      =      -0.1953670882003593 [Eh]
	 SCS Opposite-Spin Energy  =      -2.3023470521573555 [Eh]
	 SCS Correlation Energy    =      -2.4977141403577146 [Eh]
	 SCS Total Energy          =    -537.7918271294757915 [Eh]
	-----------------------------------------------------------

  Dipole Moment: [D]
     X:   -12.0594      Y:    -0.7191      Z:     0.8103     Total:    12.1079

*** Psi4 exiting successfully. Buy a developer a beer!
