                               Psi4 1.4a3.dev225

  ==> Input File <==

--------------------------------------------------------------------------
#psi4
#
memory 32 gb

molecule  {
1 1
  N       -3.4197460    -0.1817000     0.1602720
  N       -0.6214370    -0.0078370    -0.1287630
  C       -2.7377630    -0.6049400    -1.1216890
  C       -2.6265040     0.8533270     0.9259500
  C       -1.3397990    -1.0900720    -0.7822260
  C       -1.2267490     0.3141230     1.1574790
  C        0.8091060    -0.1845140    -0.0397240
  C        1.6179690     0.9496740    -0.2359790
  C        1.3698700    -1.4337860     0.2499420
  C        3.0044760     0.7849240    -0.1342920
  C        1.0196790     2.2951990    -0.5492200
  C        2.7558540    -1.5738690     0.3292430
  C        3.5736970    -0.4590730     0.1432710
  H       -2.7010110     0.2771110    -1.7633110
  H       -3.3565410    -1.3799850    -1.5813290
  H       -3.1641810     1.0582560     1.8552750
  H       -2.5989570     1.7488760     0.3025170
  H       -1.4126900    -2.0099640    -0.1705650
  H       -0.8261290    -1.3544960    -1.7108330
  H       -0.6365290     1.0912410     1.6504410
  H       -1.2578930    -0.5558900     1.8421060
  H       -4.3648950     0.1725180    -0.0402120
  H       -3.5438220    -1.0118610     0.7575640
  H        0.7360800    -2.3037000     0.4086560
  H        3.6499200     1.6470780    -0.2894290
  H        0.2227830     2.2055990    -1.2916560
  H        0.5919240     2.7705950     0.3416580
  H        1.7859030     2.9697170    -0.9386560
  H        3.1912420    -2.5456860     0.5460090
  H        4.6341711    -0.5567761     0.2035292
units angstrom
no_reorient  #important for SAPT in psi4, default
symmetry c1  #important for SAPT in psi4, default
}

set PROPERTIES_ORIGIN ["COM"]
properties('MP2/aug-cc-pvtz', properties = ['dipole'])
--------------------------------------------------------------------------

    Molecular point group: c1
  Charge       = 1
  Multiplicity = 1
  Basis Set: AUG-CC-PVTZ
    Blend: AUG-CC-PVTZ
  Basis Set: (AUG-CC-PVTZ AUX)
    Blend: AUG-CC-PVTZ-JKFIT

    Orbital Energies [Eh]
    ---------------------

    Doubly Occupied:

       1A    -15.866629     2A    -15.703042     3A    -11.456803
       4A    -11.456770     5A    -11.417531     6A    -11.417261
       7A    -11.375143     8A    -11.344296     9A    -11.340095
      10A    -11.331615    11A    -11.329500    12A    -11.326692
      13A    -11.323530    14A     -1.497534    15A     -1.390241
      16A     -1.249947    17A     -1.221854    18A     -1.155827
      19A     -1.142584    20A     -1.088574    21A     -1.053490
      22A     -1.031960    23A     -0.996253    24A     -0.935627
      25A     -0.924518    26A     -0.903913    27A     -0.867759
      28A     -0.823724    29A     -0.810195    30A     -0.793614
      31A     -0.788485    32A     -0.757363    33A     -0.744792
      34A     -0.734579    35A     -0.714655    36A     -0.704537
      37A     -0.687781    38A     -0.675180    39A     -0.669811
      40A     -0.659954    41A     -0.656157    42A     -0.640707
      43A     -0.600277    44A     -0.592517    45A     -0.587997
      46A     -0.521628    47A     -0.433496    48A     -0.423435

  @DF-RHF Final Energy:  -535.30900585909853

   => Energetics <=

    Nuclear Repulsion Energy =            820.4008451146554535
    One-Electron Energy =               -2339.0799671256440888
    Two-Electron Energy =                 983.3701161518899880
    Total Energy =                       -535.3090058590985336
  Basis Set: (AUG-CC-PVTZ AUX)
    Blend: AUG-CC-PVTZ-RI
    Molecular point group: c1

    Geometry (in Angstrom), charge = 1, multiplicity = 1:

       Center              X                  Y                   Z               Mass
    ------------   -----------------  -----------------  -----------------  -----------------
         N           -3.470144795900    -0.169268195565     0.160966370025    14.003074004430
         N           -0.671835795900     0.004594804435    -0.128068629975    14.003074004430
         C           -2.788161795900    -0.592508195565    -1.120994629975    12.000000000000
         C           -2.676902795900     0.865758804435     0.926644370025    12.000000000000
         C           -1.390197795900    -1.077640195565    -0.781531629975    12.000000000000
         C           -1.277147795900     0.326554804435     1.158173370025    12.000000000000
         C            0.758707204100    -0.172082195565    -0.039029629975    12.000000000000
         C            1.567570204100     0.962105804435    -0.235284629975    12.000000000000
         C            1.319471204100    -1.421354195565     0.250636370025    12.000000000000
         C            2.954077204100     0.797355804435    -0.133597629975    12.000000000000
         C            0.969280204100     2.307630804435    -0.548525629975    12.000000000000
         C            2.705455204100    -1.561437195565     0.329937370025    12.000000000000
         C            3.523298204100    -0.446641195565     0.143965370025    12.000000000000
         H           -2.751409795900     0.289542804435    -1.762616629975     1.007825032230
         H           -3.406939795900    -1.367553195565    -1.580634629975     1.007825032230
         H           -3.214579795900     1.070687804435     1.855969370025     1.007825032230
         H           -2.649355795900     1.761307804435     0.303211370025     1.007825032230
         H           -1.463088795900    -1.997532195565    -0.169870629975     1.007825032230
         H           -0.876527795900    -1.342064195565    -1.710138629975     1.007825032230
         H           -0.686927795900     1.103672804435     1.651135370025     1.007825032230
         H           -1.308291795900    -0.543458195565     1.842800370025     1.007825032230
         H           -4.415293795900     0.184949804435    -0.039517629975     1.007825032230
         H           -3.594220795900    -0.999429195565     0.758258370025     1.007825032230
         H            0.685681204100    -2.291268195565     0.409350370025     1.007825032230
         H            3.599521204100     1.659509804435    -0.288734629975     1.007825032230
         H            0.172384204100     2.218030804435    -1.290961629975     1.007825032230
         H            0.541525204100     2.783026804435     0.342352370025     1.007825032230
         H            1.735504204100     2.982148804435    -0.937961629975     1.007825032230
         H            3.140843204100    -2.533254195565     0.546703370025     1.007825032230
         H            4.583772304100    -0.544344295565     0.204223570025     1.007825032230

  Basis Set: AUG-CC-PVTZ
    Blend: AUG-CC-PVTZ
  Basis Set: (AUG-CC-PVTZ AUX)
    Blend: AUG-CC-PVTZ-JKFIT
	 Reference Energy          =    -535.3090058590985336 [Eh]
	 Singles Energy            =      -0.0000000000000000 [Eh]
	 Same-Spin Energy          =      -0.5852586195983859 [Eh]
	 Opposite-Spin Energy      =      -1.9170013292779342 [Eh]
	 Correlation Energy        =      -2.5022599488763202 [Eh]
	 Total Energy              =    -537.8112658079749053 [Eh]

	 ================> DF-SCS-MP2 Energies <==================
	-----------------------------------------------------------
	 SCS Same-Spin Scale       =       0.3333333333333333 [-]
	 SCS Opposite-Spin Scale   =       1.2000000000000000 [-]
	 SCS Same-Spin Energy      =      -0.1950862065327953 [Eh]
	 SCS Opposite-Spin Energy  =      -2.3004015951335210 [Eh]
	 SCS Correlation Energy    =      -2.4954878016663162 [Eh]
	 SCS Total Energy          =    -537.8044936607648197 [Eh]
	-----------------------------------------------------------

  Dipole Moment: [D]
     X:   -12.1031      Y:    -0.6855      Z:     0.7327     Total:    12.1447

*** Psi4 exiting successfully. Buy a developer a beer!
