                               Psi4 1.4a3.dev225

  ==> Input File <==

--------------------------------------------------------------------------
#psi4
#
memory 32 gb

molecule  {
1 1
  N       -3.4197460    -0.1817000     0.1602720
  N       -0.6214370    -0.0078370    -0.1287630
  C       -2.7377630    -0.6049400    -1.1216890
  C       -2.6265040     0.8533270     0.9259500
  C       -1.3397990    -1.0900720    -0.7822260
  C       -1.2267490     0.3141230     1.1574790
  C        0.8091060    -0.1845140    -0.0397240
  C        1.6179690     0.9496740    -0.2359790
  C        1.3698700    -1.4337860     0.2499420
  C        3.0044760     0.7849240    -0.1342920
  C        1.0196790     2.2951990    -0.5492200
  C        2.7558540    -1.5738690     0.3292430
  C        3.5736970    -0.4590730     0.1432710
  H       -2.7010110     0.2771110    -1.7633110
  H       -3.3565410    -1.3799850    -1.5813290
  H       -3.1641810     1.0582560     1.8552750
  H       -2.5989570     1.7488760     0.3025170
  H       -1.4126900    -2.0099640    -0.1705650
  H       -0.8261290    -1.3544960    -1.7108330
  H       -0.6365290     1.0912410     1.6504410
  H       -1.2578930    -0.5558900     1.8421060
  H       -4.3648950     0.1725180    -0.0402120
  H       -3.5438220    -1.0118610     0.7575640
  H        0.7360800    -2.3037000     0.4086560
  H        3.6499200     1.6470780    -0.2894290
  H        0.2227830     2.2055990    -1.2916560
  H        0.6156622     2.8001691     0.3364521
  H        1.7859030     2.9697170    -0.9386560
  H        3.1912420    -2.5456860     0.5460090
  H        4.6540550    -0.5586080     0.2046590
units angstrom
no_reorient  #important for SAPT in psi4, default
symmetry c1  #important for SAPT in psi4, default
}

set PROPERTIES_ORIGIN ["COM"]
properties('MP2/aug-cc-pvtz', properties = ['dipole'])
--------------------------------------------------------------------------

    Molecular point group: c1
  Charge       = 1
  Multiplicity = 1
  Basis Set: AUG-CC-PVTZ
    Blend: AUG-CC-PVTZ
  Basis Set: (AUG-CC-PVTZ AUX)
    Blend: AUG-CC-PVTZ-JKFIT

    Orbital Energies [Eh]
    ---------------------

    Doubly Occupied:

       1A    -15.866568     2A    -15.703012     3A    -11.456773
       4A    -11.456674     5A    -11.417508     6A    -11.417132
       7A    -11.375284     8A    -11.344527     9A    -11.340197
      10A    -11.331937    11A    -11.329988    12A    -11.328677
      13A    -11.323338    14A     -1.497474    15A     -1.390204
      16A     -1.249945    17A     -1.221781    18A     -1.155560
      19A     -1.142563    20A     -1.088094    21A     -1.053420
      22A     -1.032022    23A     -0.996042    24A     -0.935474
      25A     -0.924225    26A     -0.903566    27A     -0.867433
      28A     -0.823653    29A     -0.810175    30A     -0.793508
      31A     -0.788416    32A     -0.755221    33A     -0.744655
      34A     -0.734514    35A     -0.714585    36A     -0.704479
      37A     -0.687744    38A     -0.675094    39A     -0.669611
      40A     -0.659812    41A     -0.655605    42A     -0.639439
      43A     -0.600383    44A     -0.591635    45A     -0.587860
      46A     -0.521610    47A     -0.433581    48A     -0.423653

  @DF-RHF Final Energy:  -535.30874426243258

   => Energetics <=

    Nuclear Repulsion Energy =            820.2093352333356506
    One-Electron Energy =               -2338.7068626099667199
    Two-Electron Energy =                 983.1887831141984861
    Total Energy =                       -535.3087442624325831
  Basis Set: (AUG-CC-PVTZ AUX)
    Blend: AUG-CC-PVTZ-RI
    Molecular point group: c1

    Geometry (in Angstrom), charge = 1, multiplicity = 1:

       Center              X                  Y                   Z               Mass
    ------------   -----------------  -----------------  -----------------  -----------------
         N           -3.470392981795    -0.169426033512     0.160989560805    14.003074004430
         N           -0.672083981795     0.004436966488    -0.128045439195    14.003074004430
         C           -2.788409981795    -0.592666033512    -1.120971439195    12.000000000000
         C           -2.677150981795     0.865600966488     0.926667560805    12.000000000000
         C           -1.390445981795    -1.077798033512    -0.781508439195    12.000000000000
         C           -1.277395981795     0.326396966488     1.158196560805    12.000000000000
         C            0.758459018205    -0.172240033512    -0.039006439195    12.000000000000
         C            1.567322018205     0.961947966488    -0.235261439195    12.000000000000
         C            1.319223018205    -1.421512033512     0.250659560805    12.000000000000
         C            2.953829018205     0.797197966488    -0.133574439195    12.000000000000
         C            0.969032018205     2.307472966488    -0.548502439195    12.000000000000
         C            2.705207018205    -1.561595033512     0.329960560805    12.000000000000
         C            3.523050018205    -0.446799033512     0.143988560805    12.000000000000
         H           -2.751657981795     0.289384966488    -1.762593439195     1.007825032230
         H           -3.407187981795    -1.367711033512    -1.580611439195     1.007825032230
         H           -3.214827981795     1.070529966488     1.855992560805     1.007825032230
         H           -2.649603981795     1.761149966488     0.303234560805     1.007825032230
         H           -1.463336981795    -1.997690033512    -0.169847439195     1.007825032230
         H           -0.876775981795    -1.342222033512    -1.710115439195     1.007825032230
         H           -0.687175981795     1.103514966488     1.651158560805     1.007825032230
         H           -1.308539981795    -0.543616033512     1.842823560805     1.007825032230
         H           -4.415541981795     0.184791966488    -0.039494439195     1.007825032230
         H           -3.594468981795    -0.999587033512     0.758281560805     1.007825032230
         H            0.685433018205    -2.291426033512     0.409373560805     1.007825032230
         H            3.599273018205     1.659351966488    -0.288711439195     1.007825032230
         H            0.172136018205     2.217872966488    -1.290938439195     1.007825032230
         H            0.565015218205     2.812443066488     0.337169660805     1.007825032230
         H            1.735256018205     2.981990966488    -0.937938439195     1.007825032230
         H            3.140595018205    -2.533412033512     0.546726560805     1.007825032230
         H            4.603408018205    -0.546334033512     0.205376560805     1.007825032230

  Basis Set: AUG-CC-PVTZ
    Blend: AUG-CC-PVTZ
  Basis Set: (AUG-CC-PVTZ AUX)
    Blend: AUG-CC-PVTZ-JKFIT
	 Reference Energy          =    -535.3087442624325831 [Eh]
	 Singles Energy            =      -0.0000000000000000 [Eh]
	 Same-Spin Energy          =      -0.5852867096026897 [Eh]
	 Opposite-Spin Energy      =      -1.9171187125733420 [Eh]
	 Correlation Energy        =      -2.5024054221760315 [Eh]
	 Total Energy              =    -537.8111496846086084 [Eh]

	 ================> DF-SCS-MP2 Energies <==================
	-----------------------------------------------------------
	 SCS Same-Spin Scale       =       0.3333333333333333 [-]
	 SCS Opposite-Spin Scale   =       1.2000000000000000 [-]
	 SCS Same-Spin Energy      =      -0.1950955698675632 [Eh]
	 SCS Opposite-Spin Energy  =      -2.3005424550880105 [Eh]
	 SCS Correlation Energy    =      -2.4956380249555736 [Eh]
	 SCS Total Energy          =    -537.8043822873881936 [Eh]
	-----------------------------------------------------------

  Dipole Moment: [D]
     X:   -12.0949      Y:    -0.6769      Z:     0.7384     Total:    12.1363

*** Psi4 exiting successfully. Buy a developer a beer!
