                               Psi4 1.4a3.dev225

  ==> Input File <==

--------------------------------------------------------------------------
#psi4
#
memory 32 gb

molecule  {
1 1
  N       -3.4197460    -0.1817000     0.1602720
  N       -0.6214370    -0.0078370    -0.1287630
  C       -2.7377630    -0.6049400    -1.1216890
  C       -2.6265040     0.8533270     0.9259500
  C       -1.3397990    -1.0900720    -0.7822260
  C       -1.2267490     0.3141230     1.1574790
  C        0.8091060    -0.1845140    -0.0397240
  C        1.6179690     0.9496740    -0.2359790
  C        1.3698700    -1.4337860     0.2499420
  C        3.0044760     0.7849240    -0.1342920
  C        1.0196790     2.2951990    -0.5492200
  C        2.7558540    -1.5738690     0.3292430
  C        3.5736970    -0.4590730     0.1432710
  H       -2.7010110     0.2771110    -1.7633110
  H       -3.3565410    -1.3799850    -1.5813290
  H       -3.1641810     1.0582560     1.8552750
  H       -2.5989570     1.7488760     0.3025170
  H       -1.4126900    -2.0099640    -0.1705650
  H       -0.8261290    -1.3544960    -1.7108330
  H       -0.6365290     1.0912410     1.6504410
  H       -1.2578930    -0.5558900     1.8421060
  H       -4.3648950     0.1725180    -0.0402120
  H       -3.5438220    -1.0118610     0.7575640
  H        0.7360800    -2.3037000     0.4086560
  H        3.6499200     1.6470780    -0.2894290
  H        0.2227830     2.2055990    -1.2916560
  H        0.5919240     2.7705950     0.3416580
  H        1.7859030     2.9697170    -0.9386560
  H        3.1912420    -2.5456860     0.5460090
  H        4.7534743    -0.5677676     0.2103082
units angstrom
no_reorient  #important for SAPT in psi4, default
symmetry c1  #important for SAPT in psi4, default
}

set PROPERTIES_ORIGIN ["COM"]
properties('MP2/aug-cc-pvtz', properties = ['dipole'])
--------------------------------------------------------------------------

    Molecular point group: c1
  Charge       = 1
  Multiplicity = 1
  Basis Set: AUG-CC-PVTZ
    Blend: AUG-CC-PVTZ
  Basis Set: (AUG-CC-PVTZ AUX)
    Blend: AUG-CC-PVTZ-JKFIT

    Orbital Energies [Eh]
    ---------------------

    Doubly Occupied:

       1A    -15.866772     2A    -15.703278     3A    -11.456961
       4A    -11.456924     5A    -11.417731     6A    -11.417445
       7A    -11.375454     8A    -11.344981     9A    -11.340790
      10A    -11.340012    11A    -11.332435    12A    -11.330269
      13A    -11.323920    14A     -1.497684    15A     -1.390481
      16A     -1.250054    17A     -1.222023    18A     -1.154960
      19A     -1.143079    20A     -1.086389    21A     -1.053678
      22A     -1.032328    23A     -0.995637    24A     -0.935174
      25A     -0.923516    26A     -0.901127    27A     -0.866363
      28A     -0.823885    29A     -0.810353    30A     -0.793553
      31A     -0.788667    32A     -0.746694    33A     -0.743090
      34A     -0.734470    35A     -0.714359    36A     -0.704547
      37A     -0.687716    38A     -0.675416    39A     -0.668602
      40A     -0.660149    41A     -0.652960    42A     -0.639209
      43A     -0.599251    44A     -0.588629    45A     -0.585160
      46A     -0.521910    47A     -0.434006    48A     -0.423913

  @DF-RHF Final Energy:  -535.30145699511263

   => Energetics <=

    Nuclear Repulsion Energy =            819.7811120910649834
    One-Electron Energy =               -2337.8531375513398416
    Two-Electron Energy =                 982.7705684651621141
    Total Energy =                       -535.3014569951126305
  Basis Set: (AUG-CC-PVTZ AUX)
    Blend: AUG-CC-PVTZ-RI
    Molecular point group: c1

    Geometry (in Angstrom), charge = 1, multiplicity = 1:

       Center              X                  Y                   Z               Mass
    ------------   -----------------  -----------------  -----------------  -----------------
         N           -3.470823565869    -0.169205659940     0.160927801222    14.003074004430
         N           -0.672514565869     0.004657340060    -0.128107198778    14.003074004430
         C           -2.788840565869    -0.592445659940    -1.121033198778    12.000000000000
         C           -2.677581565869     0.865821340060     0.926605801222    12.000000000000
         C           -1.390876565869    -1.077577659940    -0.781570198778    12.000000000000
         C           -1.277826565869     0.326617340060     1.158134801222    12.000000000000
         C            0.758028434131    -0.172019659940    -0.039068198778    12.000000000000
         C            1.566891434131     0.962168340060    -0.235323198778    12.000000000000
         C            1.318792434131    -1.421291659940     0.250597801222    12.000000000000
         C            2.953398434131     0.797418340060    -0.133636198778    12.000000000000
         C            0.968601434131     2.307693340060    -0.548564198778    12.000000000000
         C            2.704776434131    -1.561374659940     0.329898801222    12.000000000000
         C            3.522619434131    -0.446578659940     0.143926801222    12.000000000000
         H           -2.752088565869     0.289605340060    -1.762655198778     1.007825032230
         H           -3.407618565869    -1.367490659940    -1.580673198778     1.007825032230
         H           -3.215258565869     1.070750340060     1.855930801222     1.007825032230
         H           -2.650034565869     1.761370340060     0.303172801222     1.007825032230
         H           -1.463767565869    -1.997469659940    -0.169909198778     1.007825032230
         H           -0.877206565869    -1.342001659940    -1.710177198778     1.007825032230
         H           -0.687606565869     1.103735340060     1.651096801222     1.007825032230
         H           -1.308970565869    -0.543395659940     1.842761801222     1.007825032230
         H           -4.415972565869     0.185012340060    -0.039556198778     1.007825032230
         H           -3.594899565869    -0.999366659940     0.758219801222     1.007825032230
         H            0.685002434131    -2.291205659940     0.409311801222     1.007825032230
         H            3.598842434131     1.659572340060    -0.288773198778     1.007825032230
         H            0.171705434131     2.218093340060    -1.291000198778     1.007825032230
         H            0.540846434131     2.783089340060     0.342313801222     1.007825032230
         H            1.734825434131     2.982211340060    -0.938000198778     1.007825032230
         H            3.140164434131    -2.533191659940     0.546664801222     1.007825032230
         H            4.702396734131    -0.555273259940     0.210964001222     1.007825032230

  Basis Set: AUG-CC-PVTZ
    Blend: AUG-CC-PVTZ
  Basis Set: (AUG-CC-PVTZ AUX)
    Blend: AUG-CC-PVTZ-JKFIT
	 Reference Energy          =    -535.3014569951126305 [Eh]
	 Singles Energy            =      -0.0000000000000000 [Eh]
	 Same-Spin Energy          =      -0.5855214171052403 [Eh]
	 Opposite-Spin Energy      =      -1.9181322393415909 [Eh]
	 Correlation Energy        =      -2.5036536564468310 [Eh]
	 Total Energy              =    -537.8051106515595166 [Eh]

	 ================> DF-SCS-MP2 Energies <==================
	-----------------------------------------------------------
	 SCS Same-Spin Scale       =       0.3333333333333333 [-]
	 SCS Opposite-Spin Scale   =       1.2000000000000000 [-]
	 SCS Same-Spin Energy      =      -0.1951738057017467 [Eh]
	 SCS Opposite-Spin Energy  =      -2.3017586872099089 [Eh]
	 SCS Correlation Energy    =      -2.4969324929116556 [Eh]
	 SCS Total Energy          =    -537.7983894880243270 [Eh]
	-----------------------------------------------------------

  Dipole Moment: [D]
     X:   -12.1314      Y:    -0.6798      Z:     0.7302     Total:    12.1723

*** Psi4 exiting successfully. Buy a developer a beer!
