                               Psi4 1.4a3.dev225

  ==> Input File <==

--------------------------------------------------------------------------
#psi4
#
memory 32 gb

molecule  {
1 1
  N       -3.4197460    -0.1817000     0.1602720
  N       -0.6335203    -0.1556817    -0.0996740
  C       -2.7377630    -0.6049400    -1.1216890
  C       -2.6265040     0.8533270     0.9259500
  C       -1.3397990    -1.0900720    -0.7822260
  C       -1.2267490     0.3141230     1.1574790
  C        0.8091060    -0.1845140    -0.0397240
  C        1.6179690     0.9496740    -0.2359790
  C        1.3698700    -1.4337860     0.2499420
  C        3.0044760     0.7849240    -0.1342920
  C        1.0196790     2.2951990    -0.5492200
  C        2.7558540    -1.5738690     0.3292430
  C        3.5736970    -0.4590730     0.1432710
  H       -2.7010110     0.2771110    -1.7633110
  H       -3.3565410    -1.3799850    -1.5813290
  H       -3.1641810     1.0582560     1.8552750
  H       -2.5989570     1.7488760     0.3025170
  H       -1.4126900    -2.0099640    -0.1705650
  H       -0.8261290    -1.3544960    -1.7108330
  H       -0.6365290     1.0912410     1.6504410
  H       -1.2578930    -0.5558900     1.8421060
  H       -4.3648950     0.1725180    -0.0402120
  H       -3.5438220    -1.0118610     0.7575640
  H        0.7360800    -2.3037000     0.4086560
  H        3.6499200     1.6470780    -0.2894290
  H        0.2227830     2.2055990    -1.2916560
  H        0.5919240     2.7705950     0.3416580
  H        1.7859030     2.9697170    -0.9386560
  H        3.1912420    -2.5456860     0.5460090
  H        4.6540550    -0.5586080     0.2046590
units angstrom
no_reorient  #important for SAPT in psi4, default
symmetry c1  #important for SAPT in psi4, default
}

set PROPERTIES_ORIGIN ["COM"]
properties('MP2/aug-cc-pvtz', properties = ['dipole'])
--------------------------------------------------------------------------

    Molecular point group: c1
  Charge       = 1
  Multiplicity = 1
  Basis Set: AUG-CC-PVTZ
    Blend: AUG-CC-PVTZ
  Basis Set: (AUG-CC-PVTZ AUX)
    Blend: AUG-CC-PVTZ-JKFIT

    Orbital Energies [Eh]
    ---------------------

    Doubly Occupied:

       1A    -15.866575     2A    -15.692073     3A    -11.458148
       4A    -11.455645     5A    -11.420076     6A    -11.411772
       7A    -11.377848     8A    -11.347822     9A    -11.337638
      10A    -11.331522    11A    -11.330941    12A    -11.329227
      13A    -11.326826    14A     -1.498477    15A     -1.403967
      16A     -1.252445    17A     -1.223581    18A     -1.154178
      19A     -1.145532    20A     -1.091336    21A     -1.061335
      22A     -1.034650    23A     -0.992306    24A     -0.934383
      25A     -0.924872    26A     -0.908620    27A     -0.864974
      28A     -0.823202    29A     -0.812913    30A     -0.804230
      31A     -0.795104    32A     -0.758457    33A     -0.743949
      34A     -0.735104    35A     -0.717325    36A     -0.704978
      37A     -0.686680    38A     -0.682825    39A     -0.672003
      40A     -0.669650    41A     -0.652132    42A     -0.641146
      43A     -0.598517    44A     -0.595737    45A     -0.588713
      46A     -0.503511    47A     -0.432696    48A     -0.423617

  @DF-RHF Final Energy:  -535.29816769071704

   => Energetics <=

    Nuclear Repulsion Energy =            821.1220643940822583
    One-Electron Energy =               -2340.4019436675193901
    Two-Electron Energy =                 983.9817115827199814
    Total Energy =                       -535.2981676907170367
  Basis Set: (AUG-CC-PVTZ AUX)
    Blend: AUG-CC-PVTZ-RI
    Molecular point group: c1

    Geometry (in Angstrom), charge = 1, multiplicity = 1:

       Center              X                  Y                   Z               Mass
    ------------   -----------------  -----------------  -----------------  -----------------
         N           -3.469302724387    -0.157570463954     0.158660420120    14.003074004430
         N           -0.683077024387    -0.131552163954    -0.101285579880    14.003074004430
         C           -2.787319724387    -0.580810463954    -1.123300579880    12.000000000000
         C           -2.676060724387     0.877456536046     0.924338420120    12.000000000000
         C           -1.389355724387    -1.065942463954    -0.783837579880    12.000000000000
         C           -1.276305724387     0.338252536046     1.155867420120    12.000000000000
         C            0.759549275613    -0.160384463954    -0.041335579880    12.000000000000
         C            1.568412275613     0.973803536046    -0.237590579880    12.000000000000
         C            1.320313275613    -1.409656463954     0.248330420120    12.000000000000
         C            2.954919275613     0.809053536046    -0.135903579880    12.000000000000
         C            0.970122275613     2.319328536046    -0.550831579880    12.000000000000
         C            2.706297275613    -1.549739463954     0.327631420120    12.000000000000
         C            3.524140275613    -0.434943463954     0.141659420120    12.000000000000
         H           -2.750567724387     0.301240536046    -1.764922579880     1.007825032230
         H           -3.406097724387    -1.355855463954    -1.582940579880     1.007825032230
         H           -3.213737724387     1.082385536046     1.853663420120     1.007825032230
         H           -2.648513724387     1.773005536046     0.300905420120     1.007825032230
         H           -1.462246724387    -1.985834463954    -0.172176579880     1.007825032230
         H           -0.875685724387    -1.330366463954    -1.712444579880     1.007825032230
         H           -0.686085724387     1.115370536046     1.648829420120     1.007825032230
         H           -1.307449724387    -0.531760463954     1.840494420120     1.007825032230
         H           -4.414451724387     0.196647536046    -0.041823579880     1.007825032230
         H           -3.593378724387    -0.987731463954     0.755952420120     1.007825032230
         H            0.686523275613    -2.279570463954     0.407044420120     1.007825032230
         H            3.600363275613     1.671207536046    -0.291040579880     1.007825032230
         H            0.173226275613     2.229728536046    -1.293267579880     1.007825032230
         H            0.542367275613     2.794724536046     0.340046420120     1.007825032230
         H            1.736346275613     2.993846536046    -0.940267579880     1.007825032230
         H            3.141685275613    -2.521556463954     0.544397420120     1.007825032230
         H            4.604498275613    -0.534478463954     0.203047420120     1.007825032230

  Basis Set: AUG-CC-PVTZ
    Blend: AUG-CC-PVTZ
  Basis Set: (AUG-CC-PVTZ AUX)
    Blend: AUG-CC-PVTZ-JKFIT
	 Reference Energy          =    -535.2981676907170367 [Eh]
	 Singles Energy            =      -0.0000000000000000 [Eh]
	 Same-Spin Energy          =      -0.5855547708433575 [Eh]
	 Opposite-Spin Energy      =      -1.9162408134076241 [Eh]
	 Correlation Energy        =      -2.5017955842509814 [Eh]
	 Total Energy              =    -537.7999632749680359 [Eh]

	 ================> DF-SCS-MP2 Energies <==================
	-----------------------------------------------------------
	 SCS Same-Spin Scale       =       0.3333333333333333 [-]
	 SCS Opposite-Spin Scale   =       1.2000000000000000 [-]
	 SCS Same-Spin Energy      =      -0.1951849236144525 [Eh]
	 SCS Opposite-Spin Energy  =      -2.2994889760891488 [Eh]
	 SCS Correlation Energy    =      -2.4946738997036011 [Eh]
	 SCS Total Energy          =    -537.7928415904206076 [Eh]
	-----------------------------------------------------------

  Dipole Moment: [D]
     X:   -11.9585      Y:    -0.2376      Z:     0.6674     Total:    11.9795

*** Psi4 exiting successfully. Buy a developer a beer!
