                               Psi4 1.4a3.dev225

  ==> Input File <==

--------------------------------------------------------------------------
#psi4
#
memory 32 gb

molecule  {
1 1
  N       -3.4197460    -0.1817000     0.1602720
  N       -0.6214370    -0.0078370    -0.1287630
  C       -2.7377630    -0.6049400    -1.1216890
  C       -2.6265040     0.8533270     0.9259500
  C       -1.3397990    -1.0900720    -0.7822260
  C       -1.2267490     0.3141230     1.1574790
  C        0.8091060    -0.1845140    -0.0397240
  C        1.6179690     0.9496740    -0.2359790
  C        1.3698700    -1.4337860     0.2499420
  C        3.0044760     0.7849240    -0.1342920
  C        1.0196790     2.2951990    -0.5492200
  C        2.7558540    -1.5738690     0.3292430
  C        3.5736970    -0.4590730     0.1432710
  H       -2.7010110     0.2771110    -1.7633110
  H       -3.3565410    -1.3799850    -1.5813290
  H       -3.1641810     1.0582560     1.8552750
  H       -2.5989570     1.7488760     0.3025170
  H       -1.4126900    -2.0099640    -0.1705650
  H       -0.8261290    -1.3544960    -1.7108330
  H       -0.6365290     1.0912410     1.6504410
  H       -1.2578930    -0.5558900     1.8421060
  H       -4.3832641     0.1794023    -0.0441084
  H       -3.5438220    -1.0118610     0.7575640
  H        0.7360800    -2.3037000     0.4086560
  H        3.6499200     1.6470780    -0.2894290
  H        0.2227830     2.2055990    -1.2916560
  H        0.5919240     2.7705950     0.3416580
  H        1.7859030     2.9697170    -0.9386560
  H        3.1912420    -2.5456860     0.5460090
  H        4.6540550    -0.5586080     0.2046590
units angstrom
no_reorient  #important for SAPT in psi4, default
symmetry c1  #important for SAPT in psi4, default
}

set PROPERTIES_ORIGIN ["COM"]
properties('MP2/aug-cc-pvtz', properties = ['dipole'])
--------------------------------------------------------------------------

    Molecular point group: c1
  Charge       = 1
  Multiplicity = 1
  Basis Set: AUG-CC-PVTZ
    Blend: AUG-CC-PVTZ
  Basis Set: (AUG-CC-PVTZ AUX)
    Blend: AUG-CC-PVTZ-JKFIT

    Orbital Energies [Eh]
    ---------------------

    Doubly Occupied:

       1A    -15.868029     2A    -15.702958     3A    -11.456621
       4A    -11.456587     5A    -11.417436     6A    -11.417164
       7A    -11.375105     8A    -11.344331     9A    -11.340128
      10A    -11.331757    11A    -11.329835    12A    -11.328563
      13A    -11.323527    14A     -1.495061    15A     -1.389792
      16A     -1.249764    17A     -1.221669    18A     -1.154844
      19A     -1.142295    20A     -1.087631    21A     -1.053275
      22A     -1.031905    23A     -0.995621    24A     -0.932439
      25A     -0.922769    26A     -0.902942    27A     -0.867224
      28A     -0.823487    29A     -0.809895    30A     -0.793407
      31A     -0.788241    32A     -0.754780    33A     -0.744632
      34A     -0.734398    35A     -0.714234    36A     -0.704395
      37A     -0.687579    38A     -0.675123    39A     -0.669443
      40A     -0.659831    41A     -0.655290    42A     -0.640444
      43A     -0.599886    44A     -0.591605    45A     -0.588018
      46A     -0.521551    47A     -0.433499    48A     -0.423433

  @DF-RHF Final Energy:  -535.30780310829289

   => Energetics <=

    Nuclear Repulsion Energy =            820.1665404180976111
    One-Electron Energy =               -2338.6438010709230184
    Two-Electron Energy =                 983.1694575445325199
    Total Energy =                       -535.3078031082928874
  Basis Set: (AUG-CC-PVTZ AUX)
    Blend: AUG-CC-PVTZ-RI
    Molecular point group: c1

    Geometry (in Angstrom), charge = 1, multiplicity = 1:

       Center              X                  Y                   Z               Mass
    ------------   -----------------  -----------------  -----------------  -----------------
         N           -3.470153414284    -0.169296940958     0.160982110466    14.003074004430
         N           -0.671844414284     0.004566059042    -0.128052889534    14.003074004430
         C           -2.788170414284    -0.592536940958    -1.120978889534    12.000000000000
         C           -2.676911414284     0.865730059042     0.926660110466    12.000000000000
         C           -1.390206414284    -1.077668940958    -0.781515889534    12.000000000000
         C           -1.277156414284     0.326526059042     1.158189110466    12.000000000000
         C            0.758698585716    -0.172110940958    -0.039013889534    12.000000000000
         C            1.567561585716     0.962077059042    -0.235268889534    12.000000000000
         C            1.319462585716    -1.421382940958     0.250652110466    12.000000000000
         C            2.954068585716     0.797327059042    -0.133581889534    12.000000000000
         C            0.969271585716     2.307602059042    -0.548509889534    12.000000000000
         C            2.705446585716    -1.561465940958     0.329953110466    12.000000000000
         C            3.523289585716    -0.446669940958     0.143981110466    12.000000000000
         H           -2.751418414284     0.289514059042    -1.762600889534     1.007825032230
         H           -3.406948414284    -1.367581940958    -1.580618889534     1.007825032230
         H           -3.214588414284     1.070659059042     1.855985110466     1.007825032230
         H           -2.649364414284     1.761279059042     0.303227110466     1.007825032230
         H           -1.463097414284    -1.997560940958    -0.169854889534     1.007825032230
         H           -0.876536414284    -1.342092940958    -1.710122889534     1.007825032230
         H           -0.686936414284     1.103644059042     1.651151110466     1.007825032230
         H           -1.308300414284    -0.543486940958     1.842816110466     1.007825032230
         H           -4.433671514284     0.191805359042    -0.043398289534     1.007825032230
         H           -3.594229414284    -0.999457940958     0.758274110466     1.007825032230
         H            0.685672585716    -2.291296940958     0.409366110466     1.007825032230
         H            3.599512585716     1.659481059042    -0.288718889534     1.007825032230
         H            0.172375585716     2.218002059042    -1.290945889534     1.007825032230
         H            0.541516585716     2.782998059042     0.342368110466     1.007825032230
         H            1.735495585716     2.982120059042    -0.937945889534     1.007825032230
         H            3.140834585716    -2.533282940958     0.546719110466     1.007825032230
         H            4.603647585716    -0.546204940958     0.205369110466     1.007825032230

  Basis Set: AUG-CC-PVTZ
    Blend: AUG-CC-PVTZ
  Basis Set: (AUG-CC-PVTZ AUX)
    Blend: AUG-CC-PVTZ-JKFIT
	 Reference Energy          =    -535.3078031082928874 [Eh]
	 Singles Energy            =      -0.0000000000000000 [Eh]
	 Same-Spin Energy          =      -0.5854303895735097 [Eh]
	 Opposite-Spin Energy      =      -1.9175424847606111 [Eh]
	 Correlation Energy        =      -2.5029728743341209 [Eh]
	 Total Energy              =    -537.8107759826269785 [Eh]

	 ================> DF-SCS-MP2 Energies <==================
	-----------------------------------------------------------
	 SCS Same-Spin Scale       =       0.3333333333333333 [-]
	 SCS Opposite-Spin Scale   =       1.2000000000000000 [-]
	 SCS Same-Spin Energy      =      -0.1951434631911699 [Eh]
	 SCS Opposite-Spin Energy  =      -2.3010509817127334 [Eh]
	 SCS Correlation Energy    =      -2.4961944449039031 [Eh]
	 SCS Total Energy          =    -537.8039975531968366 [Eh]
	-----------------------------------------------------------

  Dipole Moment: [D]
     X:   -12.1328      Y:    -0.6762      Z:     0.7275     Total:    12.1734

*** Psi4 exiting successfully. Buy a developer a beer!
