                               Psi4 1.4a3.dev225

  ==> Input File <==

--------------------------------------------------------------------------
#psi4
#
memory 32 gb

molecule  {
1 1
  N       -3.4197460    -0.1817000     0.1602720
  N       -0.6214370    -0.0078370    -0.1287630
  C       -2.7377630    -0.6049400    -1.1216890
  C       -2.6265040     0.8533270     0.9259500
  C       -1.3397990    -1.0900720    -0.7822260
  C       -1.2267490     0.3141230     1.1574790
  C        0.8091060    -0.1845140    -0.0397240
  C        1.6179690     0.9496740    -0.2359790
  C        1.3698700    -1.4337860     0.2499420
  C        3.0044760     0.7849240    -0.1342920
  C        1.0196790     2.2951990    -0.5492200
  C        2.7558540    -1.5738690     0.3292430
  C        3.5736970    -0.4590730     0.1432710
  H       -2.7010110     0.2771110    -1.7633110
  H       -3.3565410    -1.3799850    -1.5813290
  H       -3.1641810     1.0582560     1.8552750
  H       -2.5989570     1.7488760     0.3025170
  H       -1.4126900    -2.0099640    -0.1705650
  H       -0.8261290    -1.3544960    -1.7108330
  H       -0.6365290     1.0912410     1.6504410
  H       -1.2578930    -0.5558900     1.8421060
  H       -4.1812038     0.1036752    -0.0012476
  H       -3.5438220    -1.0118610     0.7575640
  H        0.7360800    -2.3037000     0.4086560
  H        3.6499200     1.6470780    -0.2894290
  H        0.2227830     2.2055990    -1.2916560
  H        0.5919240     2.7705950     0.3416580
  H        1.7859030     2.9697170    -0.9386560
  H        3.1912420    -2.5456860     0.5460090
  H        4.6540550    -0.5586080     0.2046590
units angstrom
no_reorient  #important for SAPT in psi4, default
symmetry c1  #important for SAPT in psi4, default
}

set PROPERTIES_ORIGIN ["COM"]
properties('MP2/aug-cc-pvtz', properties = ['dipole'])
--------------------------------------------------------------------------

    Molecular point group: c1
  Charge       = 1
  Multiplicity = 1
  Basis Set: AUG-CC-PVTZ
    Blend: AUG-CC-PVTZ
  Basis Set: (AUG-CC-PVTZ AUX)
    Blend: AUG-CC-PVTZ-JKFIT

    Orbital Energies [Eh]
    ---------------------

    Doubly Occupied:

       1A    -15.849543     2A    -15.704252     3A    -11.458906
       4A    -11.458871     5A    -11.418892     6A    -11.418609
       7A    -11.375950     8A    -11.345074     9A    -11.340909
      10A    -11.332425    11A    -11.330495    12A    -11.329230
      13A    -11.324190    14A     -1.533813    15A     -1.395511
      16A     -1.252096    17A     -1.223956    18A     -1.168991
      19A     -1.145448    20A     -1.093946    21A     -1.055922
      22A     -1.033171    23A     -1.005251    24A     -0.974206
      25A     -0.927898    26A     -0.905350    27A     -0.869975
      28A     -0.826490    29A     -0.813018    30A     -0.795166
      31A     -0.791253    32A     -0.756919    33A     -0.746316
      34A     -0.736307    35A     -0.717899    36A     -0.705894
      37A     -0.689508    38A     -0.675986    39A     -0.670621
      40A     -0.661553    41A     -0.658664    42A     -0.641169
      43A     -0.600636    44A     -0.592545    45A     -0.588753
      46A     -0.522835    47A     -0.434234    48A     -0.424170

  @DF-RHF Final Energy:  -535.26964522153878

   => Energetics <=

    Nuclear Repulsion Energy =            821.7483458906528995
    One-Electron Energy =               -2341.3903457262704251
    Two-Electron Energy =                 984.3723546140787448
    Total Energy =                       -535.2696452215387808
  Basis Set: (AUG-CC-PVTZ AUX)
    Blend: AUG-CC-PVTZ-RI
    Molecular point group: c1

    Geometry (in Angstrom), charge = 1, multiplicity = 1:

       Center              X                  Y                   Z               Mass
    ------------   -----------------  -----------------  -----------------  -----------------
         N           -3.471303026898    -0.168866095169     0.160738255952    14.003074004430
         N           -0.672994026898     0.004996904831    -0.128296744048    14.003074004430
         C           -2.789320026898    -0.592106095169    -1.121222744048    12.000000000000
         C           -2.678061026898     0.866160904831     0.926416255952    12.000000000000
         C           -1.391356026898    -1.077238095169    -0.781759744048    12.000000000000
         C           -1.278306026898     0.326956904831     1.157945255952    12.000000000000
         C            0.757548973102    -0.171680095169    -0.039257744048    12.000000000000
         C            1.566411973102     0.962507904831    -0.235512744048    12.000000000000
         C            1.318312973102    -1.420952095169     0.250408255952    12.000000000000
         C            2.952918973102     0.797757904831    -0.133825744048    12.000000000000
         C            0.968121973102     2.308032904831    -0.548753744048    12.000000000000
         C            2.704296973102    -1.561035095169     0.329709255952    12.000000000000
         C            3.522139973102    -0.446239095169     0.143737255952    12.000000000000
         H           -2.752568026898     0.289944904831    -1.762844744048     1.007825032230
         H           -3.408098026898    -1.367151095169    -1.580862744048     1.007825032230
         H           -3.215738026898     1.071089904831     1.855741255952     1.007825032230
         H           -2.650514026898     1.761709904831     0.302983255952     1.007825032230
         H           -1.464247026898    -1.997130095169    -0.170098744048     1.007825032230
         H           -0.877686026898    -1.341662095169    -1.710366744048     1.007825032230
         H           -0.688086026898     1.104074904831     1.650907255952     1.007825032230
         H           -1.309450026898    -0.543056095169     1.842572255952     1.007825032230
         H           -4.232760826898     0.116509104831    -0.000781344048     1.007825032230
         H           -3.595379026898    -0.999027095169     0.758030255952     1.007825032230
         H            0.684522973102    -2.290866095169     0.409122255952     1.007825032230
         H            3.598362973102     1.659911904831    -0.288962744048     1.007825032230
         H            0.171225973102     2.218432904831    -1.291189744048     1.007825032230
         H            0.540366973102     2.783428904831     0.342124255952     1.007825032230
         H            1.734345973102     2.982550904831    -0.938189744048     1.007825032230
         H            3.139684973102    -2.532852095169     0.546475255952     1.007825032230
         H            4.602497973102    -0.545774095169     0.205125255952     1.007825032230

  Basis Set: AUG-CC-PVTZ
    Blend: AUG-CC-PVTZ
  Basis Set: (AUG-CC-PVTZ AUX)
    Blend: AUG-CC-PVTZ-JKFIT
	 Reference Energy          =    -535.2696452215387808 [Eh]
	 Singles Energy            =      -0.0000000000000000 [Eh]
	 Same-Spin Energy          =      -0.5841581707671465 [Eh]
	 Opposite-Spin Energy      =      -1.9140795982130034 [Eh]
	 Correlation Energy        =      -2.4982377689801498 [Eh]
	 Total Energy              =    -537.7678829905189559 [Eh]

	 ================> DF-SCS-MP2 Energies <==================
	-----------------------------------------------------------
	 SCS Same-Spin Scale       =       0.3333333333333333 [-]
	 SCS Opposite-Spin Scale   =       1.2000000000000000 [-]
	 SCS Same-Spin Energy      =      -0.1947193902557155 [Eh]
	 SCS Opposite-Spin Energy  =      -2.2968955178556039 [Eh]
	 SCS Correlation Energy    =      -2.4916149081113192 [Eh]
	 SCS Total Energy          =    -537.7612601296500543 [Eh]
	-----------------------------------------------------------

  Dipole Moment: [D]
     X:   -11.8398      Y:    -0.7660      Z:     0.7779     Total:    11.8901

*** Psi4 exiting successfully. Buy a developer a beer!
