                               Psi4 1.4a3.dev225

  ==> Input File <==

--------------------------------------------------------------------------
#psi4
#
memory 32 gb

molecule  {
1 1
  N       -3.4197460    -0.1817000     0.1602720
  N       -0.6214370    -0.0078370    -0.1287630
  C       -2.7377630    -0.6049400    -1.1216890
  C       -2.6265040     0.8533270     0.9259500
  C       -1.3397990    -1.0900720    -0.7822260
  C       -1.2267490     0.3141230     1.1574790
  C        0.8091060    -0.1845140    -0.0397240
  C        1.6179690     0.9496740    -0.2359790
  C        1.3698700    -1.4337860     0.2499420
  C        3.0044760     0.7849240    -0.1342920
  C        1.0196790     2.2951990    -0.5492200
  C        2.7558540    -1.5738690     0.3292430
  C        3.5736970    -0.4590730     0.1432710
  H       -2.7010110     0.2771110    -1.7633110
  H       -3.3565410    -1.3799850    -1.5813290
  H       -3.1641810     1.0582560     1.8552750
  H       -2.5989570     1.7488760     0.3025170
  H       -1.4126900    -2.0099640    -0.1705650
  H       -0.8261290    -1.3544960    -1.7108330
  H       -0.6365290     1.0912410     1.6504410
  H       -1.2550810    -0.4773351     1.7802899
  H       -4.3648950     0.1725180    -0.0402120
  H       -3.5438220    -1.0118610     0.7575640
  H        0.7360800    -2.3037000     0.4086560
  H        3.6499200     1.6470780    -0.2894290
  H        0.2227830     2.2055990    -1.2916560
  H        0.5919240     2.7705950     0.3416580
  H        1.7859030     2.9697170    -0.9386560
  H        3.1912420    -2.5456860     0.5460090
  H        4.6540550    -0.5586080     0.2046590
units angstrom
no_reorient  #important for SAPT in psi4, default
symmetry c1  #important for SAPT in psi4, default
}

set PROPERTIES_ORIGIN ["COM"]
properties('MP2/aug-cc-pvtz', properties = ['dipole'])
--------------------------------------------------------------------------

    Molecular point group: c1
  Charge       = 1
  Multiplicity = 1
  Basis Set: AUG-CC-PVTZ
    Blend: AUG-CC-PVTZ
  Basis Set: (AUG-CC-PVTZ AUX)
    Blend: AUG-CC-PVTZ-JKFIT

    Orbital Energies [Eh]
    ---------------------

    Doubly Occupied:

       1A    -15.866762     2A    -15.701192     3A    -11.456692
       4A    -11.456000     5A    -11.417360     6A    -11.405428
       7A    -11.374865     8A    -11.344015     9A    -11.339914
      10A    -11.331643    11A    -11.329675    12A    -11.328375
      13A    -11.323181    14A     -1.497706    15A     -1.390262
      16A     -1.249901    17A     -1.223623    18A     -1.156048
      19A     -1.142503    20A     -1.087801    21A     -1.057385
      22A     -1.031789    23A     -1.000228    24A     -0.936712
      25A     -0.924875    26A     -0.903068    27A     -0.869715
      28A     -0.828431    29A     -0.811758    30A     -0.794312
      31A     -0.788685    32A     -0.754677    33A     -0.744662
      34A     -0.734179    35A     -0.714932    36A     -0.707908
      37A     -0.693315    38A     -0.674836    39A     -0.669315
      40A     -0.660246    41A     -0.655491    42A     -0.640140
      43A     -0.600145    44A     -0.591351    45A     -0.587837
      46A     -0.522057    47A     -0.433282    48A     -0.423147

  @DF-RHF Final Energy:  -535.30395748372371

   => Energetics <=

    Nuclear Repulsion Energy =            820.8503835863483573
    One-Electron Energy =               -2339.9538344746642906
    Two-Electron Energy =                 983.7994934045921127
    Total Energy =                       -535.3039574837237069
  Basis Set: (AUG-CC-PVTZ AUX)
    Blend: AUG-CC-PVTZ-RI
    Molecular point group: c1

    Geometry (in Angstrom), charge = 1, multiplicity = 1:

       Center              X                  Y                   Z               Mass
    ------------   -----------------  -----------------  -----------------  -----------------
         N           -3.470273923160    -0.169704707480     0.161311641887    14.003074004430
         N           -0.671964923160     0.004158292520    -0.127723358113    14.003074004430
         C           -2.788290923160    -0.592944707480    -1.120649358113    12.000000000000
         C           -2.677031923160     0.865322292520     0.926989641887    12.000000000000
         C           -1.390326923160    -1.078076707480    -0.781186358113    12.000000000000
         C           -1.277276923160     0.326118292520     1.158518641887    12.000000000000
         C            0.758578076840    -0.172518707480    -0.038684358113    12.000000000000
         C            1.567441076840     0.961669292520    -0.234939358113    12.000000000000
         C            1.319342076840    -1.421790707480     0.250981641887    12.000000000000
         C            2.953948076840     0.796919292520    -0.133252358113    12.000000000000
         C            0.969151076840     2.307194292520    -0.548180358113    12.000000000000
         C            2.705326076840    -1.561873707480     0.330282641887    12.000000000000
         C            3.523169076840    -0.447077707480     0.144310641887    12.000000000000
         H           -2.751538923160     0.289106292520    -1.762271358113     1.007825032230
         H           -3.407068923160    -1.367989707480    -1.580289358113     1.007825032230
         H           -3.214708923160     1.070251292520     1.856314641887     1.007825032230
         H           -2.649484923160     1.760871292520     0.303556641887     1.007825032230
         H           -1.463217923160    -1.997968707480    -0.169525358113     1.007825032230
         H           -0.876656923160    -1.342500707480    -1.709793358113     1.007825032230
         H           -0.687056923160     1.103236292520     1.651480641887     1.007825032230
         H           -1.305608923160    -0.465339807480     1.781329541887     1.007825032230
         H           -4.415422923160     0.184513292520    -0.039172358113     1.007825032230
         H           -3.594349923160    -0.999865707480     0.758603641887     1.007825032230
         H            0.685552076840    -2.291704707480     0.409695641887     1.007825032230
         H            3.599392076840     1.659073292520    -0.288389358113     1.007825032230
         H            0.172255076840     2.217594292520    -1.290616358113     1.007825032230
         H            0.541396076840     2.782590292520     0.342697641887     1.007825032230
         H            1.735375076840     2.981712292520    -0.937616358113     1.007825032230
         H            3.140714076840    -2.533690707480     0.547048641887     1.007825032230
         H            4.603527076840    -0.546612707480     0.205698641887     1.007825032230

  Basis Set: AUG-CC-PVTZ
    Blend: AUG-CC-PVTZ
  Basis Set: (AUG-CC-PVTZ AUX)
    Blend: AUG-CC-PVTZ-JKFIT
	 Reference Energy          =    -535.3039574837237069 [Eh]
	 Singles Energy            =      -0.0000000000000000 [Eh]
	 Same-Spin Energy          =      -0.5850657486818186 [Eh]
	 Opposite-Spin Energy      =      -1.9164117442201218 [Eh]
	 Correlation Energy        =      -2.5014774929019405 [Eh]
	 Total Energy              =    -537.8054349766256337 [Eh]

	 ================> DF-SCS-MP2 Energies <==================
	-----------------------------------------------------------
	 SCS Same-Spin Scale       =       0.3333333333333333 [-]
	 SCS Opposite-Spin Scale   =       1.2000000000000000 [-]
	 SCS Same-Spin Energy      =      -0.1950219162272729 [Eh]
	 SCS Opposite-Spin Energy  =      -2.2996940930641463 [Eh]
	 SCS Correlation Energy    =      -2.4947160092914191 [Eh]
	 SCS Total Energy          =    -537.7986734930151442 [Eh]
	-----------------------------------------------------------

  Dipole Moment: [D]
     X:   -12.1448      Y:    -0.7176      Z:     0.7920     Total:    12.1917

*** Psi4 exiting successfully. Buy a developer a beer!
