                               Psi4 1.4a3.dev225

  ==> Input File <==

--------------------------------------------------------------------------
#psi4
#
memory 32 gb

molecule  {
1 1
  N       -3.4197460    -0.1817000     0.1602720
  N       -0.6214370    -0.0078370    -0.1287630
  C       -2.7377630    -0.6049400    -1.1216890
  C       -2.6265040     0.8533270     0.9259500
  C       -1.3397990    -1.0900720    -0.7822260
  C       -1.2943190     0.1992485     1.2439517
  C        0.8091060    -0.1845140    -0.0397240
  C        1.6179690     0.9496740    -0.2359790
  C        1.3698700    -1.4337860     0.2499420
  C        3.0044760     0.7849240    -0.1342920
  C        1.0196790     2.2951990    -0.5492200
  C        2.7558540    -1.5738690     0.3292430
  C        3.5736970    -0.4590730     0.1432710
  H       -2.7010110     0.2771110    -1.7633110
  H       -3.3565410    -1.3799850    -1.5813290
  H       -3.1641810     1.0582560     1.8552750
  H       -2.5989570     1.7488760     0.3025170
  H       -1.4126900    -2.0099640    -0.1705650
  H       -0.8261290    -1.3544960    -1.7108330
  H       -0.6365290     1.0912410     1.6504410
  H       -1.2578930    -0.5558900     1.8421060
  H       -4.3648950     0.1725180    -0.0402120
  H       -3.5438220    -1.0118610     0.7575640
  H        0.7360800    -2.3037000     0.4086560
  H        3.6499200     1.6470780    -0.2894290
  H        0.2227830     2.2055990    -1.2916560
  H        0.5919240     2.7705950     0.3416580
  H        1.7859030     2.9697170    -0.9386560
  H        3.1912420    -2.5456860     0.5460090
  H        4.6540550    -0.5586080     0.2046590
units angstrom
no_reorient  #important for SAPT in psi4, default
symmetry c1  #important for SAPT in psi4, default
}

set PROPERTIES_ORIGIN ["COM"]
properties('MP2/aug-cc-pvtz', properties = ['dipole'])
--------------------------------------------------------------------------

    Molecular point group: c1
  Charge       = 1
  Multiplicity = 1
  Basis Set: AUG-CC-PVTZ
    Blend: AUG-CC-PVTZ
  Basis Set: (AUG-CC-PVTZ AUX)
    Blend: AUG-CC-PVTZ-JKFIT

    Orbital Energies [Eh]
    ---------------------

    Doubly Occupied:

       1A    -15.864968     2A    -15.704226     3A    -11.460677
       4A    -11.455382     5A    -11.415748     6A    -11.414330
       7A    -11.373529     8A    -11.343723     9A    -11.339489
      10A    -11.331322    11A    -11.329360    12A    -11.328162
      13A    -11.322483    14A     -1.497049    15A     -1.376494
      16A     -1.248422    17A     -1.221422    18A     -1.155301
      19A     -1.141671    20A     -1.085435    21A     -1.051562
      22A     -1.031188    23A     -1.003679    24A     -0.937126
      25A     -0.921921    26A     -0.901757    27A     -0.872110
      28A     -0.831105    29A     -0.810302    30A     -0.786540
      31A     -0.775789    32A     -0.751296    33A     -0.744497
      34A     -0.737516    35A     -0.722550    36A     -0.709103
      37A     -0.695722    38A     -0.673769    39A     -0.668226
      40A     -0.649590    41A     -0.641032    42A     -0.631783
      43A     -0.601005    44A     -0.590460    45A     -0.585152
      46A     -0.525734    47A     -0.432907    48A     -0.422915

  @DF-RHF Final Energy:  -535.27739655418304

   => Energetics <=

    Nuclear Repulsion Energy =            818.8177198987652901
    One-Electron Energy =               -2335.9591794761345227
    Two-Electron Energy =                 981.8640630231861905
    Total Energy =                       -535.2773965541830421
  Basis Set: (AUG-CC-PVTZ AUX)
    Blend: AUG-CC-PVTZ-RI
    Molecular point group: c1

    Geometry (in Angstrom), charge = 1, multiplicity = 1:

       Center              X                  Y                   Z               Mass
    ------------   -----------------  -----------------  -----------------  -----------------
         N           -3.465680506653    -0.161475790266     0.155101992204    14.003074004430
         N           -0.667371506653     0.012387209734    -0.133933007796    14.003074004430
         C           -2.783697506653    -0.584715790266    -1.126859007796    12.000000000000
         C           -2.672438506653     0.873551209734     0.920779992204    12.000000000000
         C           -1.385733506653    -1.069847790266    -0.787396007796    12.000000000000
         C           -1.340253506653     0.219472709734     1.238781692204    12.000000000000
         C            0.763171493347    -0.164289790266    -0.044894007796    12.000000000000
         C            1.572034493347     0.969898209734    -0.241149007796    12.000000000000
         C            1.323935493347    -1.413561790266     0.244771992204    12.000000000000
         C            2.958541493347     0.805148209734    -0.139462007796    12.000000000000
         C            0.973744493347     2.315423209734    -0.554390007796    12.000000000000
         C            2.709919493347    -1.553644790266     0.324072992204    12.000000000000
         C            3.527762493347    -0.438848790266     0.138100992204    12.000000000000
         H           -2.746945506653     0.297335209734    -1.768481007796     1.007825032230
         H           -3.402475506653    -1.359760790266    -1.586499007796     1.007825032230
         H           -3.210115506653     1.078480209734     1.850104992204     1.007825032230
         H           -2.644891506653     1.769100209734     0.297346992204     1.007825032230
         H           -1.458624506653    -1.989739790266    -0.175735007796     1.007825032230
         H           -0.872063506653    -1.334271790266    -1.716003007796     1.007825032230
         H           -0.682463506653     1.111465209734     1.645270992204     1.007825032230
         H           -1.303827506653    -0.535665790266     1.836935992204     1.007825032230
         H           -4.410829506653     0.192742209734    -0.045382007796     1.007825032230
         H           -3.589756506653    -0.991636790266     0.752393992204     1.007825032230
         H            0.690145493347    -2.283475790266     0.403485992204     1.007825032230
         H            3.603985493347     1.667302209734    -0.294599007796     1.007825032230
         H            0.176848493347     2.225823209734    -1.296826007796     1.007825032230
         H            0.545989493347     2.790819209734     0.336487992204     1.007825032230
         H            1.739968493347     2.989941209734    -0.943826007796     1.007825032230
         H            3.145307493347    -2.525461790266     0.540838992204     1.007825032230
         H            4.608120493347    -0.538383790266     0.199488992204     1.007825032230

  Basis Set: AUG-CC-PVTZ
    Blend: AUG-CC-PVTZ
  Basis Set: (AUG-CC-PVTZ AUX)
    Blend: AUG-CC-PVTZ-JKFIT
	 Reference Energy          =    -535.2773965541830421 [Eh]
	 Singles Energy            =      -0.0000000000000000 [Eh]
	 Same-Spin Energy          =      -0.5856960070453237 [Eh]
	 Opposite-Spin Energy      =      -1.9193389447693945 [Eh]
	 Correlation Energy        =      -2.5050349518147179 [Eh]
	 Total Energy              =    -537.7824315059978062 [Eh]

	 ================> DF-SCS-MP2 Energies <==================
	-----------------------------------------------------------
	 SCS Same-Spin Scale       =       0.3333333333333333 [-]
	 SCS Opposite-Spin Scale   =       1.2000000000000000 [-]
	 SCS Same-Spin Energy      =      -0.1952320023484412 [Eh]
	 SCS Opposite-Spin Energy  =      -2.3032067337232731 [Eh]
	 SCS Correlation Energy    =      -2.4984387360717144 [Eh]
	 SCS Total Energy          =    -537.7758352902548040 [Eh]
	-----------------------------------------------------------

  Dipole Moment: [D]
     X:   -12.1425      Y:    -0.7256      Z:     0.8795     Total:    12.1959

*** Psi4 exiting successfully. Buy a developer a beer!
