                               Psi4 1.4a3.dev225

  ==> Input File <==

--------------------------------------------------------------------------
#psi4
#
memory 32 gb

molecule  {
1 1
  N       -3.4197460    -0.1817000     0.1602720
  N       -0.6178932     0.0166591    -0.1335248
  C       -2.7377630    -0.6049400    -1.1216890
  C       -2.6265040     0.8533270     0.9259500
  C       -1.3397990    -1.0900720    -0.7822260
  C       -1.2267490     0.3141230     1.1574790
  C        0.8091060    -0.1845140    -0.0397240
  C        1.6179690     0.9496740    -0.2359790
  C        1.3698700    -1.4337860     0.2499420
  C        3.0044760     0.7849240    -0.1342920
  C        1.0196790     2.2951990    -0.5492200
  C        2.7558540    -1.5738690     0.3292430
  C        3.5736970    -0.4590730     0.1432710
  H       -2.7010110     0.2771110    -1.7633110
  H       -3.3565410    -1.3799850    -1.5813290
  H       -3.1641810     1.0582560     1.8552750
  H       -2.5989570     1.7488760     0.3025170
  H       -1.4126900    -2.0099640    -0.1705650
  H       -0.8261290    -1.3544960    -1.7108330
  H       -0.6365290     1.0912410     1.6504410
  H       -1.2578930    -0.5558900     1.8421060
  H       -4.3648950     0.1725180    -0.0402120
  H       -3.5438220    -1.0118610     0.7575640
  H        0.7360800    -2.3037000     0.4086560
  H        3.6499200     1.6470780    -0.2894290
  H        0.2227830     2.2055990    -1.2916560
  H        0.5919240     2.7705950     0.3416580
  H        1.7859030     2.9697170    -0.9386560
  H        3.1912420    -2.5456860     0.5460090
  H        4.6540550    -0.5586080     0.2046590
units angstrom
no_reorient  #important for SAPT in psi4, default
symmetry c1  #important for SAPT in psi4, default
}

set PROPERTIES_ORIGIN ["COM"]
properties('MP2/aug-cc-pvtz', properties = ['dipole'])
--------------------------------------------------------------------------

    Molecular point group: c1
  Charge       = 1
  Multiplicity = 1
  Basis Set: AUG-CC-PVTZ
    Blend: AUG-CC-PVTZ
  Basis Set: (AUG-CC-PVTZ AUX)
    Blend: AUG-CC-PVTZ-JKFIT

    Orbital Energies [Eh]
    ---------------------

    Doubly Occupied:

       1A    -15.866654     2A    -15.705220     3A    -11.456987
       4A    -11.456657     5A    -11.418445     6A    -11.417018
       7A    -11.374831     8A    -11.343847     9A    -11.340640
      10A    -11.331953    11A    -11.329696    12A    -11.328482
      13A    -11.323084    14A     -1.497401    15A     -1.388114
      16A     -1.249551    17A     -1.221477    18A     -1.155983
      19A     -1.142202    20A     -1.087785    21A     -1.052042
      22A     -1.031556    23A     -0.996785    24A     -0.935732
      25A     -0.924079    26A     -0.902571    27A     -0.867901
      28A     -0.823956    29A     -0.810022    30A     -0.791807
      31A     -0.786952    32A     -0.754443    33A     -0.744871
      34A     -0.734528    35A     -0.714283    36A     -0.704520
      37A     -0.688117    38A     -0.674541    39A     -0.669412
      40A     -0.658383    41A     -0.654467    42A     -0.640322
      43A     -0.600179    44A     -0.590963    45A     -0.587670
      46A     -0.524719    47A     -0.433666    48A     -0.423434

  @DF-RHF Final Energy:  -535.30777019133302

   => Energetics <=

    Nuclear Repulsion Energy =            820.1227645671611981
    One-Electron Energy =               -2338.5451661681572659
    Two-Electron Energy =                 983.1146314096631613
    Total Energy =                       -535.3077701913330202
  Basis Set: (AUG-CC-PVTZ AUX)
    Blend: AUG-CC-PVTZ-RI
    Molecular point group: c1

    Geometry (in Angstrom), charge = 1, multiplicity = 1:

       Center              X                  Y                   Z               Mass
    ------------   -----------------  -----------------  -----------------  -----------------
         N           -3.470538066256    -0.171194220506     0.161336368348    14.003074004430
         N           -0.668685266256     0.027164879494    -0.132460431652    14.003074004430
         C           -2.788555066256    -0.594434220506    -1.120624631652    12.000000000000
         C           -2.677296066256     0.863832779494     0.927014368348    12.000000000000
         C           -1.390591066256    -1.079566220506    -0.781161631652    12.000000000000
         C           -1.277541066256     0.324628779494     1.158543368348    12.000000000000
         C            0.758313933744    -0.174008220506    -0.038659631652    12.000000000000
         C            1.567176933744     0.960179779494    -0.234914631652    12.000000000000
         C            1.319077933744    -1.423280220506     0.251006368348    12.000000000000
         C            2.953683933744     0.795429779494    -0.133227631652    12.000000000000
         C            0.968886933744     2.305704779494    -0.548155631652    12.000000000000
         C            2.705061933744    -1.563363220506     0.330307368348    12.000000000000
         C            3.522904933744    -0.448567220506     0.144335368348    12.000000000000
         H           -2.751803066256     0.287616779494    -1.762246631652     1.007825032230
         H           -3.407333066256    -1.369479220506    -1.580264631652     1.007825032230
         H           -3.214973066256     1.068761779494     1.856339368348     1.007825032230
         H           -2.649749066256     1.759381779494     0.303581368348     1.007825032230
         H           -1.463482066256    -1.999458220506    -0.169500631652     1.007825032230
         H           -0.876921066256    -1.343990220506    -1.709768631652     1.007825032230
         H           -0.687321066256     1.101746779494     1.651505368348     1.007825032230
         H           -1.308685066256    -0.545384220506     1.843170368348     1.007825032230
         H           -4.415687066256     0.183023779494    -0.039147631652     1.007825032230
         H           -3.594614066256    -1.001355220506     0.758628368348     1.007825032230
         H            0.685287933744    -2.293194220506     0.409720368348     1.007825032230
         H            3.599127933744     1.657583779494    -0.288364631652     1.007825032230
         H            0.171990933744     2.216104779494    -1.290591631652     1.007825032230
         H            0.541131933744     2.781100779494     0.342722368348     1.007825032230
         H            1.735110933744     2.980222779494    -0.937591631652     1.007825032230
         H            3.140449933744    -2.535180220506     0.547073368348     1.007825032230
         H            4.603262933744    -0.548102220506     0.205723368348     1.007825032230

  Basis Set: AUG-CC-PVTZ
    Blend: AUG-CC-PVTZ
  Basis Set: (AUG-CC-PVTZ AUX)
    Blend: AUG-CC-PVTZ-JKFIT
	 Reference Energy          =    -535.3077701913330202 [Eh]
	 Singles Energy            =      -0.0000000000000000 [Eh]
	 Same-Spin Energy          =      -0.5853851024748039 [Eh]
	 Opposite-Spin Energy      =      -1.9175992248335836 [Eh]
	 Correlation Energy        =      -2.5029843273083876 [Eh]
	 Total Energy              =    -537.8107545186413745 [Eh]

	 ================> DF-SCS-MP2 Energies <==================
	-----------------------------------------------------------
	 SCS Same-Spin Scale       =       0.3333333333333333 [-]
	 SCS Opposite-Spin Scale   =       1.2000000000000000 [-]
	 SCS Same-Spin Energy      =      -0.1951283674916013 [Eh]
	 SCS Opposite-Spin Energy  =      -2.3011190698003001 [Eh]
	 SCS Correlation Energy    =      -2.4962474372919012 [Eh]
	 SCS Total Energy          =    -537.8040176286249334 [Eh]
	-----------------------------------------------------------

  Dipole Moment: [D]
     X:   -12.1275      Y:    -0.7504      Z:     0.7457     Total:    12.1735

*** Psi4 exiting successfully. Buy a developer a beer!
