                               Psi4 1.4a3.dev225

  ==> Input File <==

--------------------------------------------------------------------------
#psi4
#
memory 32 gb

molecule  {
1 1
  N       -3.4197460    -0.1817000     0.1602720
  N       -0.6214370    -0.0078370    -0.1287630
  C       -2.7377630    -0.6049400    -1.1216890
  C       -2.6265040     0.8533270     0.9259500
  C       -1.3397990    -1.0900720    -0.7822260
  C       -1.4111965     0.3851746     1.1269701
  C        0.8091060    -0.1845140    -0.0397240
  C        1.6179690     0.9496740    -0.2359790
  C        1.3698700    -1.4337860     0.2499420
  C        3.0044760     0.7849240    -0.1342920
  C        1.0196790     2.2951990    -0.5492200
  C        2.7558540    -1.5738690     0.3292430
  C        3.5736970    -0.4590730     0.1432710
  H       -2.7010110     0.2771110    -1.7633110
  H       -3.3565410    -1.3799850    -1.5813290
  H       -3.1641810     1.0582560     1.8552750
  H       -2.5989570     1.7488760     0.3025170
  H       -1.4126900    -2.0099640    -0.1705650
  H       -0.8261290    -1.3544960    -1.7108330
  H       -0.6365290     1.0912410     1.6504410
  H       -1.2578930    -0.5558900     1.8421060
  H       -4.3648950     0.1725180    -0.0402120
  H       -3.5438220    -1.0118610     0.7575640
  H        0.7360800    -2.3037000     0.4086560
  H        3.6499200     1.6470780    -0.2894290
  H        0.2227830     2.2055990    -1.2916560
  H        0.5919240     2.7705950     0.3416580
  H        1.7859030     2.9697170    -0.9386560
  H        3.1912420    -2.5456860     0.5460090
  H        4.6540550    -0.5586080     0.2046590
units angstrom
no_reorient  #important for SAPT in psi4, default
symmetry c1  #important for SAPT in psi4, default
}

set PROPERTIES_ORIGIN ["COM"]
properties('MP2/aug-cc-pvtz', properties = ['dipole'])
--------------------------------------------------------------------------

    Molecular point group: c1
  Charge       = 1
  Multiplicity = 1
  Basis Set: AUG-CC-PVTZ
    Blend: AUG-CC-PVTZ
  Basis Set: (AUG-CC-PVTZ AUX)
    Blend: AUG-CC-PVTZ-JKFIT

    Orbital Energies [Eh]
    ---------------------

    Doubly Occupied:

       1A    -15.867718     2A    -15.702374     3A    -11.456793
       4A    -11.454132     5A    -11.422942     6A    -11.413568
       7A    -11.376692     8A    -11.344601     9A    -11.340312
      10A    -11.331558    11A    -11.329834    12A    -11.328670
      13A    -11.323272    14A     -1.505272    15A     -1.375675
      16A     -1.261035    17A     -1.245620    18A     -1.164964
      19A     -1.143860    20A     -1.090180    21A     -1.040475
      22A     -1.031686    23A     -0.996090    24A     -0.934881
      25A     -0.927220    26A     -0.903686    27A     -0.866506
      28A     -0.834361    29A     -0.813314    30A     -0.797143
      31A     -0.787010    32A     -0.763572    33A     -0.750715
      34A     -0.746347    35A     -0.715485    36A     -0.698895
      37A     -0.683934    38A     -0.674290    39A     -0.668471
      40A     -0.649058    41A     -0.641520    42A     -0.630585
      43A     -0.597969    44A     -0.593666    45A     -0.586541
      46A     -0.515848    47A     -0.432484    48A     -0.421998

  @DF-RHF Final Energy:  -535.25658085912301

   => Energetics <=

    Nuclear Repulsion Energy =            820.4886569071028362
    One-Electron Energy =               -2339.1248346456272884
    Two-Electron Energy =                 983.3795968794015607
    Total Energy =                       -535.2565808591230052
  Basis Set: (AUG-CC-PVTZ AUX)
    Blend: AUG-CC-PVTZ-RI
    Molecular point group: c1

    Geometry (in Angstrom), charge = 1, multiplicity = 1:

       Center              X                  Y                   Z               Mass
    ------------   -----------------  -----------------  -----------------  -----------------
         N           -3.457762833944    -0.174071046048     0.163026716994    14.003074004430
         N           -0.659453833944    -0.000208046048    -0.126008283006    14.003074004430
         C           -2.775779833944    -0.597311046048    -1.118934283006    12.000000000000
         C           -2.664520833944     0.860955953952     0.928704716994    12.000000000000
         C           -1.377815833944    -1.082443046048    -0.779471283006    12.000000000000
         C           -1.449213333944     0.392803553952     1.129724816994    12.000000000000
         C            0.771089166056    -0.176885046048    -0.036969283006    12.000000000000
         C            1.579952166056     0.957302953952    -0.233224283006    12.000000000000
         C            1.331853166056    -1.426157046048     0.252696716994    12.000000000000
         C            2.966459166056     0.792552953952    -0.131537283006    12.000000000000
         C            0.981662166056     2.302827953952    -0.546465283006    12.000000000000
         C            2.717837166056    -1.566240046048     0.331997716994    12.000000000000
         C            3.535680166056    -0.451444046048     0.146025716994    12.000000000000
         H           -2.739027833944     0.284739953952    -1.760556283006     1.007825032230
         H           -3.394557833944    -1.372356046048    -1.578574283006     1.007825032230
         H           -3.202197833944     1.065884953952     1.858029716994     1.007825032230
         H           -2.636973833944     1.756504953952     0.305271716994     1.007825032230
         H           -1.450706833944    -2.002335046048    -0.167810283006     1.007825032230
         H           -0.864145833944    -1.346867046048    -1.708078283006     1.007825032230
         H           -0.674545833944     1.098869953952     1.653195716994     1.007825032230
         H           -1.295909833944    -0.548261046048     1.844860716994     1.007825032230
         H           -4.402911833944     0.180146953952    -0.037457283006     1.007825032230
         H           -3.581838833944    -1.004232046048     0.760318716994     1.007825032230
         H            0.698063166056    -2.296071046048     0.411410716994     1.007825032230
         H            3.611903166056     1.654706953952    -0.286674283006     1.007825032230
         H            0.184766166056     2.213227953952    -1.288901283006     1.007825032230
         H            0.553907166056     2.778223953952     0.344412716994     1.007825032230
         H            1.747886166056     2.977345953952    -0.935901283006     1.007825032230
         H            3.153225166056    -2.538057046048     0.548763716994     1.007825032230
         H            4.616038166056    -0.550979046048     0.207413716994     1.007825032230

  Basis Set: AUG-CC-PVTZ
    Blend: AUG-CC-PVTZ
  Basis Set: (AUG-CC-PVTZ AUX)
    Blend: AUG-CC-PVTZ-JKFIT
	 Reference Energy          =    -535.2565808591230052 [Eh]
	 Singles Energy            =      -0.0000000000000000 [Eh]
	 Same-Spin Energy          =      -0.5886559801468422 [Eh]
	 Opposite-Spin Energy      =      -1.9215250847690029 [Eh]
	 Correlation Energy        =      -2.5101810649158449 [Eh]
	 Total Energy              =    -537.7667619240388603 [Eh]

	 ================> DF-SCS-MP2 Energies <==================
	-----------------------------------------------------------
	 SCS Same-Spin Scale       =       0.3333333333333333 [-]
	 SCS Opposite-Spin Scale   =       1.2000000000000000 [-]
	 SCS Same-Spin Energy      =      -0.1962186600489474 [Eh]
	 SCS Opposite-Spin Energy  =      -2.3058301017228033 [Eh]
	 SCS Correlation Energy    =      -2.5020487617717508 [Eh]
	 SCS Total Energy          =    -537.7586296208947942 [Eh]
	-----------------------------------------------------------

  Dipole Moment: [D]
     X:   -12.1038      Y:    -0.5441      Z:     0.8295     Total:    12.1444

*** Psi4 exiting successfully. Buy a developer a beer!
