                               Psi4 1.4a3.dev225

  ==> Input File <==

--------------------------------------------------------------------------
#psi4
#
memory 32 gb

molecule  {
1 1
  N       -3.4197460    -0.1817000     0.1602720
  N       -0.6214370    -0.0078370    -0.1287630
  C       -2.7377630    -0.6049400    -1.1216890
  C       -2.6265040     0.8533270     0.9259500
  C       -1.3397990    -1.0900720    -0.7822260
  C       -1.2267490     0.3141230     1.1574790
  C        0.8091060    -0.1845140    -0.0397240
  C        1.6179690     0.9496740    -0.2359790
  C        1.3698700    -1.4337860     0.2499420
  C        2.8063977     0.8084604    -0.1488191
  C        1.0196790     2.2951990    -0.5492200
  C        2.7558540    -1.5738690     0.3292430
  C        3.5736970    -0.4590730     0.1432710
  H       -2.7010110     0.2771110    -1.7633110
  H       -3.3565410    -1.3799850    -1.5813290
  H       -3.1641810     1.0582560     1.8552750
  H       -2.5989570     1.7488760     0.3025170
  H       -1.4126900    -2.0099640    -0.1705650
  H       -0.8261290    -1.3544960    -1.7108330
  H       -0.6365290     1.0912410     1.6504410
  H       -1.2578930    -0.5558900     1.8421060
  H       -4.3648950     0.1725180    -0.0402120
  H       -3.5438220    -1.0118610     0.7575640
  H        0.7360800    -2.3037000     0.4086560
  H        3.6499200     1.6470780    -0.2894290
  H        0.2227830     2.2055990    -1.2916560
  H        0.5919240     2.7705950     0.3416580
  H        1.7859030     2.9697170    -0.9386560
  H        3.1912420    -2.5456860     0.5460090
  H        4.6540550    -0.5586080     0.2046590
units angstrom
no_reorient  #important for SAPT in psi4, default
symmetry c1  #important for SAPT in psi4, default
}

set PROPERTIES_ORIGIN ["COM"]
properties('MP2/aug-cc-pvtz', properties = ['dipole'])
--------------------------------------------------------------------------

    Molecular point group: c1
  Charge       = 1
  Multiplicity = 1
  Basis Set: AUG-CC-PVTZ
    Blend: AUG-CC-PVTZ
  Basis Set: (AUG-CC-PVTZ AUX)
    Blend: AUG-CC-PVTZ-JKFIT

    Orbital Energies [Eh]
    ---------------------

    Doubly Occupied:

       1A    -15.866913     2A    -15.703810     3A    -11.457133
       4A    -11.456964     5A    -11.418166     6A    -11.417798
       7A    -11.378504     8A    -11.341066     9A    -11.339750
      10A    -11.329990    11A    -11.323042    12A    -11.321124
      13A    -11.315573    14A     -1.497841    15A     -1.391539
      16A     -1.269323    17A     -1.222243    18A     -1.162896
      19A     -1.150412    20A     -1.074846    21A     -1.054248
      22A     -1.037849    23A     -0.999906    24A     -0.940685
      25A     -0.928009    26A     -0.893931    27A     -0.869538
      28A     -0.824021    29A     -0.811674    30A     -0.791405
      31A     -0.789223    32A     -0.755970    33A     -0.747723
      34A     -0.735510    35A     -0.710097    36A     -0.696849
      37A     -0.687060    38A     -0.679473    39A     -0.676991
      40A     -0.661186    41A     -0.655563    42A     -0.635835
      43A     -0.613878    44A     -0.595080    45A     -0.554296
      46A     -0.516407    47A     -0.459334    48A     -0.415731

  @DF-RHF Final Energy:  -535.24693252231395

   => Energetics <=

    Nuclear Repulsion Energy =            823.8033843050784526
    One-Electron Energy =               -2345.7478192910148209
    Two-Electron Energy =                 986.6975024636224134
    Total Energy =                       -535.2469325223139549
  Basis Set: (AUG-CC-PVTZ AUX)
    Blend: AUG-CC-PVTZ-RI
    Molecular point group: c1

    Geometry (in Angstrom), charge = 1, multiplicity = 1:

       Center              X                  Y                   Z               Mass
    ------------   -----------------  -----------------  -----------------  -----------------
         N           -3.456839437969    -0.170852207501     0.161944056416    14.003074004430
         N           -0.658530437969     0.003010792499    -0.127090943584    14.003074004430
         C           -2.774856437969    -0.594092207501    -1.120016943584    12.000000000000
         C           -2.663597437969     0.864174792499     0.927622056416    12.000000000000
         C           -1.376892437969    -1.079224207501    -0.780553943584    12.000000000000
         C           -1.263842437969     0.324970792499     1.159151056416    12.000000000000
         C            0.772012562031    -0.173666207501    -0.038051943584    12.000000000000
         C            1.580875562031     0.960521792499    -0.234306943584    12.000000000000
         C            1.332776562031    -1.422938207501     0.251614056416    12.000000000000
         C            2.769304262031     0.819308192499    -0.147147043584    12.000000000000
         C            0.982585562031     2.306046792499    -0.547547943584    12.000000000000
         C            2.718760562031    -1.563021207501     0.330915056416    12.000000000000
         C            3.536603562031    -0.448225207501     0.144943056416    12.000000000000
         H           -2.738104437969     0.287958792499    -1.761638943584     1.007825032230
         H           -3.393634437969    -1.369137207501    -1.579656943584     1.007825032230
         H           -3.201274437969     1.069103792499     1.856947056416     1.007825032230
         H           -2.636050437969     1.759723792499     0.304189056416     1.007825032230
         H           -1.449783437969    -1.999116207501    -0.168892943584     1.007825032230
         H           -0.863222437969    -1.343648207501    -1.709160943584     1.007825032230
         H           -0.673622437969     1.102088792499     1.652113056416     1.007825032230
         H           -1.294986437969    -0.545042207501     1.843778056416     1.007825032230
         H           -4.401988437969     0.183365792499    -0.038539943584     1.007825032230
         H           -3.580915437969    -1.001013207501     0.759236056416     1.007825032230
         H            0.698986562031    -2.292852207501     0.410328056416     1.007825032230
         H            3.612826562031     1.657925792499    -0.287756943584     1.007825032230
         H            0.185689562031     2.216446792499    -1.289983943584     1.007825032230
         H            0.554830562031     2.781442792499     0.343330056416     1.007825032230
         H            1.748809562031     2.980564792499    -0.936983943584     1.007825032230
         H            3.154148562031    -2.534838207501     0.547681056416     1.007825032230
         H            4.616961562031    -0.547760207501     0.206331056416     1.007825032230

  Basis Set: AUG-CC-PVTZ
    Blend: AUG-CC-PVTZ
  Basis Set: (AUG-CC-PVTZ AUX)
    Blend: AUG-CC-PVTZ-JKFIT
	 Reference Energy          =    -535.2469325223139549 [Eh]
	 Singles Energy            =      -0.0000000000000000 [Eh]
	 Same-Spin Energy          =      -0.5848321253281804 [Eh]
	 Opposite-Spin Energy      =      -1.9190400453533607 [Eh]
	 Correlation Energy        =      -2.5038721706815412 [Eh]
	 Total Energy              =    -537.7508046929955299 [Eh]

	 ================> DF-SCS-MP2 Energies <==================
	-----------------------------------------------------------
	 SCS Same-Spin Scale       =       0.3333333333333333 [-]
	 SCS Opposite-Spin Scale   =       1.2000000000000000 [-]
	 SCS Same-Spin Energy      =      -0.1949440417760601 [Eh]
	 SCS Opposite-Spin Energy  =      -2.3028480544240328 [Eh]
	 SCS Correlation Energy    =      -2.4977920962000928 [Eh]
	 SCS Total Energy          =    -537.7447246185140557 [Eh]
	-----------------------------------------------------------

  Dipole Moment: [D]
     X:   -12.0584      Y:    -0.8517      Z:     0.7698     Total:    12.1130

*** Psi4 exiting successfully. Buy a developer a beer!
