                               Psi4 1.4a3.dev225

  ==> Input File <==

--------------------------------------------------------------------------
#psi4
#
memory 32 gb

molecule  {
1 1
  N       -3.4197460    -0.1817000     0.1602720
  N       -0.6214370    -0.0078370    -0.1287630
  C       -2.7377630    -0.6049400    -1.1216890
  C       -2.6265040     0.8533270     0.9259500
  C       -1.3397990    -1.0900720    -0.7822260
  C       -1.2267490     0.3141230     1.1574790
  C        0.8091060    -0.1845140    -0.0397240
  C        1.6179690     0.9496740    -0.2359790
  C        1.3698700    -1.4337860     0.2499420
  C        3.0044760     0.7849240    -0.1342920
  C        1.0196790     2.2951990    -0.5492200
  C        2.7558540    -1.5738690     0.3292430
  C        3.5736970    -0.4590730     0.1432710
  H       -2.7010110     0.2771110    -1.7633110
  H       -3.3565410    -1.3799850    -1.5813290
  H       -3.1641810     1.0582560     1.8552750
  H       -2.5989570     1.7488760     0.3025170
  H       -1.4126900    -2.0099640    -0.1705650
  H       -0.8496130    -1.3424070    -1.6683788
  H       -0.6365290     1.0912410     1.6504410
  H       -1.2578930    -0.5558900     1.8421060
  H       -4.3648950     0.1725180    -0.0402120
  H       -3.5438220    -1.0118610     0.7575640
  H        0.7360800    -2.3037000     0.4086560
  H        3.6499200     1.6470780    -0.2894290
  H        0.2227830     2.2055990    -1.2916560
  H        0.5919240     2.7705950     0.3416580
  H        1.7859030     2.9697170    -0.9386560
  H        3.1912420    -2.5456860     0.5460090
  H        4.6540550    -0.5586080     0.2046590
units angstrom
no_reorient  #important for SAPT in psi4, default
symmetry c1  #important for SAPT in psi4, default
}

set PROPERTIES_ORIGIN ["COM"]
properties('MP2/aug-cc-pvtz', properties = ['dipole'])
--------------------------------------------------------------------------

    Molecular point group: c1
  Charge       = 1
  Multiplicity = 1
  Basis Set: AUG-CC-PVTZ
    Blend: AUG-CC-PVTZ
  Basis Set: (AUG-CC-PVTZ AUX)
    Blend: AUG-CC-PVTZ-JKFIT

    Orbital Energies [Eh]
    ---------------------

    Doubly Occupied:

       1A    -15.866587     2A    -15.702796     3A    -11.456722
       4A    -11.456683     5A    -11.417023     6A    -11.412134
       7A    -11.375209     8A    -11.344409     9A    -11.340249
      10A    -11.331857    11A    -11.329929    12A    -11.328655
      13A    -11.323586    14A     -1.497460    15A     -1.390467
      16A     -1.250051    17A     -1.222940    18A     -1.155875
      19A     -1.142715    20A     -1.088139    21A     -1.056238
      22A     -1.032057    23A     -0.996558    24A     -0.935975
      25A     -0.926046    26A     -0.903417    27A     -0.867550
      28A     -0.823741    29A     -0.810122    30A     -0.796725
      31A     -0.788709    32A     -0.755798    33A     -0.745200
      34A     -0.735426    35A     -0.714736    36A     -0.704704
      37A     -0.687646    38A     -0.675339    39A     -0.670695
      40A     -0.663603    41A     -0.655740    42A     -0.640630
      43A     -0.600013    44A     -0.591712    45A     -0.588088
      46A     -0.521614    47A     -0.433608    48A     -0.423500

  @DF-RHF Final Energy:  -535.30811113427842

   => Energetics <=

    Nuclear Repulsion Energy =            820.5635448095235915
    One-Electron Energy =               -2339.3859562853867828
    Two-Electron Energy =                 983.5143003415847716
    Total Energy =                       -535.3081111342784197
  Basis Set: (AUG-CC-PVTZ AUX)
    Blend: AUG-CC-PVTZ-RI
    Molecular point group: c1

    Geometry (in Angstrom), charge = 1, multiplicity = 1:

       Center              X                  Y                   Z               Mass
    ------------   -----------------  -----------------  -----------------  -----------------
         N           -3.470124313300    -0.169326552855     0.160718400898    14.003074004430
         N           -0.671815313300     0.004536447145    -0.128316599102    14.003074004430
         C           -2.788141313300    -0.592566552855    -1.121242599102    12.000000000000
         C           -2.676882313300     0.865700447145     0.926396400898    12.000000000000
         C           -1.390177313300    -1.077698552855    -0.781779599102    12.000000000000
         C           -1.277127313300     0.326496447145     1.157925400898    12.000000000000
         C            0.758727686700    -0.172140552855    -0.039277599102    12.000000000000
         C            1.567590686700     0.962047447145    -0.235532599102    12.000000000000
         C            1.319491686700    -1.421412552855     0.250388400898    12.000000000000
         C            2.954097686700     0.797297447145    -0.133845599102    12.000000000000
         C            0.969300686700     2.307572447145    -0.548773599102    12.000000000000
         C            2.705475686700    -1.561495552855     0.329689400898    12.000000000000
         C            3.523318686700    -0.446699552855     0.143717400898    12.000000000000
         H           -2.751389313300     0.289484447145    -1.762864599102     1.007825032230
         H           -3.406919313300    -1.367611552855    -1.580882599102     1.007825032230
         H           -3.214559313300     1.070629447145     1.855721400898     1.007825032230
         H           -2.649335313300     1.761249447145     0.302963400898     1.007825032230
         H           -1.463068313300    -1.997590552855    -0.170118599102     1.007825032230
         H           -0.899991313300    -1.330033552855    -1.667932399102     1.007825032230
         H           -0.686907313300     1.103614447145     1.650887400898     1.007825032230
         H           -1.308271313300    -0.543516552855     1.842552400898     1.007825032230
         H           -4.415273313300     0.184891447145    -0.039765599102     1.007825032230
         H           -3.594200313300    -0.999487552855     0.758010400898     1.007825032230
         H            0.685701686700    -2.291326552855     0.409102400898     1.007825032230
         H            3.599541686700     1.659451447145    -0.288982599102     1.007825032230
         H            0.172404686700     2.217972447145    -1.291209599102     1.007825032230
         H            0.541545686700     2.782968447145     0.342104400898     1.007825032230
         H            1.735524686700     2.982090447145    -0.938209599102     1.007825032230
         H            3.140863686700    -2.533312552855     0.546455400898     1.007825032230
         H            4.603676686700    -0.546234552855     0.205105400898     1.007825032230

  Basis Set: AUG-CC-PVTZ
    Blend: AUG-CC-PVTZ
  Basis Set: (AUG-CC-PVTZ AUX)
    Blend: AUG-CC-PVTZ-JKFIT
	 Reference Energy          =    -535.3081111342784197 [Eh]
	 Singles Energy            =      -0.0000000000000000 [Eh]
	 Same-Spin Energy          =      -0.5851888760034277 [Eh]
	 Opposite-Spin Energy      =      -1.9167610995308302 [Eh]
	 Correlation Energy        =      -2.5019499755342580 [Eh]
	 Total Energy              =    -537.8100611098126365 [Eh]

	 ================> DF-SCS-MP2 Energies <==================
	-----------------------------------------------------------
	 SCS Same-Spin Scale       =       0.3333333333333333 [-]
	 SCS Opposite-Spin Scale   =       1.2000000000000000 [-]
	 SCS Same-Spin Energy      =      -0.1950629586678092 [Eh]
	 SCS Opposite-Spin Energy  =      -2.3001133194369960 [Eh]
	 SCS Correlation Energy    =      -2.4951762781048052 [Eh]
	 SCS Total Energy          =    -537.8032874123832698 [Eh]
	-----------------------------------------------------------

  Dipole Moment: [D]
     X:   -12.1119      Y:    -0.6872      Z:     0.7325     Total:    12.1534

*** Psi4 exiting successfully. Buy a developer a beer!
