                               Psi4 1.4a3.dev225

  ==> Input File <==

--------------------------------------------------------------------------
#psi4
#
memory 32 gb

molecule  {
1 1
  N       -3.4197460    -0.1817000     0.1602720
  N       -0.6214370    -0.0078370    -0.1287630
  C       -2.7377630    -0.6049400    -1.1216890
  C       -2.6265040     0.8533270     0.9259500
  C       -1.3397990    -1.0900720    -0.7822260
  C       -1.2267490     0.3141230     1.1574790
  C        0.8091060    -0.1845140    -0.0397240
  C        1.6179690     0.9496740    -0.2359790
  C        1.3698700    -1.4337860     0.2499420
  C        3.0539956     0.7790399    -0.1306602
  C        1.0196790     2.2951990    -0.5492200
  C        2.7558540    -1.5738690     0.3292430
  C        3.5736970    -0.4590730     0.1432710
  H       -2.7010110     0.2771110    -1.7633110
  H       -3.3565410    -1.3799850    -1.5813290
  H       -3.1641810     1.0582560     1.8552750
  H       -2.5989570     1.7488760     0.3025170
  H       -1.4126900    -2.0099640    -0.1705650
  H       -0.8261290    -1.3544960    -1.7108330
  H       -0.6365290     1.0912410     1.6504410
  H       -1.2578930    -0.5558900     1.8421060
  H       -4.3648950     0.1725180    -0.0402120
  H       -3.5438220    -1.0118610     0.7575640
  H        0.7360800    -2.3037000     0.4086560
  H        3.6499200     1.6470780    -0.2894290
  H        0.2227830     2.2055990    -1.2916560
  H        0.5919240     2.7705950     0.3416580
  H        1.7859030     2.9697170    -0.9386560
  H        3.1912420    -2.5456860     0.5460090
  H        4.6540550    -0.5586080     0.2046590
units angstrom
no_reorient  #important for SAPT in psi4, default
symmetry c1  #important for SAPT in psi4, default
}

set PROPERTIES_ORIGIN ["COM"]
properties('MP2/aug-cc-pvtz', properties = ['dipole'])
--------------------------------------------------------------------------

    Molecular point group: c1
  Charge       = 1
  Multiplicity = 1
  Basis Set: AUG-CC-PVTZ
    Blend: AUG-CC-PVTZ
  Basis Set: (AUG-CC-PVTZ AUX)
    Blend: AUG-CC-PVTZ-JKFIT

    Orbital Energies [Eh]
    ---------------------

    Doubly Occupied:

       1A    -15.866600     2A    -15.702905     3A    -11.456807
       4A    -11.456721     5A    -11.417517     6A    -11.417086
       7A    -11.374403     8A    -11.349592     9A    -11.340294
      10A    -11.332194    11A    -11.330369    12A    -11.326186
      13A    -11.324253    14A     -1.497499    15A     -1.390023
      16A     -1.247333    17A     -1.221805    18A     -1.156732
      19A     -1.139250    20A     -1.091479    21A     -1.053393
      22A     -1.031253    23A     -0.995111    24A     -0.935389
      25A     -0.923917    26A     -0.903201    27A     -0.867074
      28A     -0.823698    29A     -0.810530    30A     -0.793813
      31A     -0.788398    32A     -0.754768    33A     -0.744215
      34A     -0.734539    35A     -0.718541    36A     -0.704409
      37A     -0.687835    38A     -0.674766    39A     -0.668628
      40A     -0.659847    41A     -0.655034    42A     -0.642608
      43A     -0.605104    44A     -0.587975    45A     -0.584475
      46A     -0.522090    47A     -0.436068    48A     -0.419339

  @DF-RHF Final Energy:  -535.30577665768908

   => Energetics <=

    Nuclear Repulsion Energy =            819.5294026719643625
    One-Electron Energy =               -2337.3402273443339254
    Two-Electron Energy =                 982.5050480146804830
    Total Energy =                       -535.3057766576890799
  Basis Set: (AUG-CC-PVTZ AUX)
    Blend: AUG-CC-PVTZ-RI
    Molecular point group: c1

    Geometry (in Angstrom), charge = 1, multiplicity = 1:

       Center              X                  Y                   Z               Mass
    ------------   -----------------  -----------------  -----------------  -----------------
         N           -3.473612547724    -0.168859164444     0.160713911804    14.003074004430
         N           -0.675303547724     0.005003835556    -0.128321088196    14.003074004430
         C           -2.791629547724    -0.592099164444    -1.121247088196    12.000000000000
         C           -2.680370547724     0.866167835556     0.926391911804    12.000000000000
         C           -1.393665547724    -1.077231164444    -0.781784088196    12.000000000000
         C           -1.280615547724     0.326963835556     1.157920911804    12.000000000000
         C            0.755239452276    -0.171673164444    -0.039282088196    12.000000000000
         C            1.564102452276     0.962514835556    -0.235537088196    12.000000000000
         C            1.316003452276    -1.420945164444     0.250383911804    12.000000000000
         C            3.000129052276     0.791880735556    -0.130218288196    12.000000000000
         C            0.965812452276     2.308039835556    -0.548778088196    12.000000000000
         C            2.701987452276    -1.561028164444     0.329684911804    12.000000000000
         C            3.519830452276    -0.446232164444     0.143712911804    12.000000000000
         H           -2.754877547724     0.289951835556    -1.762869088196     1.007825032230
         H           -3.410407547724    -1.367144164444    -1.580887088196     1.007825032230
         H           -3.218047547724     1.071096835556     1.855716911804     1.007825032230
         H           -2.652823547724     1.761716835556     0.302958911804     1.007825032230
         H           -1.466556547724    -1.997123164444    -0.170123088196     1.007825032230
         H           -0.879995547724    -1.341655164444    -1.710391088196     1.007825032230
         H           -0.690395547724     1.104081835556     1.650882911804     1.007825032230
         H           -1.311759547724    -0.543049164444     1.842547911804     1.007825032230
         H           -4.418761547724     0.185358835556    -0.039770088196     1.007825032230
         H           -3.597688547724    -0.999020164444     0.758005911804     1.007825032230
         H            0.682213452276    -2.290859164444     0.409097911804     1.007825032230
         H            3.596053452276     1.659918835556    -0.288987088196     1.007825032230
         H            0.168916452276     2.218439835556    -1.291214088196     1.007825032230
         H            0.538057452276     2.783435835556     0.342099911804     1.007825032230
         H            1.732036452276     2.982557835556    -0.938214088196     1.007825032230
         H            3.137375452276    -2.532845164444     0.546450911804     1.007825032230
         H            4.600188452276    -0.545767164444     0.205100911804     1.007825032230

  Basis Set: AUG-CC-PVTZ
    Blend: AUG-CC-PVTZ
  Basis Set: (AUG-CC-PVTZ AUX)
    Blend: AUG-CC-PVTZ-JKFIT
	 Reference Energy          =    -535.3057766576890799 [Eh]
	 Singles Energy            =      -0.0000000000000000 [Eh]
	 Same-Spin Energy          =      -0.5852358819362550 [Eh]
	 Opposite-Spin Energy      =      -1.9172955664176312 [Eh]
	 Correlation Energy        =      -2.5025314483538863 [Eh]
	 Total Energy              =    -537.8083081060430004 [Eh]

	 ================> DF-SCS-MP2 Energies <==================
	-----------------------------------------------------------
	 SCS Same-Spin Scale       =       0.3333333333333333 [-]
	 SCS Opposite-Spin Scale   =       1.2000000000000000 [-]
	 SCS Same-Spin Energy      =      -0.1950786273120850 [Eh]
	 SCS Opposite-Spin Energy  =      -2.3007546797011575 [Eh]
	 SCS Correlation Energy    =      -2.4958333070132426 [Eh]
	 SCS Total Energy          =    -537.8016099647022656 [Eh]
	-----------------------------------------------------------

  Dipole Moment: [D]
     X:   -12.1259      Y:    -0.6565      Z:     0.7257     Total:    12.1653

*** Psi4 exiting successfully. Buy a developer a beer!
