                               Psi4 1.4a3.dev225

  ==> Input File <==

--------------------------------------------------------------------------
#psi4
#
memory 32 gb

molecule  {
1 1
  N       -3.4197460    -0.1817000     0.1602720
  N       -0.6214370    -0.0078370    -0.1287630
  C       -2.7377630    -0.6049400    -1.1216890
  C       -2.6265040     0.8533270     0.9259500
  C       -1.3397990    -1.0900720    -0.7822260
  C       -1.2267490     0.3141230     1.1574790
  C        0.8091060    -0.1845140    -0.0397240
  C        1.6179690     0.9496740    -0.2359790
  C        1.3698700    -1.4337860     0.2499420
  C        3.0044760     0.7849240    -0.1342920
  C        1.0196790     2.2951990    -0.5492200
  C        2.7558540    -1.5738690     0.3292430
  C        3.5736970    -0.4590730     0.1432710
  H       -2.7010110     0.2771110    -1.7633110
  H       -3.3565410    -1.3799850    -1.5813290
  H       -3.1641810     1.0582560     1.8552750
  H       -2.5989570     1.7488760     0.3025170
  H       -1.4126900    -2.0099640    -0.1705650
  H       -0.7321929    -1.4028519    -1.8806497
  H       -0.6365290     1.0912410     1.6504410
  H       -1.2578930    -0.5558900     1.8421060
  H       -4.3648950     0.1725180    -0.0402120
  H       -3.5438220    -1.0118610     0.7575640
  H        0.7360800    -2.3037000     0.4086560
  H        3.6499200     1.6470780    -0.2894290
  H        0.2227830     2.2055990    -1.2916560
  H        0.5919240     2.7705950     0.3416580
  H        1.7859030     2.9697170    -0.9386560
  H        3.1912420    -2.5456860     0.5460090
  H        4.6540550    -0.5586080     0.2046590
units angstrom
no_reorient  #important for SAPT in psi4, default
symmetry c1  #important for SAPT in psi4, default
}

set PROPERTIES_ORIGIN ["COM"]
properties('MP2/aug-cc-pvtz', properties = ['dipole'])
--------------------------------------------------------------------------

    Molecular point group: c1
  Charge       = 1
  Multiplicity = 1
  Basis Set: AUG-CC-PVTZ
    Blend: AUG-CC-PVTZ
  Basis Set: (AUG-CC-PVTZ AUX)
    Blend: AUG-CC-PVTZ-JKFIT

    Orbital Energies [Eh]
    ---------------------

    Doubly Occupied:

       1A    -15.867233     2A    -15.704592     3A    -11.457576
       4A    -11.457458     5A    -11.436984     6A    -11.418700
       7A    -11.375134     8A    -11.344367     9A    -11.339997
      10A    -11.331631    11A    -11.329745    12A    -11.328485
      13A    -11.323607    14A     -1.498270    15A     -1.390349
      16A     -1.249705    17A     -1.219573    18A     -1.155174
      19A     -1.142549    20A     -1.088186    21A     -1.047013
      22A     -1.031864    23A     -0.995194    24A     -0.934979
      25A     -0.918749    26A     -0.903189    27A     -0.867579
      28A     -0.824140    29A     -0.810796    30A     -0.790130
      31A     -0.783703    32A     -0.753025    33A     -0.743453
      34A     -0.730770    35A     -0.714415    36A     -0.704004
      37A     -0.688599    38A     -0.675200    39A     -0.668467
      40A     -0.656911    41A     -0.642132    42A     -0.632104
      43A     -0.599463    44A     -0.591559    45A     -0.588056
      46A     -0.522032    47A     -0.433346    48A     -0.423498

  @DF-RHF Final Energy:  -535.28769692855064

   => Energetics <=

    Nuclear Repulsion Energy =            819.3252079951355427
    One-Electron Energy =               -2336.9584349899760127
    Two-Electron Energy =                 982.3455300662898253
    Total Energy =                       -535.2876969285506448
  Basis Set: (AUG-CC-PVTZ AUX)
    Blend: AUG-CC-PVTZ-RI
    Molecular point group: c1

    Geometry (in Angstrom), charge = 1, multiplicity = 1:

       Center              X                  Y                   Z               Mass
    ------------   -----------------  -----------------  -----------------  -----------------
         N           -3.470792369460    -0.168982654427     0.161926106243    14.003074004430
         N           -0.672483369460     0.004880345573    -0.127108893757    14.003074004430
         C           -2.788809369460    -0.592222654427    -1.120034893757    12.000000000000
         C           -2.677550369460     0.866044345573     0.927604106243    12.000000000000
         C           -1.390845369460    -1.077354654427    -0.780571893757    12.000000000000
         C           -1.277795369460     0.326840345573     1.159133106243    12.000000000000
         C            0.758059630540    -0.171796654427    -0.038069893757    12.000000000000
         C            1.566922630540     0.962391345573    -0.234324893757    12.000000000000
         C            1.318823630540    -1.421068654427     0.251596106243    12.000000000000
         C            2.953429630540     0.797641345573    -0.132637893757    12.000000000000
         C            0.968632630540     2.307916345573    -0.547565893757    12.000000000000
         C            2.704807630540    -1.561151654427     0.330897106243    12.000000000000
         C            3.522650630540    -0.446355654427     0.144925106243    12.000000000000
         H           -2.752057369460     0.289828345573    -1.761656893757     1.007825032230
         H           -3.407587369460    -1.367267654427    -1.579674893757     1.007825032230
         H           -3.215227369460     1.070973345573     1.856929106243     1.007825032230
         H           -2.650003369460     1.761593345573     0.304171106243     1.007825032230
         H           -1.463736369460    -1.997246654427    -0.168910893757     1.007825032230
         H           -0.783239269460    -1.390134554427    -1.878995593757     1.007825032230
         H           -0.687575369460     1.103958345573     1.652095106243     1.007825032230
         H           -1.308939369460    -0.543172654427     1.843760106243     1.007825032230
         H           -4.415941369460     0.185235345573    -0.038557893757     1.007825032230
         H           -3.594868369460    -0.999143654427     0.759218106243     1.007825032230
         H            0.685033630540    -2.290982654427     0.410310106243     1.007825032230
         H            3.598873630540     1.659795345573    -0.287774893757     1.007825032230
         H            0.171736630540     2.218316345573    -1.290001893757     1.007825032230
         H            0.540877630540     2.783312345573     0.343312106243     1.007825032230
         H            1.734856630540     2.982434345573    -0.937001893757     1.007825032230
         H            3.140195630540    -2.532968654427     0.547663106243     1.007825032230
         H            4.603008630540    -0.545890654427     0.206313106243     1.007825032230

  Basis Set: AUG-CC-PVTZ
    Blend: AUG-CC-PVTZ
  Basis Set: (AUG-CC-PVTZ AUX)
    Blend: AUG-CC-PVTZ-JKFIT
	 Reference Energy          =    -535.2876969285506448 [Eh]
	 Singles Energy            =      -0.0000000000000000 [Eh]
	 Same-Spin Energy          =      -0.5858175558190823 [Eh]
	 Opposite-Spin Energy      =      -1.9192841909208425 [Eh]
	 Correlation Energy        =      -2.5051017467399248 [Eh]
	 Total Energy              =    -537.7927986752905554 [Eh]

	 ================> DF-SCS-MP2 Energies <==================
	-----------------------------------------------------------
	 SCS Same-Spin Scale       =       0.3333333333333333 [-]
	 SCS Opposite-Spin Scale   =       1.2000000000000000 [-]
	 SCS Same-Spin Energy      =      -0.1952725186063608 [Eh]
	 SCS Opposite-Spin Energy  =      -2.3031410291050110 [Eh]
	 SCS Correlation Energy    =      -2.4984135477113716 [Eh]
	 SCS Total Energy          =    -537.7861104762620243 [Eh]
	-----------------------------------------------------------

  Dipole Moment: [D]
     X:   -12.0903      Y:    -0.6674      Z:     0.7479     Total:    12.1318

*** Psi4 exiting successfully. Buy a developer a beer!
