                               Psi4 1.4a3.dev225

  ==> Input File <==

--------------------------------------------------------------------------
#psi4
#
memory 32 gb

molecule  {
1 1
  N       -3.4197460    -0.1817000     0.1602720
  N       -0.6214370    -0.0078370    -0.1287630
  C       -2.7377630    -0.6049400    -1.1216890
  C       -2.6265040     0.8533270     0.9259500
  C       -1.3397990    -1.0900720    -0.7822260
  C       -1.2267490     0.3141230     1.1574790
  C        0.8091060    -0.1845140    -0.0397240
  C        1.6179690     0.9496740    -0.2359790
  C        1.3698700    -1.4337860     0.2499420
  C        3.0044760     0.7849240    -0.1342920
  C        1.0196790     2.2951990    -0.5492200
  C        2.7169523    -1.5454443     0.3221810
  C        3.5736970    -0.4590730     0.1432710
  H       -2.7010110     0.2771110    -1.7633110
  H       -3.3565410    -1.3799850    -1.5813290
  H       -3.1641810     1.0582560     1.8552750
  H       -2.5989570     1.7488760     0.3025170
  H       -1.4126900    -2.0099640    -0.1705650
  H       -0.8261290    -1.3544960    -1.7108330
  H       -0.6365290     1.0912410     1.6504410
  H       -1.2578930    -0.5558900     1.8421060
  H       -4.3648950     0.1725180    -0.0402120
  H       -3.5438220    -1.0118610     0.7575640
  H        0.7360800    -2.3037000     0.4086560
  H        3.6499200     1.6470780    -0.2894290
  H        0.2227830     2.2055990    -1.2916560
  H        0.5919240     2.7705950     0.3416580
  H        1.7859030     2.9697170    -0.9386560
  H        3.1912420    -2.5456860     0.5460090
  H        4.6540550    -0.5586080     0.2046590
units angstrom
no_reorient  #important for SAPT in psi4, default
symmetry c1  #important for SAPT in psi4, default
}

set PROPERTIES_ORIGIN ["COM"]
properties('MP2/aug-cc-pvtz', properties = ['dipole'])
--------------------------------------------------------------------------

    Molecular point group: c1
  Charge       = 1
  Multiplicity = 1
  Basis Set: AUG-CC-PVTZ
    Blend: AUG-CC-PVTZ
  Basis Set: (AUG-CC-PVTZ AUX)
    Blend: AUG-CC-PVTZ-JKFIT

    Orbital Energies [Eh]
    ---------------------

    Doubly Occupied:

       1A    -15.866705     2A    -15.702882     3A    -11.456929
       4A    -11.456815     5A    -11.417709     6A    -11.417316
       7A    -11.374884     8A    -11.343737     9A    -11.335531
      10A    -11.330582    11A    -11.329698    12A    -11.328446
      13A    -11.323404    14A     -1.497606    15A     -1.390338
      16A     -1.253741    17A     -1.221946    18A     -1.156442
      19A     -1.145050    20A     -1.090018    21A     -1.053593
      22A     -1.031244    23A     -0.995872    24A     -0.935741
      25A     -0.925110    26A     -0.902077    27A     -0.867732
      28A     -0.823808    29A     -0.808305    30A     -0.793971
      31A     -0.788398    32A     -0.757149    33A     -0.746337
      34A     -0.734728    35A     -0.713337    36A     -0.702748
      37A     -0.687648    38A     -0.675263    39A     -0.669515
      40A     -0.659969    41A     -0.653946    42A     -0.641417
      43A     -0.597458    44A     -0.594507    45A     -0.587977
      46A     -0.520634    47A     -0.436536    48A     -0.423386

  @DF-RHF Final Energy:  -535.30592936409880

   => Energetics <=

    Nuclear Repulsion Energy =            821.3033759139129870
    One-Electron Energy =               -2340.8822430784075550
    Two-Electron Energy =                 984.2729378003957663
    Total Energy =                       -535.3059293640988017
  Basis Set: (AUG-CC-PVTZ AUX)
    Blend: AUG-CC-PVTZ-RI
    Molecular point group: c1

    Geometry (in Angstrom), charge = 1, multiplicity = 1:

       Center              X                  Y                   Z               Mass
    ------------   -----------------  -----------------  -----------------  -----------------
         N           -3.467622593166    -0.171183357290     0.161438345578    14.003074004430
         N           -0.669313593166     0.002679642710    -0.127596654422    14.003074004430
         C           -2.785639593166    -0.594423357290    -1.120522654422    12.000000000000
         C           -2.674380593166     0.863843642710     0.927116345578    12.000000000000
         C           -1.387675593166    -1.079555357290    -0.781059654422    12.000000000000
         C           -1.274625593166     0.324639642710     1.158645345578    12.000000000000
         C            0.761229406834    -0.173997357290    -0.038557654422    12.000000000000
         C            1.570092406834     0.960190642710    -0.234812654422    12.000000000000
         C            1.321993406834    -1.423269357290     0.251108345578    12.000000000000
         C            2.956599406834     0.795440642710    -0.133125654422    12.000000000000
         C            0.971802406834     2.305715642710    -0.548053654422    12.000000000000
         C            2.669075706834    -1.534927657290     0.323347345578    12.000000000000
         C            3.525820406834    -0.448556357290     0.144437345578    12.000000000000
         H           -2.748887593166     0.287627642710    -1.762144654422     1.007825032230
         H           -3.404417593166    -1.369468357290    -1.580162654422     1.007825032230
         H           -3.212057593166     1.068772642710     1.856441345578     1.007825032230
         H           -2.646833593166     1.759392642710     0.303683345578     1.007825032230
         H           -1.460566593166    -1.999447357290    -0.169398654422     1.007825032230
         H           -0.874005593166    -1.343979357290    -1.709666654422     1.007825032230
         H           -0.684405593166     1.101757642710     1.651607345578     1.007825032230
         H           -1.305769593166    -0.545373357290     1.843272345578     1.007825032230
         H           -4.412771593166     0.183034642710    -0.039045654422     1.007825032230
         H           -3.591698593166    -1.001344357290     0.758730345578     1.007825032230
         H            0.688203406834    -2.293183357290     0.409822345578     1.007825032230
         H            3.602043406834     1.657594642710    -0.288262654422     1.007825032230
         H            0.174906406834     2.216115642710    -1.290489654422     1.007825032230
         H            0.544047406834     2.781111642710     0.342824345578     1.007825032230
         H            1.738026406834     2.980233642710    -0.937489654422     1.007825032230
         H            3.143365406834    -2.535169357290     0.547175345578     1.007825032230
         H            4.606178406834    -0.548091357290     0.205825345578     1.007825032230

  Basis Set: AUG-CC-PVTZ
    Blend: AUG-CC-PVTZ
  Basis Set: (AUG-CC-PVTZ AUX)
    Blend: AUG-CC-PVTZ-JKFIT
	 Reference Energy          =    -535.3059293640988017 [Eh]
	 Singles Energy            =      -0.0000000000000000 [Eh]
	 Same-Spin Energy          =      -0.5854041108202589 [Eh]
	 Opposite-Spin Energy      =      -1.9171438618747811 [Eh]
	 Correlation Energy        =      -2.5025479726950399 [Eh]
	 Total Energy              =    -537.8084773367938851 [Eh]

	 ================> DF-SCS-MP2 Energies <==================
	-----------------------------------------------------------
	 SCS Same-Spin Scale       =       0.3333333333333333 [-]
	 SCS Opposite-Spin Scale   =       1.2000000000000000 [-]
	 SCS Same-Spin Energy      =      -0.1951347036067529 [Eh]
	 SCS Opposite-Spin Energy  =      -2.3005726342497375 [Eh]
	 SCS Correlation Energy    =      -2.4957073378564902 [Eh]
	 SCS Total Energy          =    -537.8016367019553172 [Eh]
	-----------------------------------------------------------

  Dipole Moment: [D]
     X:   -12.0965      Y:    -0.6728      Z:     0.7292     Total:    12.1371

*** Psi4 exiting successfully. Buy a developer a beer!
