                               Psi4 1.4a3.dev225

  ==> Input File <==

--------------------------------------------------------------------------
#psi4
#
memory 32 gb

molecule  {
1 1
  N       -3.4197460    -0.1817000     0.1602720
  N       -0.6214370    -0.0078370    -0.1287630
  C       -2.7377630    -0.6049400    -1.1216890
  C       -2.6265040     0.8533270     0.9259500
  C       -1.3397990    -1.0900720    -0.7822260
  C       -1.2267490     0.3141230     1.1574790
  C        0.8091060    -0.1845140    -0.0397240
  C        1.6179690     0.9496740    -0.2359790
  C        1.3698700    -1.4337860     0.2499420
  C        3.0044760     0.7849240    -0.1342920
  C        1.0196790     2.2951990    -0.5492200
  C        2.7558540    -1.5738690     0.3292430
  C        3.5736970    -0.4590730     0.1432710
  H       -2.7010110     0.2771110    -1.7633110
  H       -3.3565410    -1.3799850    -1.5813290
  H       -3.1641810     1.0582560     1.8552750
  H       -2.5989570     1.7488760     0.3025170
  H       -1.4217904    -1.9998952    -0.1568120
  H       -0.8261290    -1.3544960    -1.7108330
  H       -0.6365290     1.0912410     1.6504410
  H       -1.2578930    -0.5558900     1.8421060
  H       -4.3648950     0.1725180    -0.0402120
  H       -3.5438220    -1.0118610     0.7575640
  H        0.7360800    -2.3037000     0.4086560
  H        3.6499200     1.6470780    -0.2894290
  H        0.2227830     2.2055990    -1.2916560
  H        0.5919240     2.7705950     0.3416580
  H        1.7859030     2.9697170    -0.9386560
  H        3.1912420    -2.5456860     0.5460090
  H        4.6540550    -0.5586080     0.2046590
units angstrom
no_reorient  #important for SAPT in psi4, default
symmetry c1  #important for SAPT in psi4, default
}

set PROPERTIES_ORIGIN ["COM"]
properties('MP2/aug-cc-pvtz', properties = ['dipole'])
--------------------------------------------------------------------------

    Molecular point group: c1
  Charge       = 1
  Multiplicity = 1
  Basis Set: AUG-CC-PVTZ
    Blend: AUG-CC-PVTZ
  Basis Set: (AUG-CC-PVTZ AUX)
    Blend: AUG-CC-PVTZ-JKFIT

    Orbital Energies [Eh]
    ---------------------

    Doubly Occupied:

       1A    -15.866694     2A    -15.702912     3A    -11.456817
       4A    -11.456699     5A    -11.417791     6A    -11.417321
       7A    -11.375147     8A    -11.344374     9A    -11.340164
      10A    -11.331792    11A    -11.329875    12A    -11.328606
      13A    -11.323574    14A     -1.497611    15A     -1.390312
      16A     -1.249933    17A     -1.221945    18A     -1.155647
      19A     -1.142647    20A     -1.088103    21A     -1.053430
      22A     -1.032006    23A     -0.996197    24A     -0.935461
      25A     -0.924109    26A     -0.903348    27A     -0.867510
      28A     -0.823824    29A     -0.810149    30A     -0.793865
      31A     -0.788606    32A     -0.754991    33A     -0.744826
      34A     -0.734646    35A     -0.714433    36A     -0.704694
      37A     -0.687415    38A     -0.675209    39A     -0.669513
      40A     -0.660614    41A     -0.655654    42A     -0.640531
      43A     -0.599938    44A     -0.591674    45A     -0.588064
      46A     -0.521527    47A     -0.433540    48A     -0.423480

  @DF-RHF Final Energy:  -535.30884770132229

   => Energetics <=

    Nuclear Repulsion Energy =            820.3190625225864778
    One-Electron Energy =               -2338.9213799588223992
    Two-Electron Energy =                 983.2934697349135149
    Total Energy =                       -535.3088477013222928
  Basis Set: (AUG-CC-PVTZ AUX)
    Blend: AUG-CC-PVTZ-RI
    Molecular point group: c1

    Geometry (in Angstrom), charge = 1, multiplicity = 1:

       Center              X                  Y                   Z               Mass
    ------------   -----------------  -----------------  -----------------  -----------------
         N           -3.470206148118    -0.169315059021     0.160881695032    14.003074004430
         N           -0.671897148118     0.004547940979    -0.128153304968    14.003074004430
         C           -2.788223148118    -0.592555059021    -1.121079304968    12.000000000000
         C           -2.676964148118     0.865711940979     0.926559695032    12.000000000000
         C           -1.390259148118    -1.077687059021    -0.781616304968    12.000000000000
         C           -1.277209148118     0.326507940979     1.158088695032    12.000000000000
         C            0.758645851882    -0.172129059021    -0.039114304968    12.000000000000
         C            1.567508851882     0.962058940979    -0.235369304968    12.000000000000
         C            1.319409851882    -1.421401059021     0.250551695032    12.000000000000
         C            2.954015851882     0.797308940979    -0.133682304968    12.000000000000
         C            0.969218851882     2.307583940979    -0.548610304968    12.000000000000
         C            2.705393851882    -1.561484059021     0.329852695032    12.000000000000
         C            3.523236851882    -0.446688059021     0.143880695032    12.000000000000
         H           -2.751471148118     0.289495940979    -1.762701304968     1.007825032230
         H           -3.407001148118    -1.367600059021    -1.580719304968     1.007825032230
         H           -3.214641148118     1.070640940979     1.855884695032     1.007825032230
         H           -2.649417148118     1.761260940979     0.303126695032     1.007825032230
         H           -1.472250548118    -1.987510259021    -0.156202304968     1.007825032230
         H           -0.876589148118    -1.342111059021    -1.710223304968     1.007825032230
         H           -0.686989148118     1.103625940979     1.651050695032     1.007825032230
         H           -1.308353148118    -0.543505059021     1.842715695032     1.007825032230
         H           -4.415355148118     0.184902940979    -0.039602304968     1.007825032230
         H           -3.594282148118    -0.999476059021     0.758173695032     1.007825032230
         H            0.685619851882    -2.291315059021     0.409265695032     1.007825032230
         H            3.599459851882     1.659462940979    -0.288819304968     1.007825032230
         H            0.172322851882     2.217983940979    -1.291046304968     1.007825032230
         H            0.541463851882     2.782979940979     0.342267695032     1.007825032230
         H            1.735442851882     2.982101940979    -0.938046304968     1.007825032230
         H            3.140781851882    -2.533301059021     0.546618695032     1.007825032230
         H            4.603594851882    -0.546223059021     0.205268695032     1.007825032230

  Basis Set: AUG-CC-PVTZ
    Blend: AUG-CC-PVTZ
  Basis Set: (AUG-CC-PVTZ AUX)
    Blend: AUG-CC-PVTZ-JKFIT
	 Reference Energy          =    -535.3088477013222928 [Eh]
	 Singles Energy            =      -0.0000000000000000 [Eh]
	 Same-Spin Energy          =      -0.5853070949647228 [Eh]
	 Opposite-Spin Energy      =      -1.9171700406500833 [Eh]
	 Correlation Energy        =      -2.5024771356148063 [Eh]
	 Total Energy              =    -537.8113248369370467 [Eh]

	 ================> DF-SCS-MP2 Energies <==================
	-----------------------------------------------------------
	 SCS Same-Spin Scale       =       0.3333333333333333 [-]
	 SCS Opposite-Spin Scale   =       1.2000000000000000 [-]
	 SCS Same-Spin Energy      =      -0.1951023649882409 [Eh]
	 SCS Opposite-Spin Energy  =      -2.3006040487800998 [Eh]
	 SCS Correlation Energy    =      -2.4957064137683407 [Eh]
	 SCS Total Energy          =    -537.8045541150905819 [Eh]
	-----------------------------------------------------------

  Dipole Moment: [D]
     X:   -12.1088      Y:    -0.6801      Z:     0.7318     Total:    12.1499

*** Psi4 exiting successfully. Buy a developer a beer!
