                               Psi4 1.4a3.dev225

  ==> Input File <==

--------------------------------------------------------------------------
#psi4
#
memory 32 gb

molecule  {
1 1
  N       -3.4197460    -0.1817000     0.1602720
  N       -0.6214370    -0.0078370    -0.1287630
  C       -2.7377630    -0.6049400    -1.1216890
  C       -2.6265040     0.8533270     0.9259500
  C       -1.3397990    -1.0900720    -0.7822260
  C       -1.2267490     0.3141230     1.1574790
  C        0.8091060    -0.1845140    -0.0397240
  C        1.6754646     1.0302944    -0.2499292
  C        1.3698700    -1.4337860     0.2499420
  C        3.0044760     0.7849240    -0.1342920
  C        1.0196790     2.2951990    -0.5492200
  C        2.7558540    -1.5738690     0.3292430
  C        3.5736970    -0.4590730     0.1432710
  H       -2.7010110     0.2771110    -1.7633110
  H       -3.3565410    -1.3799850    -1.5813290
  H       -3.1641810     1.0582560     1.8552750
  H       -2.5989570     1.7488760     0.3025170
  H       -1.4126900    -2.0099640    -0.1705650
  H       -0.8261290    -1.3544960    -1.7108330
  H       -0.6365290     1.0912410     1.6504410
  H       -1.2578930    -0.5558900     1.8421060
  H       -4.3648950     0.1725180    -0.0402120
  H       -3.5438220    -1.0118610     0.7575640
  H        0.7360800    -2.3037000     0.4086560
  H        3.6499200     1.6470780    -0.2894290
  H        0.2227830     2.2055990    -1.2916560
  H        0.5919240     2.7705950     0.3416580
  H        1.7859030     2.9697170    -0.9386560
  H        3.1912420    -2.5456860     0.5460090
  H        4.6540550    -0.5586080     0.2046590
units angstrom
no_reorient  #important for SAPT in psi4, default
symmetry c1  #important for SAPT in psi4, default
}

set PROPERTIES_ORIGIN ["COM"]
properties('MP2/aug-cc-pvtz', properties = ['dipole'])
--------------------------------------------------------------------------

    Molecular point group: c1
  Charge       = 1
  Multiplicity = 1
  Basis Set: AUG-CC-PVTZ
    Blend: AUG-CC-PVTZ
  Basis Set: (AUG-CC-PVTZ AUX)
    Blend: AUG-CC-PVTZ-JKFIT

    Orbital Energies [Eh]
    ---------------------

    Doubly Occupied:

       1A    -15.866794     2A    -15.704067     3A    -11.456998
       4A    -11.456898     5A    -11.417650     6A    -11.417620
       7A    -11.382925     8A    -11.347400     9A    -11.340474
      10A    -11.331278    11A    -11.329427    12A    -11.324101
      13A    -11.322315    14A     -1.497699    15A     -1.389096
      16A     -1.246883    17A     -1.222034    18A     -1.155128
      19A     -1.150988    20A     -1.087278    21A     -1.053673
      22A     -1.033855    23A     -0.996835    24A     -0.933589
      25A     -0.923708    26A     -0.898551    27A     -0.866762
      28A     -0.823902    29A     -0.810622    30A     -0.792585
      31A     -0.788547    32A     -0.756206    33A     -0.744738
      34A     -0.734544    35A     -0.714321    36A     -0.702023
      37A     -0.688690    38A     -0.679860    39A     -0.678854
      40A     -0.660086    41A     -0.655124    42A     -0.638310
      43A     -0.613339    44A     -0.586124    45A     -0.575435
      46A     -0.519911    47A     -0.440188    48A     -0.413541

  @DF-RHF Final Energy:  -535.29614921573398

   => Energetics <=

    Nuclear Repulsion Energy =            819.1015185863503802
    One-Electron Energy =               -2336.4533802089554229
    Two-Electron Energy =                 982.0557124068711801
    Total Energy =                       -535.2961492157339762
  Basis Set: (AUG-CC-PVTZ AUX)
    Blend: AUG-CC-PVTZ-RI
    Molecular point group: c1

    Geometry (in Angstrom), charge = 1, multiplicity = 1:

       Center              X                  Y                   Z               Mass
    ------------   -----------------  -----------------  -----------------  -----------------
         N           -3.474152868637    -0.174719268560     0.161904975281    14.003074004430
         N           -0.675843868637    -0.000856268560    -0.127130024719    14.003074004430
         C           -2.792169868637    -0.597959268560    -1.120056024719    12.000000000000
         C           -2.680910868637     0.860307731440     0.927582975281    12.000000000000
         C           -1.394205868637    -1.083091268560    -0.780593024719    12.000000000000
         C           -1.281155868637     0.321103731440     1.159111975281    12.000000000000
         C            0.754699131363    -0.177533268560    -0.038091024719    12.000000000000
         C            1.621057731363     1.037275131440    -0.248296224719    12.000000000000
         C            1.315463131363    -1.426805268560     0.251574975281    12.000000000000
         C            2.950069131363     0.791904731440    -0.132659024719    12.000000000000
         C            0.965272131363     2.302179731440    -0.547587024719    12.000000000000
         C            2.701447131363    -1.566888268560     0.330875975281    12.000000000000
         C            3.519290131363    -0.452092268560     0.144903975281    12.000000000000
         H           -2.755417868637     0.284091731440    -1.761678024719     1.007825032230
         H           -3.410947868637    -1.373004268560    -1.579696024719     1.007825032230
         H           -3.218587868637     1.065236731440     1.856907975281     1.007825032230
         H           -2.653363868637     1.755856731440     0.304149975281     1.007825032230
         H           -1.467096868637    -2.002983268560    -0.168932024719     1.007825032230
         H           -0.880535868637    -1.347515268560    -1.709200024719     1.007825032230
         H           -0.690935868637     1.098221731440     1.652073975281     1.007825032230
         H           -1.312299868637    -0.548909268560     1.843738975281     1.007825032230
         H           -4.419301868637     0.179498731440    -0.038579024719     1.007825032230
         H           -3.598228868637    -1.004880268560     0.759196975281     1.007825032230
         H            0.681673131363    -2.296719268560     0.410288975281     1.007825032230
         H            3.595513131363     1.654058731440    -0.287796024719     1.007825032230
         H            0.168376131363     2.212579731440    -1.290023024719     1.007825032230
         H            0.537517131363     2.777575731440     0.343290975281     1.007825032230
         H            1.731496131363     2.976697731440    -0.937023024719     1.007825032230
         H            3.136835131363    -2.538705268560     0.547641975281     1.007825032230
         H            4.599648131363    -0.551627268560     0.206291975281     1.007825032230

  Basis Set: AUG-CC-PVTZ
    Blend: AUG-CC-PVTZ
  Basis Set: (AUG-CC-PVTZ AUX)
    Blend: AUG-CC-PVTZ-JKFIT
	 Reference Energy          =    -535.2961492157339762 [Eh]
	 Singles Energy            =      -0.0000000000000000 [Eh]
	 Same-Spin Energy          =      -0.5858355552277070 [Eh]
	 Opposite-Spin Energy      =      -1.9185424033063356 [Eh]
	 Correlation Energy        =      -2.5043779585340427 [Eh]
	 Total Energy              =    -537.8005271742680407 [Eh]

	 ================> DF-SCS-MP2 Energies <==================
	-----------------------------------------------------------
	 SCS Same-Spin Scale       =       0.3333333333333333 [-]
	 SCS Opposite-Spin Scale   =       1.2000000000000000 [-]
	 SCS Same-Spin Energy      =      -0.1952785184092357 [Eh]
	 SCS Opposite-Spin Energy  =      -2.3022508839676026 [Eh]
	 SCS Correlation Energy    =      -2.4975294023768382 [Eh]
	 SCS Total Energy          =    -537.7936786181107891 [Eh]
	-----------------------------------------------------------

  Dipole Moment: [D]
     X:   -12.2001      Y:    -0.6720      Z:     0.7276     Total:    12.2402

*** Psi4 exiting successfully. Buy a developer a beer!
