                               Psi4 1.4a3.dev225

  ==> Input File <==

--------------------------------------------------------------------------
#psi4
#
memory 32 gb

molecule  {
1 1
  N       -3.4197460    -0.1817000     0.1602720
  N       -0.6214370    -0.0078370    -0.1287630
  C       -2.7377630    -0.6049400    -1.1216890
  C       -2.6265040     0.8533270     0.9259500
  C       -1.3397990    -1.0900720    -0.7822260
  C       -1.2267490     0.3141230     1.1574790
  C        0.8292794    -0.1979665    -0.0358596
  C        1.6179690     0.9496740    -0.2359790
  C        1.3698700    -1.4337860     0.2499420
  C        3.0044760     0.7849240    -0.1342920
  C        1.0196790     2.2951990    -0.5492200
  C        2.7558540    -1.5738690     0.3292430
  C        3.5736970    -0.4590730     0.1432710
  H       -2.7010110     0.2771110    -1.7633110
  H       -3.3565410    -1.3799850    -1.5813290
  H       -3.1641810     1.0582560     1.8552750
  H       -2.5989570     1.7488760     0.3025170
  H       -1.4126900    -2.0099640    -0.1705650
  H       -0.8261290    -1.3544960    -1.7108330
  H       -0.6365290     1.0912410     1.6504410
  H       -1.2578930    -0.5558900     1.8421060
  H       -4.3648950     0.1725180    -0.0402120
  H       -3.5438220    -1.0118610     0.7575640
  H        0.7360800    -2.3037000     0.4086560
  H        3.6499200     1.6470780    -0.2894290
  H        0.2227830     2.2055990    -1.2916560
  H        0.5919240     2.7705950     0.3416580
  H        1.7859030     2.9697170    -0.9386560
  H        3.1912420    -2.5456860     0.5460090
  H        4.6540550    -0.5586080     0.2046590
units angstrom
no_reorient  #important for SAPT in psi4, default
symmetry c1  #important for SAPT in psi4, default
}

set PROPERTIES_ORIGIN ["COM"]
properties('MP2/aug-cc-pvtz', properties = ['dipole'])
--------------------------------------------------------------------------

    Molecular point group: c1
  Charge       = 1
  Multiplicity = 1
  Basis Set: AUG-CC-PVTZ
    Blend: AUG-CC-PVTZ
  Basis Set: (AUG-CC-PVTZ AUX)
    Blend: AUG-CC-PVTZ-JKFIT

    Orbital Energies [Eh]
    ---------------------

    Doubly Occupied:

       1A    -15.866101     2A    -15.702266     3A    -11.456256
       4A    -11.456189     5A    -11.416530     6A    -11.416386
       7A    -11.374867     8A    -11.344878     9A    -11.338847
      10A    -11.332186    11A    -11.330170    12A    -11.328804
      13A    -11.324349    14A     -1.496877    15A     -1.385975
      16A     -1.252345    17A     -1.221097    18A     -1.153846
      19A     -1.143739    20A     -1.089707    21A     -1.052444
      22A     -1.032718    23A     -0.994867    24A     -0.934655
      25A     -0.923571    26A     -0.904636    27A     -0.867053
      28A     -0.823098    29A     -0.809468    30A     -0.792689
      31A     -0.787007    32A     -0.753721    33A     -0.745292
      34A     -0.733885    35A     -0.715750    36A     -0.704399
      37A     -0.687022    38A     -0.675402    39A     -0.670098
      40A     -0.659016    41A     -0.653734    42A     -0.641346
      43A     -0.600942    44A     -0.590706    45A     -0.589392
      46A     -0.521551    47A     -0.436447    48A     -0.423654

  @DF-RHF Final Energy:  -535.30841981162212

   => Energetics <=

    Nuclear Repulsion Energy =            820.1954702290346404
    One-Electron Energy =               -2338.6958219124508105
    Two-Electron Energy =                 983.1919318717941678
    Total Energy =                       -535.3084198116221160
  Basis Set: (AUG-CC-PVTZ AUX)
    Blend: AUG-CC-PVTZ-RI
    Molecular point group: c1

    Geometry (in Angstrom), charge = 1, multiplicity = 1:

       Center              X                  Y                   Z               Mass
    ------------   -----------------  -----------------  -----------------  -----------------
         N           -3.471624537997    -0.168346455718     0.160698154702    14.003074004430
         N           -0.673315537997     0.005516544282    -0.128336845298    14.003074004430
         C           -2.789641537997    -0.591586455718    -1.121262845298    12.000000000000
         C           -2.678382537997     0.866680544282     0.926376154702    12.000000000000
         C           -1.391677537997    -1.076718455718    -0.781799845298    12.000000000000
         C           -1.278627537997     0.327476544282     1.157905154702    12.000000000000
         C            0.777400862003    -0.184612955718    -0.035433445298    12.000000000000
         C            1.566090462003     0.963027544282    -0.235552845298    12.000000000000
         C            1.317991462003    -1.420432455718     0.250368154702    12.000000000000
         C            2.952597462003     0.798277544282    -0.133865845298    12.000000000000
         C            0.967800462003     2.308552544282    -0.548793845298    12.000000000000
         C            2.703975462003    -1.560515455718     0.329669154702    12.000000000000
         C            3.521818462003    -0.445719455718     0.143697154702    12.000000000000
         H           -2.752889537997     0.290464544282    -1.762884845298     1.007825032230
         H           -3.408419537997    -1.366631455718    -1.580902845298     1.007825032230
         H           -3.216059537997     1.071609544282     1.855701154702     1.007825032230
         H           -2.650835537997     1.762229544282     0.302943154702     1.007825032230
         H           -1.464568537997    -1.996610455718    -0.170138845298     1.007825032230
         H           -0.878007537997    -1.341142455718    -1.710406845298     1.007825032230
         H           -0.688407537997     1.104594544282     1.650867154702     1.007825032230
         H           -1.309771537997    -0.542536455718     1.842532154702     1.007825032230
         H           -4.416773537997     0.185871544282    -0.039785845298     1.007825032230
         H           -3.595700537997    -0.998507455718     0.757990154702     1.007825032230
         H            0.684201462003    -2.290346455718     0.409082154702     1.007825032230
         H            3.598041462003     1.660431544282    -0.289002845298     1.007825032230
         H            0.170904462003     2.218952544282    -1.291229845298     1.007825032230
         H            0.540045462003     2.783948544282     0.342084154702     1.007825032230
         H            1.734024462003     2.983070544282    -0.938229845298     1.007825032230
         H            3.139363462003    -2.532332455718     0.546435154702     1.007825032230
         H            4.602176462003    -0.545254455718     0.205085154702     1.007825032230

  Basis Set: AUG-CC-PVTZ
    Blend: AUG-CC-PVTZ
  Basis Set: (AUG-CC-PVTZ AUX)
    Blend: AUG-CC-PVTZ-JKFIT
	 Reference Energy          =    -535.3084198116221160 [Eh]
	 Singles Energy            =      -0.0000000000000000 [Eh]
	 Same-Spin Energy          =      -0.5851498237865012 [Eh]
	 Opposite-Spin Energy      =      -1.9170200309909147 [Eh]
	 Correlation Energy        =      -2.5021698547774158 [Eh]
	 Total Energy              =    -537.8105896663995509 [Eh]

	 ================> DF-SCS-MP2 Energies <==================
	-----------------------------------------------------------
	 SCS Same-Spin Scale       =       0.3333333333333333 [-]
	 SCS Opposite-Spin Scale   =       1.2000000000000000 [-]
	 SCS Same-Spin Energy      =      -0.1950499412621670 [Eh]
	 SCS Opposite-Spin Energy  =      -2.3004240371890976 [Eh]
	 SCS Correlation Energy    =      -2.4954739784512645 [Eh]
	 SCS Total Energy          =    -537.8038937900734027 [Eh]
	-----------------------------------------------------------

  Dipole Moment: [D]
     X:   -12.0386      Y:    -0.6813      Z:     0.7320     Total:    12.0801

*** Psi4 exiting successfully. Buy a developer a beer!
