                               Psi4 1.4a3.dev225

  ==> Input File <==

--------------------------------------------------------------------------
#psi4
#
memory 32 gb

molecule  {
1 1
  N       -3.4197460    -0.1817000     0.1602720
  N       -0.6214370    -0.0078370    -0.1287630
  C       -2.7377630    -0.6049400    -1.1216890
  C       -2.6265040     0.8533270     0.9259500
  C       -1.3397990    -1.0900720    -0.7822260
  C       -1.2267490     0.3141230     1.1574790
  C        0.8091060    -0.1845140    -0.0397240
  C        1.6179690     0.9496740    -0.2359790
  C        1.3698700    -1.4337860     0.2499420
  C        3.0044760     0.7849240    -0.1342920
  C        1.0196790     2.2951990    -0.5492200
  C        2.7558540    -1.5738690     0.3292430
  C        3.5736970    -0.4590730     0.1432710
  H       -2.7010110     0.2771110    -1.7633110
  H       -3.3565410    -1.3799850    -1.5813290
  H       -3.1641810     1.0582560     1.8552750
  H       -2.5989570     1.7488760     0.3025170
  H       -1.4126900    -2.0099640    -0.1705650
  H       -0.8261290    -1.3544960    -1.7108330
  H       -0.6365290     1.0912410     1.6504410
  H       -1.2578930    -0.5558900     1.8421060
  H       -4.3648950     0.1725180    -0.0402120
  H       -3.5438220    -1.0118610     0.7575640
  H        0.7360800    -2.3037000     0.4086560
  H        3.6499200     1.6470780    -0.2894290
  H        0.2227830     2.2055990    -1.2916560
  H        0.5919240     2.7705950     0.3416580
  H        1.7859030     2.9697170    -0.9386560
  H        3.1912420    -2.5456860     0.5460090
  H        4.4552165    -0.5402887     0.1933606
units angstrom
no_reorient  #important for SAPT in psi4, default
symmetry c1  #important for SAPT in psi4, default
}

set PROPERTIES_ORIGIN ["COM"]
properties('MP2/aug-cc-pvtz', properties = ['dipole'])
--------------------------------------------------------------------------

    Molecular point group: c1
  Charge       = 1
  Multiplicity = 1
  Basis Set: AUG-CC-PVTZ
    Blend: AUG-CC-PVTZ
  Basis Set: (AUG-CC-PVTZ AUX)
    Blend: AUG-CC-PVTZ-JKFIT

    Orbital Energies [Eh]
    ---------------------

    Doubly Occupied:

       1A    -15.866555     2A    -15.702935     3A    -11.456720
       4A    -11.456695     5A    -11.417423     6A    -11.417184
       7A    -11.375108     8A    -11.343622     9A    -11.339414
      10A    -11.330843    11A    -11.328680    12A    -11.323177
      13A    -11.306046    14A     -1.497457    15A     -1.390128
      16A     -1.250915    17A     -1.221769    18A     -1.159245
      19A     -1.142155    20A     -1.094908    21A     -1.053392
      22A     -1.031788    23A     -0.998465    24A     -0.939383
      25A     -0.928115    26A     -0.909764    27A     -0.870822
      28A     -0.823644    29A     -0.810422    30A     -0.795254
      31A     -0.788477    32A     -0.780307    33A     -0.744712
      34A     -0.734589    35A     -0.714919    36A     -0.704683
      37A     -0.688152    38A     -0.675570    39A     -0.672494
      40A     -0.660022    41A     -0.659231    42A     -0.641894
      43A     -0.604773    44A     -0.595302    45A     -0.587513
      46A     -0.521471    47A     -0.433193    48A     -0.423151

  @DF-RHF Final Energy:  -535.27398071840639

   => Energetics <=

    Nuclear Repulsion Energy =            821.5174901417631190
    One-Electron Energy =               -2341.1579763350418943
    Two-Electron Energy =                 984.3665054748723833
    Total Energy =                       -535.2739807184063920
  Basis Set: (AUG-CC-PVTZ AUX)
    Blend: AUG-CC-PVTZ-RI
    Molecular point group: c1

    Geometry (in Angstrom), charge = 1, multiplicity = 1:

       Center              X                  Y                   Z               Mass
    ------------   -----------------  -----------------  -----------------  -----------------
         N           -3.469126642084    -0.169361999855     0.161024223799    14.003074004430
         N           -0.670817642084     0.004501000145    -0.128010776201    14.003074004430
         C           -2.787143642084    -0.592601999855    -1.120936776201    12.000000000000
         C           -2.675884642084     0.865665000145     0.926702223799    12.000000000000
         C           -1.389179642084    -1.077733999855    -0.781473776201    12.000000000000
         C           -1.276129642084     0.326461000145     1.158231223799    12.000000000000
         C            0.759725357916    -0.172175999855    -0.038971776201    12.000000000000
         C            1.568588357916     0.962012000145    -0.235226776201    12.000000000000
         C            1.320489357916    -1.421447999855     0.250694223799    12.000000000000
         C            2.955095357916     0.797262000145    -0.133539776201    12.000000000000
         C            0.970298357916     2.307537000145    -0.548467776201    12.000000000000
         C            2.706473357916    -1.561530999855     0.329995223799    12.000000000000
         C            3.524316357916    -0.446734999855     0.144023223799    12.000000000000
         H           -2.750391642084     0.289449000145    -1.762558776201     1.007825032230
         H           -3.405921642084    -1.367646999855    -1.580576776201     1.007825032230
         H           -3.213561642084     1.070594000145     1.856027223799     1.007825032230
         H           -2.648337642084     1.761214000145     0.303269223799     1.007825032230
         H           -1.462070642084    -1.997625999855    -0.169812776201     1.007825032230
         H           -0.875509642084    -1.342157999855    -1.710080776201     1.007825032230
         H           -0.685909642084     1.103579000145     1.651193223799     1.007825032230
         H           -1.307273642084    -0.543551999855     1.842858223799     1.007825032230
         H           -4.414275642084     0.184856000145    -0.039459776201     1.007825032230
         H           -3.593202642084    -0.999522999855     0.758316223799     1.007825032230
         H            0.686699357916    -2.291361999855     0.409408223799     1.007825032230
         H            3.600539357916     1.659416000145    -0.288676776201     1.007825032230
         H            0.173402357916     2.217937000145    -1.290903776201     1.007825032230
         H            0.542543357916     2.782933000145     0.342410223799     1.007825032230
         H            1.736522357916     2.982055000145    -0.937903776201     1.007825032230
         H            3.141861357916    -2.533347999855     0.546761223799     1.007825032230
         H            4.405835857916    -0.527950699855     0.194112823799     1.007825032230

  Basis Set: AUG-CC-PVTZ
    Blend: AUG-CC-PVTZ
  Basis Set: (AUG-CC-PVTZ AUX)
    Blend: AUG-CC-PVTZ-JKFIT
	 Reference Energy          =    -535.2739807184063920 [Eh]
	 Singles Energy            =      -0.0000000000000000 [Eh]
	 Same-Spin Energy          =      -0.5851128957706373 [Eh]
	 Opposite-Spin Energy      =      -1.9165499466523608 [Eh]
	 Correlation Energy        =      -2.5016628424229981 [Eh]
	 Total Energy              =    -537.7756435608293941 [Eh]

	 ================> DF-SCS-MP2 Energies <==================
	-----------------------------------------------------------
	 SCS Same-Spin Scale       =       0.3333333333333333 [-]
	 SCS Opposite-Spin Scale   =       1.2000000000000000 [-]
	 SCS Same-Spin Energy      =      -0.1950376319235458 [Eh]
	 SCS Opposite-Spin Energy  =      -2.2998599359828327 [Eh]
	 SCS Correlation Energy    =      -2.4948975679063783 [Eh]
	 SCS Total Energy          =    -537.7688782863127699 [Eh]
	-----------------------------------------------------------

  Dipole Moment: [D]
     X:   -12.1009      Y:    -0.6888      Z:     0.7339     Total:    12.1427

*** Psi4 exiting successfully. Buy a developer a beer!
