                               Psi4 1.4a3.dev225

  ==> Input File <==

--------------------------------------------------------------------------
#psi4
#
memory 32 gb

molecule  {
1 1
  N       -3.4197460    -0.1817000     0.1602720
  N       -0.6214370    -0.0078370    -0.1287630
  C       -2.7377630    -0.6049400    -1.1216890
  C       -2.6265040     0.8533270     0.9259500
  C       -1.3397990    -1.0900720    -0.7822260
  C       -1.2267490     0.3141230     1.1574790
  C        0.8091060    -0.1845140    -0.0397240
  C        1.6179690     0.9496740    -0.2359790
  C        1.3698700    -1.4337860     0.2499420
  C        3.0044760     0.7849240    -0.1342920
  C        1.0196790     2.2951990    -0.5492200
  C        2.7558540    -1.5738690     0.3292430
  C        3.5736970    -0.4590730     0.1432710
  H       -2.7010110     0.2771110    -1.7633110
  H       -3.3565410    -1.3799850    -1.5813290
  H       -3.1641810     1.0582560     1.8552750
  H       -2.5989570     1.7488760     0.3025170
  H       -1.4126900    -2.0099640    -0.1705650
  H       -0.8261290    -1.3544960    -1.7108330
  H       -0.6365290     1.0912410     1.6504410
  H       -1.2578930    -0.5558900     1.8421060
  H       -4.3648950     0.1725180    -0.0402120
  H       -3.5438220    -1.0118610     0.7575640
  H        0.7360800    -2.3037000     0.4086560
  H        3.6499200     1.6470780    -0.2894290
  H        0.0769425     2.1892012    -1.4275297
  H        0.5919240     2.7705950     0.3416580
  H        1.7859030     2.9697170    -0.9386560
  H        3.1912420    -2.5456860     0.5460090
  H        4.6540550    -0.5586080     0.2046590
units angstrom
no_reorient  #important for SAPT in psi4, default
symmetry c1  #important for SAPT in psi4, default
}

set PROPERTIES_ORIGIN ["COM"]
properties('MP2/aug-cc-pvtz', properties = ['dipole'])
--------------------------------------------------------------------------

    Molecular point group: c1
  Charge       = 1
  Multiplicity = 1
  Basis Set: AUG-CC-PVTZ
    Blend: AUG-CC-PVTZ
  Basis Set: (AUG-CC-PVTZ AUX)
    Blend: AUG-CC-PVTZ-JKFIT

    Orbital Energies [Eh]
    ---------------------

    Doubly Occupied:

       1A    -15.866326     2A    -15.702471     3A    -11.456490
       4A    -11.456380     5A    -11.417294     6A    -11.417202
       7A    -11.376197     8A    -11.346679     9A    -11.345924
      10A    -11.340939    11A    -11.332953    12A    -11.331598
      13A    -11.329851    14A     -1.497218    15A     -1.390016
      16A     -1.250764    17A     -1.221551    18A     -1.155318
      19A     -1.141539    20A     -1.088131    21A     -1.053251
      22A     -1.023978    23A     -0.995376    24A     -0.935706
      25A     -0.924420    26A     -0.901676    27A     -0.867196
      28A     -0.823359    29A     -0.809614    30A     -0.793653
      31A     -0.788235    32A     -0.755686    33A     -0.743852
      34A     -0.733657    35A     -0.715224    36A     -0.703449
      37A     -0.687584    38A     -0.674489    39A     -0.665752
      40A     -0.660013    41A     -0.653546    42A     -0.624256
      43A     -0.601582    44A     -0.591298    45A     -0.580032
      46A     -0.519725    47A     -0.434288    48A     -0.424068

  @DF-RHF Final Energy:  -535.28831942146894

   => Energetics <=

    Nuclear Repulsion Energy =            819.6045662964559142
    One-Electron Energy =               -2337.4861596719724730
    Two-Electron Energy =                 982.5932739540476177
    Total Energy =                       -535.2883194214689411
  Basis Set: (AUG-CC-PVTZ AUX)
    Blend: AUG-CC-PVTZ-RI
    Molecular point group: c1

    Geometry (in Angstrom), charge = 1, multiplicity = 1:

       Center              X                  Y                   Z               Mass
    ------------   -----------------  -----------------  -----------------  -----------------
         N           -3.469428171723    -0.169164478540     0.161732989134    14.003074004430
         N           -0.671119171723     0.004698521460    -0.127302010866    14.003074004430
         C           -2.787445171723    -0.592404478540    -1.120228010866    12.000000000000
         C           -2.676186171723     0.865862521460     0.927410989134    12.000000000000
         C           -1.389481171723    -1.077536478540    -0.780765010866    12.000000000000
         C           -1.276431171723     0.326658521460     1.158939989134    12.000000000000
         C            0.759423828277    -0.171978478540    -0.038263010866    12.000000000000
         C            1.568286828277     0.962209521460    -0.234518010866    12.000000000000
         C            1.320187828277    -1.421250478540     0.251402989134    12.000000000000
         C            2.954793828277     0.797459521460    -0.132831010866    12.000000000000
         C            0.969996828277     2.307734521460    -0.547759010866    12.000000000000
         C            2.706171828277    -1.561333478540     0.330703989134    12.000000000000
         C            3.524014828277    -0.446537478540     0.144731989134    12.000000000000
         H           -2.750693171723     0.289646521460    -1.761850010866     1.007825032230
         H           -3.406223171723    -1.367449478540    -1.579868010866     1.007825032230
         H           -3.213863171723     1.070791521460     1.856735989134     1.007825032230
         H           -2.648639171723     1.761411521460     0.303977989134     1.007825032230
         H           -1.462372171723    -1.997428478540    -0.169104010866     1.007825032230
         H           -0.875811171723    -1.341960478540    -1.709372010866     1.007825032230
         H           -0.686211171723     1.103776521460     1.651901989134     1.007825032230
         H           -1.307575171723    -0.543354478540     1.843566989134     1.007825032230
         H           -4.414577171723     0.185053521460    -0.038751010866     1.007825032230
         H           -3.593504171723    -0.999325478540     0.759024989134     1.007825032230
         H            0.686397828277    -2.291164478540     0.410116989134     1.007825032230
         H            3.600237828277     1.659613521460    -0.287968010866     1.007825032230
         H            0.027260328277     2.201736721460    -1.426068710866     1.007825032230
         H            0.542241828277     2.783130521460     0.343118989134     1.007825032230
         H            1.736220828277     2.982252521460    -0.937195010866     1.007825032230
         H            3.141559828277    -2.533150478540     0.547469989134     1.007825032230
         H            4.604372828277    -0.546072478540     0.206119989134     1.007825032230

  Basis Set: AUG-CC-PVTZ
    Blend: AUG-CC-PVTZ
  Basis Set: (AUG-CC-PVTZ AUX)
    Blend: AUG-CC-PVTZ-JKFIT
	 Reference Energy          =    -535.2883194214689411 [Eh]
	 Singles Energy            =      -0.0000000000000000 [Eh]
	 Same-Spin Energy          =      -0.5855467858486115 [Eh]
	 Opposite-Spin Energy      =      -1.9189434616952818 [Eh]
	 Correlation Energy        =      -2.5044902475438935 [Eh]
	 Total Energy              =    -537.7928096690128541 [Eh]

	 ================> DF-SCS-MP2 Energies <==================
	-----------------------------------------------------------
	 SCS Same-Spin Scale       =       0.3333333333333333 [-]
	 SCS Opposite-Spin Scale   =       1.2000000000000000 [-]
	 SCS Same-Spin Energy      =      -0.1951822619495372 [Eh]
	 SCS Opposite-Spin Energy  =      -2.3027321540343380 [Eh]
	 SCS Correlation Energy    =      -2.4979144159838751 [Eh]
	 SCS Total Energy          =    -537.7862338374528690 [Eh]
	-----------------------------------------------------------

  Dipole Moment: [D]
     X:   -12.0053      Y:    -0.7363      Z:     0.8112     Total:    12.0552

*** Psi4 exiting successfully. Buy a developer a beer!
