                               Psi4 1.4a3.dev225

  ==> Input File <==

--------------------------------------------------------------------------
#psi4
#
memory 32 gb

molecule  {
1 1
  N       -3.4197460    -0.1817000     0.1602720
  N       -0.6214370    -0.0078370    -0.1287630
  C       -2.7377630    -0.6049400    -1.1216890
  C       -2.6265040     0.8533270     0.9259500
  C       -1.4386068    -1.2389290    -0.8721072
  C       -1.2267490     0.3141230     1.1574790
  C        0.8091060    -0.1845140    -0.0397240
  C        1.6179690     0.9496740    -0.2359790
  C        1.3698700    -1.4337860     0.2499420
  C        3.0044760     0.7849240    -0.1342920
  C        1.0196790     2.2951990    -0.5492200
  C        2.7558540    -1.5738690     0.3292430
  C        3.5736970    -0.4590730     0.1432710
  H       -2.7010110     0.2771110    -1.7633110
  H       -3.3565410    -1.3799850    -1.5813290
  H       -3.1641810     1.0582560     1.8552750
  H       -2.5989570     1.7488760     0.3025170
  H       -1.4126900    -2.0099640    -0.1705650
  H       -0.8261290    -1.3544960    -1.7108330
  H       -0.6365290     1.0912410     1.6504410
  H       -1.2578930    -0.5558900     1.8421060
  H       -4.3648950     0.1725180    -0.0402120
  H       -3.5438220    -1.0118610     0.7575640
  H        0.7360800    -2.3037000     0.4086560
  H        3.6499200     1.6470780    -0.2894290
  H        0.2227830     2.2055990    -1.2916560
  H        0.5919240     2.7705950     0.3416580
  H        1.7859030     2.9697170    -0.9386560
  H        3.1912420    -2.5456860     0.5460090
  H        4.6540550    -0.5586080     0.2046590
units angstrom
no_reorient  #important for SAPT in psi4, default
symmetry c1  #important for SAPT in psi4, default
}

set PROPERTIES_ORIGIN ["COM"]
properties('MP2/aug-cc-pvtz', properties = ['dipole'])
--------------------------------------------------------------------------

    Molecular point group: c1
  Charge       = 1
  Multiplicity = 1
  Basis Set: AUG-CC-PVTZ
    Blend: AUG-CC-PVTZ
  Basis Set: (AUG-CC-PVTZ AUX)
    Blend: AUG-CC-PVTZ-JKFIT

    Orbital Energies [Eh]
    ---------------------

    Doubly Occupied:

       1A    -15.870957     2A    -15.699233     3A    -11.461173
       4A    -11.455759     5A    -11.420162     6A    -11.413817
       7A    -11.371844     8A    -11.341211     9A    -11.337421
      10A    -11.329805    11A    -11.327697    12A    -11.326032
      13A    -11.320934    14A     -1.499278    15A     -1.359512
      16A     -1.245416    17A     -1.231257    18A     -1.156706
      19A     -1.140636    20A     -1.084270    21A     -1.050440
      22A     -1.029271    23A     -0.998291    24A     -0.938721
      25A     -0.922530    26A     -0.899026    27A     -0.869232
      28A     -0.833267    29A     -0.805700    30A     -0.792948
      31A     -0.774951    32A     -0.750636    33A     -0.745737
      34A     -0.736611    35A     -0.727641    36A     -0.706491
      37A     -0.693601    38A     -0.679731    39A     -0.669925
      40A     -0.662274    41A     -0.638339    42A     -0.631799
      43A     -0.595826    44A     -0.587872    45A     -0.579350
      46A     -0.513652    47A     -0.430776    48A     -0.419926

  @DF-RHF Final Energy:  -535.27839018880616

   => Energetics <=

    Nuclear Repulsion Energy =            816.6519894962232229
    One-Electron Energy =               -2331.7053954370885549
    Two-Electron Energy =                 979.7750157520591756
    Total Energy =                       -535.2783901888061564
  Basis Set: (AUG-CC-PVTZ AUX)
    Blend: AUG-CC-PVTZ-RI
    Molecular point group: c1

    Geometry (in Angstrom), charge = 1, multiplicity = 1:

       Center              X                  Y                   Z               Mass
    ------------   -----------------  -----------------  -----------------  -----------------
         N           -3.463564353616    -0.159173702072     0.167048795147    14.003074004430
         N           -0.665255353616     0.014689297928    -0.121986204853    14.003074004430
         C           -2.781581353616    -0.582413702072    -1.114912204853    12.000000000000
         C           -2.670322353616     0.875853297928     0.932726795147    12.000000000000
         C           -1.482425153616    -1.216402702072    -0.865330404853    12.000000000000
         C           -1.270567353616     0.336649297928     1.164255795147    12.000000000000
         C            0.765287646384    -0.161987702072    -0.032947204853    12.000000000000
         C            1.574150646384     0.972200297928    -0.229202204853    12.000000000000
         C            1.326051646384    -1.411259702072     0.256718795147    12.000000000000
         C            2.960657646384     0.807450297928    -0.127515204853    12.000000000000
         C            0.975860646384     2.317725297928    -0.542443204853    12.000000000000
         C            2.712035646384    -1.551342702072     0.336019795147    12.000000000000
         C            3.529878646384    -0.436546702072     0.150047795147    12.000000000000
         H           -2.744829353616     0.299637297928    -1.756534204853     1.007825032230
         H           -3.400359353616    -1.357458702072    -1.574552204853     1.007825032230
         H           -3.207999353616     1.080782297928     1.862051795147     1.007825032230
         H           -2.642775353616     1.771402297928     0.309293795147     1.007825032230
         H           -1.456508353616    -1.987437702072    -0.163788204853     1.007825032230
         H           -0.869947353616    -1.331969702072    -1.704056204853     1.007825032230
         H           -0.680347353616     1.113767297928     1.657217795147     1.007825032230
         H           -1.301711353616    -0.533363702072     1.848882795147     1.007825032230
         H           -4.408713353616     0.195044297928    -0.033435204853     1.007825032230
         H           -3.587640353616    -0.989334702072     0.764340795147     1.007825032230
         H            0.692261646384    -2.281173702072     0.415432795147     1.007825032230
         H            3.606101646384     1.669604297928    -0.282652204853     1.007825032230
         H            0.178964646384     2.228125297928    -1.284879204853     1.007825032230
         H            0.548105646384     2.793121297928     0.348434795147     1.007825032230
         H            1.742084646384     2.992243297928    -0.931879204853     1.007825032230
         H            3.147423646384    -2.523159702072     0.552785795147     1.007825032230
         H            4.610236646384    -0.536081702072     0.211435795147     1.007825032230

  Basis Set: AUG-CC-PVTZ
    Blend: AUG-CC-PVTZ
  Basis Set: (AUG-CC-PVTZ AUX)
    Blend: AUG-CC-PVTZ-JKFIT
	 Reference Energy          =    -535.2783901888061564 [Eh]
	 Singles Energy            =      -0.0000000000000000 [Eh]
	 Same-Spin Energy          =      -0.5860068231610283 [Eh]
	 Opposite-Spin Energy      =      -1.9201601956089271 [Eh]
	 Correlation Energy        =      -2.5061670187699554 [Eh]
	 Total Energy              =    -537.7845572075760856 [Eh]

	 ================> DF-SCS-MP2 Energies <==================
	-----------------------------------------------------------
	 SCS Same-Spin Scale       =       0.3333333333333333 [-]
	 SCS Opposite-Spin Scale   =       1.2000000000000000 [-]
	 SCS Same-Spin Energy      =      -0.1953356077203428 [Eh]
	 SCS Opposite-Spin Energy  =      -2.3041922347307127 [Eh]
	 SCS Correlation Energy    =      -2.4995278424510552 [Eh]
	 SCS Total Energy          =    -537.7779180312571725 [Eh]
	-----------------------------------------------------------

  Dipole Moment: [D]
     X:   -12.3597      Y:    -0.8778      Z:     0.6686     Total:    12.4089

*** Psi4 exiting successfully. Buy a developer a beer!
