                               Psi4 1.4a3.dev225

  ==> Input File <==

--------------------------------------------------------------------------
#psi4
#
memory 32 gb

molecule  {
1 1
  N       -3.4197460    -0.1817000     0.1602720
  N       -0.6214370    -0.0078370    -0.1287630
  C       -2.7377630    -0.6049400    -1.1216890
  C       -2.6265040     0.8533270     0.9259500
  C       -1.3397990    -1.0900720    -0.7822260
  C       -1.2267490     0.3141230     1.1574790
  C        0.8091060    -0.1845140    -0.0397240
  C        1.6179690     0.9496740    -0.2359790
  C        1.3698700    -1.4337860     0.2499420
  C        3.0044760     0.7849240    -0.1342920
  C        1.0196790     2.2951990    -0.5492200
  C        2.7558540    -1.5738690     0.3292430
  C        3.5736970    -0.4590730     0.1432710
  H       -2.7010110     0.2771110    -1.7633110
  H       -3.3565410    -1.3799850    -1.5813290
  H       -3.1641810     1.0582560     1.8552750
  H       -2.5989570     1.7488760     0.3025170
  H       -1.4126900    -2.0099640    -0.1705650
  H       -0.8261290    -1.3544960    -1.7108330
  H       -0.6365290     1.0912410     1.6504410
  H       -1.2578930    -0.5558900     1.8421060
  H       -4.3648950     0.1725180    -0.0402120
  H       -3.5438220    -1.0118610     0.7575640
  H        0.7360800    -2.3037000     0.4086560
  H        3.6499200     1.6470780    -0.2894290
  H        0.2227830     2.2055990    -1.2916560
  H        0.5919240     2.7705950     0.3416580
  H        1.7859030     2.9697170    -0.9386560
  H        3.2112741    -2.5903990     0.5559823
  H        4.6540550    -0.5586080     0.2046590
units angstrom
no_reorient  #important for SAPT in psi4, default
symmetry c1  #important for SAPT in psi4, default
}

set PROPERTIES_ORIGIN ["COM"]
properties('MP2/aug-cc-pvtz', properties = ['dipole'])
--------------------------------------------------------------------------

    Molecular point group: c1
  Charge       = 1
  Multiplicity = 1
  Basis Set: AUG-CC-PVTZ
    Blend: AUG-CC-PVTZ
  Basis Set: (AUG-CC-PVTZ AUX)
    Blend: AUG-CC-PVTZ-JKFIT

    Orbital Energies [Eh]
    ---------------------

    Doubly Occupied:

       1A    -15.866707     2A    -15.703237     3A    -11.456891
       4A    -11.456862     5A    -11.417640     6A    -11.417374
       7A    -11.375445     8A    -11.344516     9A    -11.340646
      10A    -11.337186    11A    -11.330272    12A    -11.329031
      13A    -11.323683    14A     -1.497619    15A     -1.390409
      16A     -1.249950    17A     -1.221951    18A     -1.155266
      19A     -1.142390    20A     -1.088333    21A     -1.053574
      22A     -1.030906    23A     -0.996038    24A     -0.935511
      25A     -0.924384    26A     -0.901901    27A     -0.866872
      28A     -0.823802    29A     -0.807781    30A     -0.793345
      31A     -0.788370    32A     -0.755051    33A     -0.744831
      34A     -0.734638    35A     -0.713873    36A     -0.703142
      37A     -0.687662    38A     -0.675041    39A     -0.666416
      40A     -0.659741    41A     -0.655073    42A     -0.640663
      43A     -0.597874    44A     -0.591958    45A     -0.587975
      46A     -0.521566    47A     -0.433799    48A     -0.423659

  @DF-RHF Final Energy:  -535.30639954377807

   => Energetics <=

    Nuclear Repulsion Energy =            820.0296709536792150
    One-Electron Energy =               -2338.3504386581726067
    Two-Electron Energy =                 983.0143681607153212
    Total Energy =                       -535.3063995437780704
  Basis Set: (AUG-CC-PVTZ AUX)
    Blend: AUG-CC-PVTZ-RI
    Molecular point group: c1

    Geometry (in Angstrom), charge = 1, multiplicity = 1:

       Center              X                  Y                   Z               Mass
    ------------   -----------------  -----------------  -----------------  -----------------
         N           -3.470371896113    -0.169003380536     0.160903199458    14.003074004430
         N           -0.672062896113     0.004859619464    -0.128131800542    14.003074004430
         C           -2.788388896113    -0.592243380536    -1.121057800542    12.000000000000
         C           -2.677129896113     0.866023619464     0.926581199458    12.000000000000
         C           -1.390424896113    -1.077375380536    -0.781594800542    12.000000000000
         C           -1.277374896113     0.326819619464     1.158110199458    12.000000000000
         C            0.758480103887    -0.171817380536    -0.039092800542    12.000000000000
         C            1.567343103887     0.962370619464    -0.235347800542    12.000000000000
         C            1.319244103887    -1.421089380536     0.250573199458    12.000000000000
         C            2.953850103887     0.797620619464    -0.133660800542    12.000000000000
         C            0.969053103887     2.307895619464    -0.548588800542    12.000000000000
         C            2.705228103887    -1.561172380536     0.329874199458    12.000000000000
         C            3.523071103887    -0.446376380536     0.143902199458    12.000000000000
         H           -2.751636896113     0.289807619464    -1.762679800542     1.007825032230
         H           -3.407166896113    -1.367288380536    -1.580697800542     1.007825032230
         H           -3.214806896113     1.070952619464     1.855906199458     1.007825032230
         H           -2.649582896113     1.761572619464     0.303148199458     1.007825032230
         H           -1.463315896113    -1.997267380536    -0.169933800542     1.007825032230
         H           -0.876754896113    -1.341799380536    -1.710201800542     1.007825032230
         H           -0.687154896113     1.103937619464     1.651072199458     1.007825032230
         H           -1.308518896113    -0.543193380536     1.842737199458     1.007825032230
         H           -4.415520896113     0.185214619464    -0.039580800542     1.007825032230
         H           -3.594447896113    -0.999164380536     0.758195199458     1.007825032230
         H            0.685454103887    -2.291003380536     0.409287199458     1.007825032230
         H            3.599294103887     1.659774619464    -0.288797800542     1.007825032230
         H            0.172157103887     2.218295619464    -1.291024800542     1.007825032230
         H            0.541298103887     2.783291619464     0.342289199458     1.007825032230
         H            1.735277103887     2.982413619464    -0.938024800542     1.007825032230
         H            3.160648203887    -2.577702380536     0.556613499458     1.007825032230
         H            4.603429103887    -0.545911380536     0.205290199458     1.007825032230

  Basis Set: AUG-CC-PVTZ
    Blend: AUG-CC-PVTZ
  Basis Set: (AUG-CC-PVTZ AUX)
    Blend: AUG-CC-PVTZ-JKFIT
	 Reference Energy          =    -535.3063995437780704 [Eh]
	 Singles Energy            =      -0.0000000000000000 [Eh]
	 Same-Spin Energy          =      -0.5854017258989700 [Eh]
	 Opposite-Spin Energy      =      -1.9175850495727123 [Eh]
	 Correlation Energy        =      -2.5029867754716824 [Eh]
	 Total Energy              =    -537.8093863192497111 [Eh]

	 ================> DF-SCS-MP2 Energies <==================
	-----------------------------------------------------------
	 SCS Same-Spin Scale       =       0.3333333333333333 [-]
	 SCS Opposite-Spin Scale   =       1.2000000000000000 [-]
	 SCS Same-Spin Energy      =      -0.1951339086329900 [Eh]
	 SCS Opposite-Spin Energy  =      -2.3011020594872544 [Eh]
	 SCS Correlation Energy    =      -2.4962359681202444 [Eh]
	 SCS Total Energy          =    -537.8026355118983020 [Eh]
	-----------------------------------------------------------

  Dipole Moment: [D]
     X:   -12.1136      Y:    -0.6751      Z:     0.7304     Total:    12.1544

*** Psi4 exiting successfully. Buy a developer a beer!
