                               Psi4 1.4a3.dev225

  ==> Input File <==

--------------------------------------------------------------------------
#psi4
#
memory 32 gb

molecule  {
1 1
  N       -3.4197460    -0.1817000     0.1602720
  N       -0.6214370    -0.0078370    -0.1287630
  C       -2.7377630    -0.6049400    -1.1216890
  C       -2.6265040     0.8533270     0.9259500
  C       -1.3397990    -1.0900720    -0.7822260
  C       -1.2267490     0.3141230     1.1574790
  C        0.8091060    -0.1845140    -0.0397240
  C        1.6179690     0.9496740    -0.2359790
  C        1.3698700    -1.4337860     0.2499420
  C        3.0044760     0.7849240    -0.1342920
  C        1.0196790     2.2951990    -0.5492200
  C        2.7558540    -1.5738690     0.3292430
  C        3.5736970    -0.4590730     0.1432710
  H       -2.7010110     0.2771110    -1.7633110
  H       -3.3565410    -1.3799850    -1.5813290
  H       -3.1543428     1.0545063     1.8382706
  H       -2.5989570     1.7488760     0.3025170
  H       -1.4126900    -2.0099640    -0.1705650
  H       -0.8261290    -1.3544960    -1.7108330
  H       -0.6365290     1.0912410     1.6504410
  H       -1.2578930    -0.5558900     1.8421060
  H       -4.3648950     0.1725180    -0.0402120
  H       -3.5438220    -1.0118610     0.7575640
  H        0.7360800    -2.3037000     0.4086560
  H        3.6499200     1.6470780    -0.2894290
  H        0.2227830     2.2055990    -1.2916560
  H        0.5919240     2.7705950     0.3416580
  H        1.7859030     2.9697170    -0.9386560
  H        3.1912420    -2.5456860     0.5460090
  H        4.6540550    -0.5586080     0.2046590
units angstrom
no_reorient  #important for SAPT in psi4, default
symmetry c1  #important for SAPT in psi4, default
}

set PROPERTIES_ORIGIN ["COM"]
properties('MP2/aug-cc-pvtz', properties = ['dipole'])
--------------------------------------------------------------------------

    Molecular point group: c1
  Charge       = 1
  Multiplicity = 1
  Basis Set: AUG-CC-PVTZ
    Blend: AUG-CC-PVTZ
  Basis Set: (AUG-CC-PVTZ AUX)
    Blend: AUG-CC-PVTZ-JKFIT

    Orbital Energies [Eh]
    ---------------------

    Doubly Occupied:

       1A    -15.866571     2A    -15.702994     3A    -11.456785
       4A    -11.454654     5A    -11.417520     6A    -11.417213
       7A    -11.375135     8A    -11.344366     9A    -11.340163
      10A    -11.331791    11A    -11.329869    12A    -11.328596
      13A    -11.323565    14A     -1.497613    15A     -1.390210
      16A     -1.249903    17A     -1.222608    18A     -1.155821
      19A     -1.142679    20A     -1.088411    21A     -1.054149
      22A     -1.032042    23A     -0.996140    24A     -0.935496
      25A     -0.924717    26A     -0.903528    27A     -0.868536
      28A     -0.823723    29A     -0.810264    30A     -0.794459
      31A     -0.788613    32A     -0.754960    33A     -0.745740
      34A     -0.735101    35A     -0.714580    36A     -0.704793
      37A     -0.687927    38A     -0.675185    39A     -0.669567
      40A     -0.660221    41A     -0.655753    42A     -0.640509
      43A     -0.599925    44A     -0.591676    45A     -0.588066
      46A     -0.521611    47A     -0.433536    48A     -0.423470

  @DF-RHF Final Energy:  -535.30898241411592

   => Energetics <=

    Nuclear Repulsion Energy =            820.4039386433515801
    One-Electron Energy =               -2339.0843351952621560
    Two-Electron Energy =                 983.3714141377947726
    Total Energy =                       -535.3089824141159170
  Basis Set: (AUG-CC-PVTZ AUX)
    Blend: AUG-CC-PVTZ-RI
    Molecular point group: c1

    Geometry (in Angstrom), charge = 1, multiplicity = 1:

       Center              X                  Y                   Z               Mass
    ------------   -----------------  -----------------  -----------------  -----------------
         N           -3.470313898396    -0.169236439313     0.161056687818    14.003074004430
         N           -0.672004898396     0.004626560687    -0.127978312182    14.003074004430
         C           -2.788330898396    -0.592476439313    -1.120904312182    12.000000000000
         C           -2.677071898396     0.865790560687     0.926734687818    12.000000000000
         C           -1.390366898396    -1.077608439313    -0.781441312182    12.000000000000
         C           -1.277316898396     0.326586560687     1.158263687818    12.000000000000
         C            0.758538101604    -0.172050439313    -0.038939312182    12.000000000000
         C            1.567401101604     0.962137560687    -0.235194312182    12.000000000000
         C            1.319302101604    -1.421322439313     0.250726687818    12.000000000000
         C            2.953908101604     0.797387560687    -0.133507312182    12.000000000000
         C            0.969111101604     2.307662560687    -0.548435312182    12.000000000000
         C            2.705286101604    -1.561405439313     0.330027687818    12.000000000000
         C            3.523129101604    -0.446609439313     0.144055687818    12.000000000000
         H           -2.751578898396     0.289574560687    -1.762526312182     1.007825032230
         H           -3.407108898396    -1.367521439313    -1.580544312182     1.007825032230
         H           -3.204910698396     1.066969860687     1.839055287818     1.007825032230
         H           -2.649524898396     1.761339560687     0.303301687818     1.007825032230
         H           -1.463257898396    -1.997500439313    -0.169780312182     1.007825032230
         H           -0.876696898396    -1.342032439313    -1.710048312182     1.007825032230
         H           -0.687096898396     1.103704560687     1.651225687818     1.007825032230
         H           -1.308460898396    -0.543426439313     1.842890687818     1.007825032230
         H           -4.415462898396     0.184981560687    -0.039427312182     1.007825032230
         H           -3.594389898396    -0.999397439313     0.758348687818     1.007825032230
         H            0.685512101604    -2.291236439313     0.409440687818     1.007825032230
         H            3.599352101604     1.659541560687    -0.288644312182     1.007825032230
         H            0.172215101604     2.218062560687    -1.290871312182     1.007825032230
         H            0.541356101604     2.783058560687     0.342442687818     1.007825032230
         H            1.735335101604     2.982180560687    -0.937871312182     1.007825032230
         H            3.140674101604    -2.533222439313     0.546793687818     1.007825032230
         H            4.603487101604    -0.546144439313     0.205443687818     1.007825032230

  Basis Set: AUG-CC-PVTZ
    Blend: AUG-CC-PVTZ
  Basis Set: (AUG-CC-PVTZ AUX)
    Blend: AUG-CC-PVTZ-JKFIT
	 Reference Energy          =    -535.3089824141159170 [Eh]
	 Singles Energy            =      -0.0000000000000000 [Eh]
	 Same-Spin Energy          =      -0.5852649812467268 [Eh]
	 Opposite-Spin Energy      =      -1.9169930314982051 [Eh]
	 Correlation Energy        =      -2.5022580127449316 [Eh]
	 Total Energy              =    -537.8112404268608771 [Eh]

	 ================> DF-SCS-MP2 Energies <==================
	-----------------------------------------------------------
	 SCS Same-Spin Scale       =       0.3333333333333333 [-]
	 SCS Opposite-Spin Scale   =       1.2000000000000000 [-]
	 SCS Same-Spin Energy      =      -0.1950883270822422 [Eh]
	 SCS Opposite-Spin Energy  =      -2.3003916377978459 [Eh]
	 SCS Correlation Energy    =      -2.4954799648800883 [Eh]
	 SCS Total Energy          =    -537.8044623789960497 [Eh]
	-----------------------------------------------------------

  Dipole Moment: [D]
     X:   -12.1093      Y:    -0.6837      Z:     0.7324     Total:    12.1507

*** Psi4 exiting successfully. Buy a developer a beer!
