                               Psi4 1.4a3.dev225

  ==> Input File <==

--------------------------------------------------------------------------
#psi4
#
memory 32 gb

molecule  {
1 1
  N       -3.4197460    -0.1817000     0.1602720
  N       -0.6214370    -0.0078370    -0.1287630
  C       -2.7377630    -0.6049400    -1.1216890
  C       -2.6265040     0.8533270     0.9259500
  C       -1.3397990    -1.0900720    -0.7822260
  C       -1.2267490     0.3141230     1.1574790
  C        0.7868261    -0.1944394    -0.0383687
  C        1.6179690     0.9496740    -0.2359790
  C        1.3698700    -1.4337860     0.2499420
  C        3.0044760     0.7849240    -0.1342920
  C        1.0196790     2.2951990    -0.5492200
  C        2.7558540    -1.5738690     0.3292430
  C        3.5736970    -0.4590730     0.1432710
  H       -2.7010110     0.2771110    -1.7633110
  H       -3.3565410    -1.3799850    -1.5813290
  H       -3.1641810     1.0582560     1.8552750
  H       -2.5989570     1.7488760     0.3025170
  H       -1.4126900    -2.0099640    -0.1705650
  H       -0.8261290    -1.3544960    -1.7108330
  H       -0.6365290     1.0912410     1.6504410
  H       -1.2578930    -0.5558900     1.8421060
  H       -4.3648950     0.1725180    -0.0402120
  H       -3.5438220    -1.0118610     0.7575640
  H        0.7360800    -2.3037000     0.4086560
  H        3.6499200     1.6470780    -0.2894290
  H        0.2227830     2.2055990    -1.2916560
  H        0.5919240     2.7705950     0.3416580
  H        1.7859030     2.9697170    -0.9386560
  H        3.1912420    -2.5456860     0.5460090
  H        4.6540550    -0.5586080     0.2046590
units angstrom
no_reorient  #important for SAPT in psi4, default
symmetry c1  #important for SAPT in psi4, default
}

set PROPERTIES_ORIGIN ["COM"]
properties('MP2/aug-cc-pvtz', properties = ['dipole'])
--------------------------------------------------------------------------

    Molecular point group: c1
  Charge       = 1
  Multiplicity = 1
  Basis Set: AUG-CC-PVTZ
    Blend: AUG-CC-PVTZ
  Basis Set: (AUG-CC-PVTZ AUX)
    Blend: AUG-CC-PVTZ-JKFIT

    Orbital Energies [Eh]
    ---------------------

    Doubly Occupied:

       1A    -15.867284     2A    -15.704271     3A    -11.457540
       4A    -11.457452     5A    -11.418373     6A    -11.418358
       7A    -11.375493     8A    -11.345760     9A    -11.339833
      10A    -11.331142    11A    -11.329310    12A    -11.328140
      13A    -11.323045    14A     -1.498355    15A     -1.395190
      16A     -1.247210    17A     -1.222775    18A     -1.156837
      19A     -1.142113    20A     -1.087881    21A     -1.054751
      22A     -1.030875    23A     -0.997433    24A     -0.935656
      25A     -0.924361    26A     -0.902357    27A     -0.867961
      28A     -0.824507    29A     -0.811903    30A     -0.794430
      31A     -0.790261    32A     -0.755066    33A     -0.744627
      34A     -0.735412    35A     -0.714308    36A     -0.704293
      37A     -0.688588    38A     -0.674434    39A     -0.669147
      40A     -0.661025    41A     -0.657017    42A     -0.640114
      43A     -0.600061    44A     -0.591029    45A     -0.585891
      46A     -0.522813    47A     -0.433563    48A     -0.420325

  @DF-RHF Final Energy:  -535.30782510318136

   => Energetics <=

    Nuclear Repulsion Energy =            820.3563807345450414
    One-Electron Energy =               -2338.9712679680851579
    Two-Electron Energy =                 983.3070621303588723
    Total Energy =                       -535.3078251031813579
  Basis Set: (AUG-CC-PVTZ AUX)
    Blend: AUG-CC-PVTZ-RI
    Molecular point group: c1

    Geometry (in Angstrom), charge = 1, multiplicity = 1:

       Center              X                  Y                   Z               Mass
    ------------   -----------------  -----------------  -----------------  -----------------
         N           -3.468748609484    -0.168585393267     0.160868129527    14.003074004430
         N           -0.670439609484     0.005277606733    -0.128166870473    14.003074004430
         C           -2.786765609484    -0.591825393267    -1.121092870473    12.000000000000
         C           -2.675506609484     0.866441606733     0.926546129527    12.000000000000
         C           -1.388801609484    -1.076957393267    -0.781629870473    12.000000000000
         C           -1.275751609484     0.327237606733     1.158075129527    12.000000000000
         C            0.737823490516    -0.181324793267    -0.037772570473    12.000000000000
         C            1.568966390516     0.962788606733    -0.235382870473    12.000000000000
         C            1.320867390516    -1.420671393267     0.250538129527    12.000000000000
         C            2.955473390516     0.798038606733    -0.133695870473    12.000000000000
         C            0.970676390516     2.308313606733    -0.548623870473    12.000000000000
         C            2.706851390516    -1.560754393267     0.329839129527    12.000000000000
         C            3.524694390516    -0.445958393267     0.143867129527    12.000000000000
         H           -2.750013609484     0.290225606733    -1.762714870473     1.007825032230
         H           -3.405543609484    -1.366870393267    -1.580732870473     1.007825032230
         H           -3.213183609484     1.071370606733     1.855871129527     1.007825032230
         H           -2.647959609484     1.761990606733     0.303113129527     1.007825032230
         H           -1.461692609484    -1.996849393267    -0.169968870473     1.007825032230
         H           -0.875131609484    -1.341381393267    -1.710236870473     1.007825032230
         H           -0.685531609484     1.104355606733     1.651037129527     1.007825032230
         H           -1.306895609484    -0.542775393267     1.842702129527     1.007825032230
         H           -4.413897609484     0.185632606733    -0.039615870473     1.007825032230
         H           -3.592824609484    -0.998746393267     0.758160129527     1.007825032230
         H            0.687077390516    -2.290585393267     0.409252129527     1.007825032230
         H            3.600917390516     1.660192606733    -0.288832870473     1.007825032230
         H            0.173780390516     2.218713606733    -1.291059870473     1.007825032230
         H            0.542921390516     2.783709606733     0.342254129527     1.007825032230
         H            1.736900390516     2.982831606733    -0.938059870473     1.007825032230
         H            3.142239390516    -2.532571393267     0.546605129527     1.007825032230
         H            4.605052390516    -0.545493393267     0.205255129527     1.007825032230

  Basis Set: AUG-CC-PVTZ
    Blend: AUG-CC-PVTZ
  Basis Set: (AUG-CC-PVTZ AUX)
    Blend: AUG-CC-PVTZ-JKFIT
	 Reference Energy          =    -535.3078251031813579 [Eh]
	 Singles Energy            =      -0.0000000000000000 [Eh]
	 Same-Spin Energy          =      -0.5854885488846503 [Eh]
	 Opposite-Spin Energy      =      -1.9174027299818663 [Eh]
	 Correlation Energy        =      -2.5028912788665165 [Eh]
	 Total Energy              =    -537.8107163820478718 [Eh]

	 ================> DF-SCS-MP2 Energies <==================
	-----------------------------------------------------------
	 SCS Same-Spin Scale       =       0.3333333333333333 [-]
	 SCS Opposite-Spin Scale   =       1.2000000000000000 [-]
	 SCS Same-Spin Energy      =      -0.1951628496282168 [Eh]
	 SCS Opposite-Spin Energy  =      -2.3008832759782396 [Eh]
	 SCS Correlation Energy    =      -2.4960461256064566 [Eh]
	 SCS Total Energy          =    -537.8038712287877843 [Eh]
	-----------------------------------------------------------

  Dipole Moment: [D]
     X:   -12.1918      Y:    -0.6856      Z:     0.7385     Total:    12.2334

*** Psi4 exiting successfully. Buy a developer a beer!
