                               Psi4 1.4a3.dev225

  ==> Input File <==

--------------------------------------------------------------------------
#psi4
#
memory 32 gb

molecule  {
1 1
  N       -3.4197460    -0.1817000     0.1602720
  N       -0.6214370    -0.0078370    -0.1287630
  C       -2.7377630    -0.6049400    -1.1216890
  C       -2.6265040     0.8533270     0.9259500
  C       -1.3397990    -1.0900720    -0.7822260
  C       -1.2267490     0.3141230     1.1574790
  C        0.8091060    -0.1845140    -0.0397240
  C        1.6179690     0.9496740    -0.2359790
  C        1.3698700    -1.4337860     0.2499420
  C        3.0044760     0.7849240    -0.1342920
  C        1.0196790     2.2951990    -0.5492200
  C        2.7558540    -1.5738690     0.3292430
  C        3.5736970    -0.4590730     0.1432710
  H       -2.7010110     0.2771110    -1.7633110
  H       -3.3565410    -1.3799850    -1.5813290
  H       -3.1641810     1.0582560     1.8552750
  H       -2.5989570     1.7488760     0.3025170
  H       -1.4126900    -2.0099640    -0.1705650
  H       -0.8261290    -1.3544960    -1.7108330
  H       -0.6365290     1.0912410     1.6504410
  H       -1.2578930    -0.5558900     1.8421060
  H       -4.3648950     0.1725180    -0.0402120
  H       -3.5438220    -1.0118610     0.7575640
  H        0.7360800    -2.3037000     0.4086560
  H        3.6499200     1.6470780    -0.2894290
  H        0.2081990     2.2039592    -1.3052434
  H        0.5919240     2.7705950     0.3416580
  H        1.7859030     2.9697170    -0.9386560
  H        3.1912420    -2.5456860     0.5460090
  H        4.6540550    -0.5586080     0.2046590
units angstrom
no_reorient  #important for SAPT in psi4, default
symmetry c1  #important for SAPT in psi4, default
}

set PROPERTIES_ORIGIN ["COM"]
properties('MP2/aug-cc-pvtz', properties = ['dipole'])
--------------------------------------------------------------------------

    Molecular point group: c1
  Charge       = 1
  Multiplicity = 1
  Basis Set: AUG-CC-PVTZ
    Blend: AUG-CC-PVTZ
  Basis Set: (AUG-CC-PVTZ AUX)
    Blend: AUG-CC-PVTZ-JKFIT

    Orbital Energies [Eh]
    ---------------------

    Doubly Occupied:

       1A    -15.866622     2A    -15.703014     3A    -11.456798
       4A    -11.456756     5A    -11.417533     6A    -11.417274
       7A    -11.375248     8A    -11.344571     9A    -11.340252
      10A    -11.331898    11A    -11.330021    12A    -11.328725
      13A    -11.325970    14A     -1.497526    15A     -1.390243
      16A     -1.249976    17A     -1.221848    18A     -1.155547
      19A     -1.142411    20A     -1.088078    21A     -1.053491
      22A     -1.030862    23A     -0.996036    24A     -0.935511
      25A     -0.924289    26A     -0.903096    27A     -0.867439
      28A     -0.823713    29A     -0.810110    30A     -0.793580
      31A     -0.788480    32A     -0.755027    33A     -0.744611
      34A     -0.734461    35A     -0.714658    36A     -0.704304
      37A     -0.687738    38A     -0.674509    39A     -0.669072
      40A     -0.659969    41A     -0.655223    42A     -0.639366
      43A     -0.600082    44A     -0.591455    45A     -0.587854
      46A     -0.521523    47A     -0.433619    48A     -0.423536

  @DF-RHF Final Energy:  -535.30831930531770

   => Energetics <=

    Nuclear Repulsion Energy =            820.2157516963223998
    One-Electron Energy =               -2338.7202952373413609
    Two-Electron Energy =                 983.1962242357011519
    Total Energy =                       -535.3083193053176956
  Basis Set: (AUG-CC-PVTZ AUX)
    Blend: AUG-CC-PVTZ-RI
    Molecular point group: c1

    Geometry (in Angstrom), charge = 1, multiplicity = 1:

       Center              X                  Y                   Z               Mass
    ------------   -----------------  -----------------  -----------------  -----------------
         N           -3.470174949433    -0.169248443490     0.161037246957    14.003074004430
         N           -0.671865949433     0.004614556510    -0.127997753043    14.003074004430
         C           -2.788191949433    -0.592488443490    -1.120923753043    12.000000000000
         C           -2.676932949433     0.865778556510     0.926715246957    12.000000000000
         C           -1.390227949433    -1.077620443490    -0.781460753043    12.000000000000
         C           -1.277177949433     0.326574556510     1.158244246957    12.000000000000
         C            0.758677050567    -0.172062443490    -0.038958753043    12.000000000000
         C            1.567540050567     0.962125556510    -0.235213753043    12.000000000000
         C            1.319441050567    -1.421334443490     0.250707246957    12.000000000000
         C            2.954047050567     0.797375556510    -0.133526753043    12.000000000000
         C            0.969250050567     2.307650556510    -0.548454753043    12.000000000000
         C            2.705425050567    -1.561417443490     0.330008246957    12.000000000000
         C            3.523268050567    -0.446621443490     0.144036246957    12.000000000000
         H           -2.751439949433     0.289562556510    -1.762545753043     1.007825032230
         H           -3.406969949433    -1.367533443490    -1.580563753043     1.007825032230
         H           -3.214609949433     1.070707556510     1.856040246957     1.007825032230
         H           -2.649385949433     1.761327556510     0.303282246957     1.007825032230
         H           -1.463118949433    -1.997512443490    -0.169799753043     1.007825032230
         H           -0.876557949433    -1.342044443490    -1.710067753043     1.007825032230
         H           -0.686957949433     1.103692556510     1.651206246957     1.007825032230
         H           -1.308321949433    -0.543438443490     1.842871246957     1.007825032230
         H           -4.415323949433     0.184969556510    -0.039446753043     1.007825032230
         H           -3.594250949433    -0.999409443490     0.758329246957     1.007825032230
         H            0.685651050567    -2.291248443490     0.409421246957     1.007825032230
         H            3.599491050567     1.659529556510    -0.288663753043     1.007825032230
         H            0.157770050567     2.216410756510    -1.304478153043     1.007825032230
         H            0.541495050567     2.783046556510     0.342423246957     1.007825032230
         H            1.735474050567     2.982168556510    -0.937890753043     1.007825032230
         H            3.140813050567    -2.533234443490     0.546774246957     1.007825032230
         H            4.603626050567    -0.546156443490     0.205424246957     1.007825032230

  Basis Set: AUG-CC-PVTZ
    Blend: AUG-CC-PVTZ
  Basis Set: (AUG-CC-PVTZ AUX)
    Blend: AUG-CC-PVTZ-JKFIT
	 Reference Energy          =    -535.3083193053176956 [Eh]
	 Singles Energy            =      -0.0000000000000000 [Eh]
	 Same-Spin Energy          =      -0.5853188499381486 [Eh]
	 Opposite-Spin Energy      =      -1.9172949805159016 [Eh]
	 Correlation Energy        =      -2.5026138304540502 [Eh]
	 Total Energy              =    -537.8109331357717338 [Eh]

	 ================> DF-SCS-MP2 Energies <==================
	-----------------------------------------------------------
	 SCS Same-Spin Scale       =       0.3333333333333333 [-]
	 SCS Opposite-Spin Scale   =       1.2000000000000000 [-]
	 SCS Same-Spin Energy      =      -0.1951062833127162 [Eh]
	 SCS Opposite-Spin Energy  =      -2.3007539766190819 [Eh]
	 SCS Correlation Energy    =      -2.4958602599317983 [Eh]
	 SCS Total Energy          =    -537.8041795652494557 [Eh]
	-----------------------------------------------------------

  Dipole Moment: [D]
     X:   -12.0985      Y:    -0.6888      Z:     0.7385     Total:    12.1405

*** Psi4 exiting successfully. Buy a developer a beer!
