                               Psi4 1.4a3.dev225

  ==> Input File <==

--------------------------------------------------------------------------
#psi4
#
memory 32 gb

molecule  {
1 1
  N       -3.4197460    -0.1817000     0.1602720
  N       -0.6214370    -0.0078370    -0.1287630
  C       -2.7377630    -0.6049400    -1.1216890
  C       -2.6265040     0.8533270     0.9259500
  C       -1.3397990    -1.0900720    -0.7822260
  C       -1.2267490     0.3141230     1.1574790
  C        0.8091060    -0.1845140    -0.0397240
  C        1.6179690     0.9496740    -0.2359790
  C        1.3698700    -1.4337860     0.2499420
  C        3.0044760     0.7849240    -0.1342920
  C        1.0196790     2.2951990    -0.5492200
  C        2.7558540    -1.5738690     0.3292430
  C        3.5736970    -0.4590730     0.1432710
  H       -2.7010110     0.2771110    -1.7633110
  H       -3.3565410    -1.3799850    -1.5813290
  H       -3.1641810     1.0582560     1.8552750
  H       -2.5989570     1.7488760     0.3025170
  H       -1.4126900    -2.0099640    -0.1705650
  H       -0.9200651    -1.3061401    -1.5410163
  H       -0.6365290     1.0912410     1.6504410
  H       -1.2578930    -0.5558900     1.8421060
  H       -4.3648950     0.1725180    -0.0402120
  H       -3.5438220    -1.0118610     0.7575640
  H        0.7360800    -2.3037000     0.4086560
  H        3.6499200     1.6470780    -0.2894290
  H        0.2227830     2.2055990    -1.2916560
  H        0.5919240     2.7705950     0.3416580
  H        1.7859030     2.9697170    -0.9386560
  H        3.1912420    -2.5456860     0.5460090
  H        4.6540550    -0.5586080     0.2046590
units angstrom
no_reorient  #important for SAPT in psi4, default
symmetry c1  #important for SAPT in psi4, default
}

set PROPERTIES_ORIGIN ["COM"]
properties('MP2/aug-cc-pvtz', properties = ['dipole'])
--------------------------------------------------------------------------

    Molecular point group: c1
  Charge       = 1
  Multiplicity = 1
  Basis Set: AUG-CC-PVTZ
    Blend: AUG-CC-PVTZ
  Basis Set: (AUG-CC-PVTZ AUX)
    Blend: AUG-CC-PVTZ-JKFIT

    Orbital Energies [Eh]
    ---------------------

    Doubly Occupied:

       1A    -15.866621     2A    -15.702246     3A    -11.456653
       4A    -11.456513     5A    -11.416477     6A    -11.395454
       7A    -11.375329     8A    -11.344450     9A    -11.340395
      10A    -11.331956    11A    -11.330018    12A    -11.328739
      13A    -11.323589    14A     -1.497410    15A     -1.391753
      16A     -1.250746    17A     -1.227872    18A     -1.157128
      19A     -1.142981    20A     -1.088386    21A     -1.068069
      22A     -1.032207    23A     -0.998410    24A     -0.939903
      25A     -0.930423    26A     -0.903590    27A     -0.867987
      28A     -0.824092    29A     -0.810231    30A     -0.808736
      31A     -0.788991    32A     -0.758502    33A     -0.746280
      34A     -0.737321    35A     -0.715214    36A     -0.705303
      37A     -0.687577    38A     -0.679671    39A     -0.674444
      40A     -0.667055    41A     -0.655656    42A     -0.640801
      43A     -0.600150    44A     -0.591773    45A     -0.588094
      46A     -0.521579    47A     -0.433706    48A     -0.423502

  @DF-RHF Final Energy:  -535.27554596267760

   => Energetics <=

    Nuclear Repulsion Energy =            821.4798308527564359
    One-Electron Energy =               -2341.0627867311586670
    Two-Electron Energy =                 984.3074099157245200
    Total Energy =                       -535.2755459626775973
  Basis Set: (AUG-CC-PVTZ AUX)
    Blend: AUG-CC-PVTZ-RI
    Molecular point group: c1

    Geometry (in Angstrom), charge = 1, multiplicity = 1:

       Center              X                  Y                   Z               Mass
    ------------   -----------------  -----------------  -----------------  -----------------
         N           -3.469723479376    -0.169532891684     0.159993777919    14.003074004430
         N           -0.671414479376     0.004330108316    -0.129041222081    14.003074004430
         C           -2.787740479376    -0.592772891684    -1.121967222081    12.000000000000
         C           -2.676481479376     0.865494108316     0.925671777919    12.000000000000
         C           -1.389776479376    -1.077904891684    -0.782504222081    12.000000000000
         C           -1.276726479376     0.326290108316     1.157200777919    12.000000000000
         C            0.759128520624    -0.172346891684    -0.040002222081    12.000000000000
         C            1.567991520624     0.961841108316    -0.236257222081    12.000000000000
         C            1.319892520624    -1.421618891684     0.249663777919    12.000000000000
         C            2.954498520624     0.797091108316    -0.134570222081    12.000000000000
         C            0.969701520624     2.307366108316    -0.549498222081    12.000000000000
         C            2.705876520624    -1.561701891684     0.328964777919    12.000000000000
         C            3.523719520624    -0.446905891684     0.142992777919    12.000000000000
         H           -2.750988479376     0.289278108316    -1.763589222081     1.007825032230
         H           -3.406518479376    -1.367817891684    -1.581607222081     1.007825032230
         H           -3.214158479376     1.070423108316     1.854996777919     1.007825032230
         H           -2.648934479376     1.761043108316     0.302238777919     1.007825032230
         H           -1.462667479376    -1.997796891684    -0.170843222081     1.007825032230
         H           -0.970042579376    -1.293972991684    -1.541294522081     1.007825032230
         H           -0.686506479376     1.103408108316     1.650162777919     1.007825032230
         H           -1.307870479376    -0.543722891684     1.841827777919     1.007825032230
         H           -4.414872479376     0.184685108316    -0.040490222081     1.007825032230
         H           -3.593799479376    -0.999693891684     0.757285777919     1.007825032230
         H            0.686102520624    -2.291532891684     0.408377777919     1.007825032230
         H            3.599942520624     1.659245108316    -0.289707222081     1.007825032230
         H            0.172805520624     2.217766108316    -1.291934222081     1.007825032230
         H            0.541946520624     2.782762108316     0.341379777919     1.007825032230
         H            1.735925520624     2.981884108316    -0.938934222081     1.007825032230
         H            3.141264520624    -2.533518891684     0.545730777919     1.007825032230
         H            4.604077520624    -0.546440891684     0.204380777919     1.007825032230

  Basis Set: AUG-CC-PVTZ
    Blend: AUG-CC-PVTZ
  Basis Set: (AUG-CC-PVTZ AUX)
    Blend: AUG-CC-PVTZ-JKFIT
	 Reference Energy          =    -535.2755459626775973 [Eh]
	 Singles Energy            =      -0.0000000000000000 [Eh]
	 Same-Spin Energy          =      -0.5849865853403864 [Eh]
	 Opposite-Spin Energy      =      -1.9161425236283149 [Eh]
	 Correlation Energy        =      -2.5011291089687013 [Eh]
	 Total Energy              =    -537.7766750716463093 [Eh]

	 ================> DF-SCS-MP2 Energies <==================
	-----------------------------------------------------------
	 SCS Same-Spin Scale       =       0.3333333333333333 [-]
	 SCS Opposite-Spin Scale   =       1.2000000000000000 [-]
	 SCS Same-Spin Energy      =      -0.1949955284467955 [Eh]
	 SCS Opposite-Spin Energy  =      -2.2993710283539777 [Eh]
	 SCS Correlation Energy    =      -2.4943665568007729 [Eh]
	 SCS Total Energy          =    -537.7699125194783392 [Eh]
	-----------------------------------------------------------

  Dipole Moment: [D]
     X:   -12.1332      Y:    -0.6894      Z:     0.7433     Total:    12.1755

*** Psi4 exiting successfully. Buy a developer a beer!
