                               Psi4 1.4a3.dev225

  ==> Input File <==

--------------------------------------------------------------------------
#psi4
#
memory 32 gb

molecule  {
1 1
  N       -3.4197460    -0.1817000     0.1602720
  N       -0.6214370    -0.0078370    -0.1287630
  C       -2.7377630    -0.6049400    -1.1216890
  C       -2.6265040     0.8533270     0.9259500
  C       -1.3397990    -1.0900720    -0.7822260
  C       -1.2267490     0.3141230     1.1574790
  C        0.8091060    -0.1845140    -0.0397240
  C        1.6179690     0.9496740    -0.2359790
  C        1.3698700    -1.4337860     0.2499420
  C        3.0044760     0.7849240    -0.1342920
  C        1.0196790     2.2951990    -0.5492200
  C        2.7558540    -1.5738690     0.3292430
  C        3.5736970    -0.4590730     0.1432710
  H       -2.7010110     0.2771110    -1.7633110
  H       -3.3565410    -1.3799850    -1.5813290
  H       -3.1641810     1.0582560     1.8552750
  H       -2.5989570     1.7488760     0.3025170
  H       -1.4126900    -2.0099640    -0.1705650
  H       -0.8261290    -1.3544960    -1.7108330
  H       -0.6365290     1.0912410     1.6504410
  H       -1.2635171    -0.7129997     1.9657381
  H       -4.3648950     0.1725180    -0.0402120
  H       -3.5438220    -1.0118610     0.7575640
  H        0.7360800    -2.3037000     0.4086560
  H        3.6499200     1.6470780    -0.2894290
  H        0.2227830     2.2055990    -1.2916560
  H        0.5919240     2.7705950     0.3416580
  H        1.7859030     2.9697170    -0.9386560
  H        3.1912420    -2.5456860     0.5460090
  H        4.6540550    -0.5586080     0.2046590
units angstrom
no_reorient  #important for SAPT in psi4, default
symmetry c1  #important for SAPT in psi4, default
}

set PROPERTIES_ORIGIN ["COM"]
properties('MP2/aug-cc-pvtz', properties = ['dipole'])
--------------------------------------------------------------------------

    Molecular point group: c1
  Charge       = 1
  Multiplicity = 1
  Basis Set: AUG-CC-PVTZ
    Blend: AUG-CC-PVTZ
  Basis Set: (AUG-CC-PVTZ AUX)
    Blend: AUG-CC-PVTZ-JKFIT

    Orbital Energies [Eh]
    ---------------------

    Doubly Occupied:

       1A    -15.866619     2A    -15.708201     3A    -11.459077
       4A    -11.457345     5A    -11.438379     6A    -11.418279
       7A    -11.376095     8A    -11.345436     9A    -11.340938
      10A    -11.332282    11A    -11.330500    12A    -11.329287
      13A    -11.324703    14A     -1.497599    15A     -1.391709
      16A     -1.250493    17A     -1.220634    18A     -1.155804
      19A     -1.143339    20A     -1.089033    21A     -1.050492
      22A     -1.032793    23A     -0.990721    24A     -0.934590
      25A     -0.923717    26A     -0.904181    27A     -0.865422
      28A     -0.820059    29A     -0.806915    30A     -0.792943
      31A     -0.786404    32A     -0.755963    33A     -0.745350
      34A     -0.735921    35A     -0.714910    36A     -0.702413
      37A     -0.676675    38A     -0.673926    39A     -0.669847
      40A     -0.658974    41A     -0.651211    42A     -0.641455
      43A     -0.598995    44A     -0.592620    45A     -0.588725
      46A     -0.520192    47A     -0.434290    48A     -0.424421

  @DF-RHF Final Energy:  -535.28952841314242

   => Energetics <=

    Nuclear Repulsion Energy =            819.3145749619878870
    One-Electron Energy =               -2336.8684567252489614
    Two-Electron Energy =                 982.2643533501185402
    Total Energy =                       -535.2895284131424205
  Basis Set: (AUG-CC-PVTZ AUX)
    Blend: AUG-CC-PVTZ-RI
    Molecular point group: c1

    Geometry (in Angstrom), charge = 1, multiplicity = 1:

       Center              X                  Y                   Z               Mass
    ------------   -----------------  -----------------  -----------------  -----------------
         N           -3.470225926364    -0.168363904775     0.160256543038    14.003074004430
         N           -0.671916926364     0.005499095225    -0.128778456962    14.003074004430
         C           -2.788242926364    -0.591603904775    -1.121704456962    12.000000000000
         C           -2.676983926364     0.866663095225     0.925934543038    12.000000000000
         C           -1.390278926364    -1.076735904775    -0.782241456962    12.000000000000
         C           -1.277228926364     0.327459095225     1.157463543038    12.000000000000
         C            0.758626073636    -0.171177904775    -0.039739456962    12.000000000000
         C            1.567489073636     0.963010095225    -0.235994456962    12.000000000000
         C            1.319390073636    -1.420449904775     0.249926543038    12.000000000000
         C            2.953996073636     0.798260095225    -0.134307456962    12.000000000000
         C            0.969199073636     2.308535095225    -0.549235456962    12.000000000000
         C            2.705374073636    -1.560532904775     0.329227543038    12.000000000000
         C            3.523217073636    -0.445736904775     0.143255543038    12.000000000000
         H           -2.751490926364     0.290447095225    -1.763326456962     1.007825032230
         H           -3.407020926364    -1.366648904775    -1.581344456962     1.007825032230
         H           -3.214660926364     1.071592095225     1.855259543038     1.007825032230
         H           -2.649436926364     1.762212095225     0.302501543038     1.007825032230
         H           -1.463169926364    -1.996627904775    -0.170580456962     1.007825032230
         H           -0.876608926364    -1.341159904775    -1.710848456962     1.007825032230
         H           -0.687008926364     1.104577095225     1.650425543038     1.007825032230
         H           -1.313997026364    -0.699663604775     1.965722643038     1.007825032230
         H           -4.415374926364     0.185854095225    -0.040227456962     1.007825032230
         H           -3.594301926364    -0.998524904775     0.757548543038     1.007825032230
         H            0.685600073636    -2.290363904775     0.408640543038     1.007825032230
         H            3.599440073636     1.660414095225    -0.289444456962     1.007825032230
         H            0.172303073636     2.218935095225    -1.291671456962     1.007825032230
         H            0.541444073636     2.783931095225     0.341642543038     1.007825032230
         H            1.735423073636     2.983053095225    -0.938671456962     1.007825032230
         H            3.140762073636    -2.532349904775     0.545993543038     1.007825032230
         H            4.603575073636    -0.545271904775     0.204643543038     1.007825032230

  Basis Set: AUG-CC-PVTZ
    Blend: AUG-CC-PVTZ
  Basis Set: (AUG-CC-PVTZ AUX)
    Blend: AUG-CC-PVTZ-JKFIT
	 Reference Energy          =    -535.2895284131424205 [Eh]
	 Singles Energy            =      -0.0000000000000000 [Eh]
	 Same-Spin Energy          =      -0.5859065365743584 [Eh]
	 Opposite-Spin Energy      =      -1.9193164862253449 [Eh]
	 Correlation Energy        =      -2.5052230227997034 [Eh]
	 Total Energy              =    -537.7947514359420893 [Eh]

	 ================> DF-SCS-MP2 Energies <==================
	-----------------------------------------------------------
	 SCS Same-Spin Scale       =       0.3333333333333333 [-]
	 SCS Opposite-Spin Scale   =       1.2000000000000000 [-]
	 SCS Same-Spin Energy      =      -0.1953021788581195 [Eh]
	 SCS Opposite-Spin Energy  =      -2.3031797834704140 [Eh]
	 SCS Correlation Energy    =      -2.4984819623285333 [Eh]
	 SCS Total Energy          =    -537.7880103754710035 [Eh]
	-----------------------------------------------------------

  Dipole Moment: [D]
     X:   -12.0124      Y:    -0.5904      Z:     0.5614     Total:    12.0400

*** Psi4 exiting successfully. Buy a developer a beer!
