                               Psi4 1.4a3.dev225

  ==> Input File <==

--------------------------------------------------------------------------
#psi4
#
memory 32 gb

molecule  {
1 1
  N       -3.4197460    -0.1817000     0.1602720
  N       -0.6214370    -0.0078370    -0.1287630
  C       -2.7377630    -0.6049400    -1.1216890
  C       -2.6265040     0.8533270     0.9259500
  C       -1.3397990    -1.0900720    -0.7822260
  C       -1.2267490     0.3141230     1.1574790
  C        0.8091060    -0.1845140    -0.0397240
  C        1.6179690     0.9496740    -0.2359790
  C        1.3698700    -1.4337860     0.2499420
  C        3.0044760     0.7849240    -0.1342920
  C        1.0196790     2.2951990    -0.5492200
  C        2.7558540    -1.5738690     0.3292430
  C        3.5736970    -0.4590730     0.1432710
  H       -2.7010110     0.2771110    -1.7633110
  H       -3.3565410    -1.3799850    -1.5813290
  H       -3.1641810     1.0582560     1.8552750
  H       -2.5989570     1.7488760     0.3025170
  H       -1.4126900    -2.0099640    -0.1705650
  H       -0.8261290    -1.3544960    -1.7108330
  H       -0.6365290     1.0912410     1.6504410
  H       -1.2578930    -0.5558900     1.8421060
  H       -4.3648950     0.1725180    -0.0402120
  H       -3.5438220    -1.0118610     0.7575640
  H        0.7360800    -2.3037000     0.4086560
  H        3.6499200     1.6470780    -0.2894290
  H        0.2323264     2.2175123    -1.3030922
  H        0.5919240     2.7705950     0.3416580
  H        1.7859030     2.9697170    -0.9386560
  H        3.1912420    -2.5456860     0.5460090
  H        4.6540550    -0.5586080     0.2046590
units angstrom
no_reorient  #important for SAPT in psi4, default
symmetry c1  #important for SAPT in psi4, default
}

set PROPERTIES_ORIGIN ["COM"]
properties('MP2/aug-cc-pvtz', properties = ['dipole'])
--------------------------------------------------------------------------

    Molecular point group: c1
  Charge       = 1
  Multiplicity = 1
  Basis Set: AUG-CC-PVTZ
    Blend: AUG-CC-PVTZ
  Basis Set: (AUG-CC-PVTZ AUX)
    Blend: AUG-CC-PVTZ-JKFIT

    Orbital Energies [Eh]
    ---------------------

    Doubly Occupied:

       1A    -15.866598     2A    -15.702990     3A    -11.456770
       4A    -11.456731     5A    -11.417507     6A    -11.417232
       7A    -11.375212     8A    -11.344458     9A    -11.340186
      10A    -11.331873    11A    -11.329947    12A    -11.328652
      13A    -11.323559    14A     -1.497500    15A     -1.390198
      16A     -1.249932    17A     -1.221817    18A     -1.155570
      19A     -1.142615    20A     -1.088097    21A     -1.053459
      22A     -1.032033    23A     -0.996052    24A     -0.935461
      25A     -0.924239    26A     -0.903460    27A     -0.867453
      28A     -0.823685    29A     -0.810178    30A     -0.793528
      31A     -0.788446    32A     -0.755044    33A     -0.744602
      34A     -0.734506    35A     -0.714588    36A     -0.704521
      37A     -0.687706    38A     -0.675869    39A     -0.669764
      40A     -0.659961    41A     -0.655809    42A     -0.639080
      43A     -0.599970    44A     -0.591487    45A     -0.588375
      46A     -0.521632    47A     -0.433599    48A     -0.423594

  @DF-RHF Final Energy:  -535.30888789004393

   => Energetics <=

    Nuclear Repulsion Energy =            820.2450687438499699
    One-Electron Energy =               -2338.7768244766284624
    Two-Electron Energy =                 983.2228678427345585
    Total Energy =                       -535.3088878900439340
  Basis Set: (AUG-CC-PVTZ AUX)
    Blend: AUG-CC-PVTZ-RI
    Molecular point group: c1

    Geometry (in Angstrom), charge = 1, multiplicity = 1:

       Center              X                  Y                   Z               Mass
    ------------   -----------------  -----------------  -----------------  -----------------
         N           -3.470312221145    -0.169325553218     0.161025007805    14.003074004430
         N           -0.672003221145     0.004537446782    -0.128009992195    14.003074004430
         C           -2.788329221145    -0.592565553218    -1.120935992195    12.000000000000
         C           -2.677070221145     0.865701446782     0.926703007805    12.000000000000
         C           -1.390365221145    -1.077697553218    -0.781472992195    12.000000000000
         C           -1.277315221145     0.326497446782     1.158232007805    12.000000000000
         C            0.758539778855    -0.172139553218    -0.038970992195    12.000000000000
         C            1.567402778855     0.962048446782    -0.235225992195    12.000000000000
         C            1.319303778855    -1.421411553218     0.250695007805    12.000000000000
         C            2.953909778855     0.797298446782    -0.133538992195    12.000000000000
         C            0.969112778855     2.307573446782    -0.548466992195    12.000000000000
         C            2.705287778855    -1.561494553218     0.329996007805    12.000000000000
         C            3.523130778855    -0.446698553218     0.144024007805    12.000000000000
         H           -2.751577221145     0.289485446782    -1.762557992195     1.007825032230
         H           -3.407107221145    -1.367610553218    -1.580575992195     1.007825032230
         H           -3.214747221145     1.070630446782     1.856028007805     1.007825032230
         H           -2.649523221145     1.761250446782     0.303270007805     1.007825032230
         H           -1.463256221145    -1.997589553218    -0.169811992195     1.007825032230
         H           -0.876695221145    -1.342121553218    -1.710079992195     1.007825032230
         H           -0.687095221145     1.103615446782     1.651194007805     1.007825032230
         H           -1.308459221145    -0.543515553218     1.842859007805     1.007825032230
         H           -4.415461221145     0.184892446782    -0.039458992195     1.007825032230
         H           -3.594388221145    -0.999486553218     0.758317007805     1.007825032230
         H            0.685513778855    -2.291325553218     0.409409007805     1.007825032230
         H            3.599353778855     1.659452446782    -0.288675992195     1.007825032230
         H            0.181760178855     2.229886746782    -1.302339192195     1.007825032230
         H            0.541357778855     2.782969446782     0.342411007805     1.007825032230
         H            1.735336778855     2.982091446782    -0.937902992195     1.007825032230
         H            3.140675778855    -2.533311553218     0.546762007805     1.007825032230
         H            4.603488778855    -0.546233553218     0.205412007805     1.007825032230

  Basis Set: AUG-CC-PVTZ
    Blend: AUG-CC-PVTZ
  Basis Set: (AUG-CC-PVTZ AUX)
    Blend: AUG-CC-PVTZ-JKFIT
	 Reference Energy          =    -535.3088878900439340 [Eh]
	 Singles Energy            =      -0.0000000000000000 [Eh]
	 Same-Spin Energy          =      -0.5852722514472167 [Eh]
	 Opposite-Spin Energy      =      -1.9171257366870347 [Eh]
	 Correlation Energy        =      -2.5023979881342515 [Eh]
	 Total Energy              =    -537.8112858781781824 [Eh]

	 ================> DF-SCS-MP2 Energies <==================
	-----------------------------------------------------------
	 SCS Same-Spin Scale       =       0.3333333333333333 [-]
	 SCS Opposite-Spin Scale   =       1.2000000000000000 [-]
	 SCS Same-Spin Energy      =      -0.1950907504824056 [Eh]
	 SCS Opposite-Spin Energy  =      -2.3005508840244415 [Eh]
	 SCS Correlation Energy    =      -2.4956416345068471 [Eh]
	 SCS Total Energy          =    -537.8045295245507305 [Eh]
	-----------------------------------------------------------

  Dipole Moment: [D]
     X:   -12.1013      Y:    -0.6826      Z:     0.7266     Total:    12.1423

*** Psi4 exiting successfully. Buy a developer a beer!
