                               Psi4 1.4a3.dev225

  ==> Input File <==

--------------------------------------------------------------------------
#psi4
#
memory 32 gb

molecule  {
1 1
  N       -3.4197460    -0.1817000     0.1602720
  N       -0.6214370    -0.0078370    -0.1287630
  C       -2.7377630    -0.6049400    -1.1216890
  C       -2.6265040     0.8533270     0.9259500
  C       -1.3397990    -1.0900720    -0.7822260
  C       -1.2267490     0.3141230     1.1574790
  C        0.8912162    -0.2362108    -0.0246370
  C        1.6179690     0.9496740    -0.2359790
  C        1.3698700    -1.4337860     0.2499420
  C        3.0044760     0.7849240    -0.1342920
  C        1.0196790     2.2951990    -0.5492200
  C        2.7558540    -1.5738690     0.3292430
  C        3.5736970    -0.4590730     0.1432710
  H       -2.7010110     0.2771110    -1.7633110
  H       -3.3565410    -1.3799850    -1.5813290
  H       -3.1641810     1.0582560     1.8552750
  H       -2.5989570     1.7488760     0.3025170
  H       -1.4126900    -2.0099640    -0.1705650
  H       -0.8261290    -1.3544960    -1.7108330
  H       -0.6365290     1.0912410     1.6504410
  H       -1.2578930    -0.5558900     1.8421060
  H       -4.3648950     0.1725180    -0.0402120
  H       -3.5438220    -1.0118610     0.7575640
  H        0.7360800    -2.3037000     0.4086560
  H        3.6499200     1.6470780    -0.2894290
  H        0.2227830     2.2055990    -1.2916560
  H        0.5919240     2.7705950     0.3416580
  H        1.7859030     2.9697170    -0.9386560
  H        3.1912420    -2.5456860     0.5460090
  H        4.6540550    -0.5586080     0.2046590
units angstrom
no_reorient  #important for SAPT in psi4, default
symmetry c1  #important for SAPT in psi4, default
}

set PROPERTIES_ORIGIN ["COM"]
properties('MP2/aug-cc-pvtz', properties = ['dipole'])
--------------------------------------------------------------------------

    Molecular point group: c1
  Charge       = 1
  Multiplicity = 1
  Basis Set: AUG-CC-PVTZ
    Blend: AUG-CC-PVTZ
  Basis Set: (AUG-CC-PVTZ AUX)
    Blend: AUG-CC-PVTZ-JKFIT

    Orbital Energies [Eh]
    ---------------------

    Doubly Occupied:

       1A    -15.864388     2A    -15.698981     3A    -11.454531
       4A    -11.454218     5A    -11.413613     6A    -11.413432
       7A    -11.374339     8A    -11.346607     9A    -11.334709
      10A    -11.333293    11A    -11.331216    12A    -11.329334
      13A    -11.326659    14A     -1.494822    15A     -1.374233
      16A     -1.260663    17A     -1.218688    18A     -1.151619
      19A     -1.145874    20A     -1.093545    21A     -1.049222
      22A     -1.034925    23A     -0.991010    24A     -0.932676
      25A     -0.921922    26A     -0.908330    27A     -0.865398
      28A     -0.821117    29A     -0.808145    30A     -0.790270
      31A     -0.782650    32A     -0.749580    33A     -0.747713
      34A     -0.731750    35A     -0.718073    36A     -0.703863
      37A     -0.684824    38A     -0.676320    39A     -0.672080
      40A     -0.656152    41A     -0.649679    42A     -0.642165
      43A     -0.604695    44A     -0.599004    45A     -0.580371
      46A     -0.519153    47A     -0.445532    48A     -0.423810

  @DF-RHF Final Energy:  -535.29811696417892

   => Energetics <=

    Nuclear Repulsion Energy =            819.9674050822320623
    One-Electron Energy =               -2338.2806537674309766
    Two-Electron Energy =                 983.0151317210199977
    Total Energy =                       -535.2981169641789165
  Basis Set: (AUG-CC-PVTZ AUX)
    Blend: AUG-CC-PVTZ-RI
    Molecular point group: c1

    Geometry (in Angstrom), charge = 1, multiplicity = 1:

       Center              X                  Y                   Z               Mass
    ------------   -----------------  -----------------  -----------------  -----------------
         N           -3.475820343956    -0.165755658941     0.159937898248    14.003074004430
         N           -0.677511343956     0.008107341059    -0.129097101752    14.003074004430
         C           -2.793837343956    -0.588995658941    -1.122023101752    12.000000000000
         C           -2.682578343956     0.869271341059     0.925615898248    12.000000000000
         C           -1.395873343956    -1.074127658941    -0.782560101752    12.000000000000
         C           -1.282823343956     0.330067341059     1.157144898248    12.000000000000
         C            0.835141856044    -0.220266458941    -0.024971101752    12.000000000000
         C            1.561894656044     0.965618341059    -0.236313101752    12.000000000000
         C            1.313795656044    -1.417841658941     0.249607898248    12.000000000000
         C            2.948401656044     0.800868341059    -0.134626101752    12.000000000000
         C            0.963604656044     2.311143341059    -0.549554101752    12.000000000000
         C            2.699779656044    -1.557924658941     0.328908898248    12.000000000000
         C            3.517622656044    -0.443128658941     0.142936898248    12.000000000000
         H           -2.757085343956     0.293055341059    -1.763645101752     1.007825032230
         H           -3.412615343956    -1.364040658941    -1.581663101752     1.007825032230
         H           -3.220255343956     1.074200341059     1.854940898248     1.007825032230
         H           -2.655031343956     1.764820341059     0.302182898248     1.007825032230
         H           -1.468764343956    -1.994019658941    -0.170899101752     1.007825032230
         H           -0.882203343956    -1.338551658941    -1.711167101752     1.007825032230
         H           -0.692603343956     1.107185341059     1.650106898248     1.007825032230
         H           -1.313967343956    -0.539945658941     1.841771898248     1.007825032230
         H           -4.420969343956     0.188462341059    -0.040546101752     1.007825032230
         H           -3.599896343956    -0.995916658941     0.757229898248     1.007825032230
         H            0.680005656044    -2.287755658941     0.408321898248     1.007825032230
         H            3.593845656044     1.663022341059    -0.289763101752     1.007825032230
         H            0.166708656044     2.221543341059    -1.291990101752     1.007825032230
         H            0.535849656044     2.786539341059     0.341323898248     1.007825032230
         H            1.729828656044     2.985661341059    -0.938990101752     1.007825032230
         H            3.135167656044    -2.529741658941     0.545674898248     1.007825032230
         H            4.597980656044    -0.542663658941     0.204324898248     1.007825032230

  Basis Set: AUG-CC-PVTZ
    Blend: AUG-CC-PVTZ
  Basis Set: (AUG-CC-PVTZ AUX)
    Blend: AUG-CC-PVTZ-JKFIT
	 Reference Energy          =    -535.2981169641789165 [Eh]
	 Singles Energy            =      -0.0000000000000000 [Eh]
	 Same-Spin Energy          =      -0.5849963369032284 [Eh]
	 Opposite-Spin Energy      =      -1.9172228957403421 [Eh]
	 Correlation Energy        =      -2.5022192326435704 [Eh]
	 Total Energy              =    -537.8003361968225136 [Eh]

	 ================> DF-SCS-MP2 Energies <==================
	-----------------------------------------------------------
	 SCS Same-Spin Scale       =       0.3333333333333333 [-]
	 SCS Opposite-Spin Scale   =       1.2000000000000000 [-]
	 SCS Same-Spin Energy      =      -0.1949987789677428 [Eh]
	 SCS Opposite-Spin Energy  =      -2.3006674748884106 [Eh]
	 SCS Correlation Energy    =      -2.4956662538561534 [Eh]
	 SCS Total Energy          =    -537.7937832180350597 [Eh]
	-----------------------------------------------------------

  Dipole Moment: [D]
     X:   -11.8332      Y:    -0.6732      Z:     0.7299     Total:    11.8748

*** Psi4 exiting successfully. Buy a developer a beer!
