                               Psi4 1.4a3.dev225

  ==> Input File <==

--------------------------------------------------------------------------
#psi4
#
memory 32 gb

molecule  {
1 1
  N       -3.4197460    -0.1817000     0.1602720
  N       -0.6214370    -0.0078370    -0.1287630
  C       -2.7377630    -0.6049400    -1.1216890
  C       -2.6265040     0.8533270     0.9259500
  C       -1.3397990    -1.0900720    -0.7822260
  C       -1.2267490     0.3141230     1.1574790
  C        0.8091060    -0.1845140    -0.0397240
  C        1.6179690     0.9496740    -0.2359790
  C        1.3698700    -1.4337860     0.2499420
  C        3.0044760     0.7849240    -0.1342920
  C        1.0196790     2.2951990    -0.5492200
  C        2.7558540    -1.5738690     0.3292430
  C        3.5736970    -0.4590730     0.1432710
  H       -2.7010110     0.2771110    -1.7633110
  H       -3.3565410    -1.3799850    -1.5813290
  H       -3.1641810     1.0582560     1.8552750
  H       -2.5989570     1.7488760     0.3025170
  H       -1.4126900    -2.0099640    -0.1705650
  H       -0.8261290    -1.3544960    -1.7108330
  H       -0.6365290     1.0912410     1.6504410
  H       -1.2578930    -0.5558900     1.8421060
  H       -4.5485862     0.2413608    -0.0791764
  H       -3.5438220    -1.0118610     0.7575640
  H        0.7360800    -2.3037000     0.4086560
  H        3.6499200     1.6470780    -0.2894290
  H        0.2227830     2.2055990    -1.2916560
  H        0.5919240     2.7705950     0.3416580
  H        1.7859030     2.9697170    -0.9386560
  H        3.1912420    -2.5456860     0.5460090
  H        4.6540550    -0.5586080     0.2046590
units angstrom
no_reorient  #important for SAPT in psi4, default
symmetry c1  #important for SAPT in psi4, default
}

set PROPERTIES_ORIGIN ["COM"]
properties('MP2/aug-cc-pvtz', properties = ['dipole'])
--------------------------------------------------------------------------

    Molecular point group: c1
  Charge       = 1
  Multiplicity = 1
  Basis Set: AUG-CC-PVTZ
    Blend: AUG-CC-PVTZ
  Basis Set: (AUG-CC-PVTZ AUX)
    Blend: AUG-CC-PVTZ-JKFIT

    Orbital Energies [Eh]
    ---------------------

    Doubly Occupied:

       1A    -15.877416     2A    -15.701973     3A    -11.454818
       4A    -11.454786     5A    -11.416454     6A    -11.416192
       7A    -11.374466     8A    -11.343762     9A    -11.339531
      10A    -11.331245    11A    -11.329329    12A    -11.328053
      13A    -11.323006    14A     -1.478485    15A     -1.385964
      16A     -1.248525    17A     -1.219830    18A     -1.150577
      19A     -1.138912    20A     -1.084008    21A     -1.051157
      22A     -1.031041    23A     -0.992269    24A     -0.926368
      25A     -0.906200    26A     -0.883448    27A     -0.864268
      28A     -0.821270    29A     -0.806626    30A     -0.791683
      31A     -0.785923    32A     -0.752561    33A     -0.743185
      34A     -0.732737    35A     -0.710256    36A     -0.703138
      37A     -0.685921    38A     -0.674429    39A     -0.668503
      40A     -0.658586    41A     -0.651388    42A     -0.639856
      43A     -0.599311    44A     -0.590808    45A     -0.587452
      46A     -0.520543    47A     -0.432937    48A     -0.422868

  @DF-RHF Final Energy:  -535.28083705727659

   => Energetics <=

    Nuclear Repulsion Energy =            819.1593167780359863
    One-Electron Energy =               -2336.8161801463184020
    Two-Electron Energy =                 982.3760263110057167
    Total Energy =                       -535.2808370572765853
  Basis Set: (AUG-CC-PVTZ AUX)
    Blend: AUG-CC-PVTZ-RI
    Molecular point group: c1

    Geometry (in Angstrom), charge = 1, multiplicity = 1:

       Center              X                  Y                   Z               Mass
    ------------   -----------------  -----------------  -----------------  -----------------
         N           -3.469212821938    -0.169649450942     0.161181628210    14.003074004430
         N           -0.670903821938     0.004213549058    -0.127853371790    14.003074004430
         C           -2.787229821938    -0.592889450942    -1.120779371790    12.000000000000
         C           -2.675970821938     0.865377549058     0.926859628210    12.000000000000
         C           -1.389265821938    -1.078021450942    -0.781316371790    12.000000000000
         C           -1.276215821938     0.326173549058     1.158388628210    12.000000000000
         C            0.759639178062    -0.172463450942    -0.038814371790    12.000000000000
         C            1.568502178062     0.961724549058    -0.235069371790    12.000000000000
         C            1.320403178062    -1.421735450942     0.250851628210    12.000000000000
         C            2.955009178062     0.796974549058    -0.133382371790    12.000000000000
         C            0.970212178062     2.307249549058    -0.548310371790    12.000000000000
         C            2.706387178062    -1.561818450942     0.330152628210    12.000000000000
         C            3.524230178062    -0.447022450942     0.144180628210    12.000000000000
         H           -2.750477821938     0.289161549058    -1.762401371790     1.007825032230
         H           -3.406007821938    -1.367934450942    -1.580419371790     1.007825032230
         H           -3.213647821938     1.070306549058     1.856184628210     1.007825032230
         H           -2.648423821938     1.760926549058     0.303426628210     1.007825032230
         H           -1.462156821938    -1.997913450942    -0.169655371790     1.007825032230
         H           -0.875595821938    -1.342445450942    -1.709923371790     1.007825032230
         H           -0.685995821938     1.103291549058     1.651350628210     1.007825032230
         H           -1.307359821938    -0.543839450942     1.843015628210     1.007825032230
         H           -4.598053021938     0.253411349058    -0.078266771790     1.007825032230
         H           -3.593288821938    -0.999810450942     0.758473628210     1.007825032230
         H            0.686613178062    -2.291649450942     0.409565628210     1.007825032230
         H            3.600453178062     1.659128549058    -0.288519371790     1.007825032230
         H            0.173316178062     2.217649549058    -1.290746371790     1.007825032230
         H            0.542457178062     2.782645549058     0.342567628210     1.007825032230
         H            1.736436178062     2.981767549058    -0.937746371790     1.007825032230
         H            3.141775178062    -2.533635450942     0.546918628210     1.007825032230
         H            4.604588178062    -0.546557450942     0.205568628210     1.007825032230

  Basis Set: AUG-CC-PVTZ
    Blend: AUG-CC-PVTZ
  Basis Set: (AUG-CC-PVTZ AUX)
    Blend: AUG-CC-PVTZ-JKFIT
	 Reference Energy          =    -535.2808370572765853 [Eh]
	 Singles Energy            =      -0.0000000000000000 [Eh]
	 Same-Spin Energy          =      -0.5867195674131270 [Eh]
	 Opposite-Spin Energy      =      -1.9215030264350819 [Eh]
	 Correlation Energy        =      -2.5082225938482088 [Eh]
	 Total Energy              =    -537.7890596511248305 [Eh]

	 ================> DF-SCS-MP2 Energies <==================
	-----------------------------------------------------------
	 SCS Same-Spin Scale       =       0.3333333333333333 [-]
	 SCS Opposite-Spin Scale   =       1.2000000000000000 [-]
	 SCS Same-Spin Energy      =      -0.1955731891377090 [Eh]
	 SCS Opposite-Spin Energy  =      -2.3058036317220982 [Eh]
	 SCS Correlation Energy    =      -2.5013768208598073 [Eh]
	 SCS Total Energy          =    -537.7822138781364174 [Eh]
	-----------------------------------------------------------

  Dipole Moment: [D]
     X:   -12.3631      Y:    -0.5968      Z:     0.6818     Total:    12.3962

*** Psi4 exiting successfully. Buy a developer a beer!
