                               Psi4 1.4a3.dev225

  ==> Input File <==

--------------------------------------------------------------------------
#psi4
#
memory 32 gb

molecule  {
1 1
  N       -3.4197460    -0.1817000     0.1602720
  N       -0.6214370    -0.0078370    -0.1287630
  C       -2.7377630    -0.6049400    -1.1216890
  C       -2.6265040     0.8533270     0.9259500
  C       -1.3397990    -1.0900720    -0.7822260
  C       -1.2267490     0.3141230     1.1574790
  C        0.8091060    -0.1845140    -0.0397240
  C        1.6179690     0.9496740    -0.2359790
  C        1.3698700    -1.4337860     0.2499420
  C        3.1035151     0.7731558    -0.1270284
  C        1.0196790     2.2951990    -0.5492200
  C        2.7558540    -1.5738690     0.3292430
  C        3.5736970    -0.4590730     0.1432710
  H       -2.7010110     0.2771110    -1.7633110
  H       -3.3565410    -1.3799850    -1.5813290
  H       -3.1641810     1.0582560     1.8552750
  H       -2.5989570     1.7488760     0.3025170
  H       -1.4126900    -2.0099640    -0.1705650
  H       -0.8261290    -1.3544960    -1.7108330
  H       -0.6365290     1.0912410     1.6504410
  H       -1.2578930    -0.5558900     1.8421060
  H       -4.3648950     0.1725180    -0.0402120
  H       -3.5438220    -1.0118610     0.7575640
  H        0.7360800    -2.3037000     0.4086560
  H        3.6499200     1.6470780    -0.2894290
  H        0.2227830     2.2055990    -1.2916560
  H        0.5919240     2.7705950     0.3416580
  H        1.7859030     2.9697170    -0.9386560
  H        3.1912420    -2.5456860     0.5460090
  H        4.6540550    -0.5586080     0.2046590
units angstrom
no_reorient  #important for SAPT in psi4, default
symmetry c1  #important for SAPT in psi4, default
}

set PROPERTIES_ORIGIN ["COM"]
properties('MP2/aug-cc-pvtz', properties = ['dipole'])
--------------------------------------------------------------------------

    Molecular point group: c1
  Charge       = 1
  Multiplicity = 1
  Basis Set: AUG-CC-PVTZ
    Blend: AUG-CC-PVTZ
  Basis Set: (AUG-CC-PVTZ AUX)
    Blend: AUG-CC-PVTZ-JKFIT

    Orbital Energies [Eh]
    ---------------------

    Doubly Occupied:

       1A    -15.866545     2A    -15.702722     3A    -11.456782
       4A    -11.456643     5A    -11.417466     6A    -11.416883
       7A    -11.373613     8A    -11.353914     9A    -11.340525
      10A    -11.332618    11A    -11.330908    12A    -11.324839
      13A    -11.323569    14A     -1.497437    15A     -1.389772
      16A     -1.245319    17A     -1.221726    18A     -1.158005
      19A     -1.136301    20A     -1.094742    21A     -1.053273
      22A     -1.030714    23A     -0.994180    24A     -0.935594
      25A     -0.924024    26A     -0.902208    27A     -0.866828
      28A     -0.823644    29A     -0.811164    30A     -0.793897
      31A     -0.788313    32A     -0.754720    33A     -0.744405
      34A     -0.734751    35A     -0.722140    36A     -0.703923
      37A     -0.687897    38A     -0.674428    39A     -0.668041
      40A     -0.659866    41A     -0.654199    42A     -0.644832
      43A     -0.609787    44A     -0.587641    45A     -0.574756
      46A     -0.522437    47A     -0.440062    48A     -0.414714

  @DF-RHF Final Energy:  -535.29738494749085

   => Energetics <=

    Nuclear Repulsion Energy =            818.8004927633971874
    One-Electron Energy =               -2335.8702202712056533
    Two-Electron Energy =                 981.7723425603176111
    Total Energy =                       -535.2973849474908548
  Basis Set: (AUG-CC-PVTZ AUX)
    Blend: AUG-CC-PVTZ-RI
    Molecular point group: c1

    Geometry (in Angstrom), charge = 1, multiplicity = 1:

       Center              X                  Y                   Z               Mass
    ------------   -----------------  -----------------  -----------------  -----------------
         N           -3.476967164255    -0.168460555833     0.160467881526    14.003074004430
         N           -0.678658164255     0.005402444167    -0.128567118474    14.003074004430
         C           -2.794984164255    -0.591700555833    -1.121493118474    12.000000000000
         C           -2.683725164255     0.866566444167     0.926145881526    12.000000000000
         C           -1.397020164255    -1.076832555833    -0.782030118474    12.000000000000
         C           -1.283970164255     0.327362444167     1.157674881526    12.000000000000
         C            0.751884835745    -0.171274555833    -0.039528118474    12.000000000000
         C            1.560747835745     0.962913444167    -0.235783118474    12.000000000000
         C            1.312648835745    -1.420546555833     0.250137881526    12.000000000000
         C            3.046293935745     0.786395244167    -0.126832518474    12.000000000000
         C            0.962457835745     2.308438444167    -0.549024118474    12.000000000000
         C            2.698632835745    -1.560629555833     0.329438881526    12.000000000000
         C            3.516475835745    -0.445833555833     0.143466881526    12.000000000000
         H           -2.758232164255     0.290350444167    -1.763115118474     1.007825032230
         H           -3.413762164255    -1.366745555833    -1.581133118474     1.007825032230
         H           -3.221402164255     1.071495444167     1.855470881526     1.007825032230
         H           -2.656178164255     1.762115444167     0.302712881526     1.007825032230
         H           -1.469911164255    -1.996724555833    -0.170369118474     1.007825032230
         H           -0.883350164255    -1.341256555833    -1.710637118474     1.007825032230
         H           -0.693750164255     1.104480444167     1.650636881526     1.007825032230
         H           -1.315114164255    -0.542650555833     1.842301881526     1.007825032230
         H           -4.422116164255     0.185757444167    -0.040016118474     1.007825032230
         H           -3.601043164255    -0.998621555833     0.757759881526     1.007825032230
         H            0.678858835745    -2.290460555833     0.408851881526     1.007825032230
         H            3.592698835745     1.660317444167    -0.289233118474     1.007825032230
         H            0.165561835745     2.218838444167    -1.291460118474     1.007825032230
         H            0.534702835745     2.783834444167     0.341853881526     1.007825032230
         H            1.728681835745     2.982956444167    -0.938460118474     1.007825032230
         H            3.134020835745    -2.532446555833     0.546204881526     1.007825032230
         H            4.596833835745    -0.545368555833     0.204854881526     1.007825032230

  Basis Set: AUG-CC-PVTZ
    Blend: AUG-CC-PVTZ
  Basis Set: (AUG-CC-PVTZ AUX)
    Blend: AUG-CC-PVTZ-JKFIT
	 Reference Energy          =    -535.2973849474908548 [Eh]
	 Singles Energy            =      -0.0000000000000000 [Eh]
	 Same-Spin Energy          =      -0.5851183473010919 [Eh]
	 Opposite-Spin Energy      =      -1.9177034139801796 [Eh]
	 Correlation Energy        =      -2.5028217612812718 [Eh]
	 Total Energy              =    -537.8002067087721798 [Eh]

	 ================> DF-SCS-MP2 Energies <==================
	-----------------------------------------------------------
	 SCS Same-Spin Scale       =       0.3333333333333333 [-]
	 SCS Opposite-Spin Scale   =       1.2000000000000000 [-]
	 SCS Same-Spin Energy      =      -0.1950394491003640 [Eh]
	 SCS Opposite-Spin Energy  =      -2.3012440967762156 [Eh]
	 SCS Correlation Energy    =      -2.4962835458765795 [Eh]
	 SCS Total Energy          =    -537.7936684933674769 [Eh]
	-----------------------------------------------------------

  Dipole Moment: [D]
     X:   -12.1441      Y:    -0.6334      Z:     0.7202     Total:    12.1819

*** Psi4 exiting successfully. Buy a developer a beer!
