                               Psi4 1.4a3.dev225

  ==> Input File <==

--------------------------------------------------------------------------
#psi4
#
memory 32 gb

molecule  {
1 1
  N       -3.4261232    -0.1466527     0.1213220
  N       -0.6214370    -0.0078370    -0.1287630
  C       -2.7377630    -0.6049400    -1.1216890
  C       -2.6265040     0.8533270     0.9259500
  C       -1.3397990    -1.0900720    -0.7822260
  C       -1.2267490     0.3141230     1.1574790
  C        0.8091060    -0.1845140    -0.0397240
  C        1.6179690     0.9496740    -0.2359790
  C        1.3698700    -1.4337860     0.2499420
  C        3.0044760     0.7849240    -0.1342920
  C        1.0196790     2.2951990    -0.5492200
  C        2.7558540    -1.5738690     0.3292430
  C        3.5736970    -0.4590730     0.1432710
  H       -2.7010110     0.2771110    -1.7633110
  H       -3.3565410    -1.3799850    -1.5813290
  H       -3.1641810     1.0582560     1.8552750
  H       -2.5989570     1.7488760     0.3025170
  H       -1.4126900    -2.0099640    -0.1705650
  H       -0.8261290    -1.3544960    -1.7108330
  H       -0.6365290     1.0912410     1.6504410
  H       -1.2578930    -0.5558900     1.8421060
  H       -4.3648950     0.1725180    -0.0402120
  H       -3.5438220    -1.0118610     0.7575640
  H        0.7360800    -2.3037000     0.4086560
  H        3.6499200     1.6470780    -0.2894290
  H        0.2227830     2.2055990    -1.2916560
  H        0.5919240     2.7705950     0.3416580
  H        1.7859030     2.9697170    -0.9386560
  H        3.1912420    -2.5456860     0.5460090
  H        4.6540550    -0.5586080     0.2046590
units angstrom
no_reorient  #important for SAPT in psi4, default
symmetry c1  #important for SAPT in psi4, default
}

set PROPERTIES_ORIGIN ["COM"]
properties('MP2/aug-cc-pvtz', properties = ['dipole'])
--------------------------------------------------------------------------

    Molecular point group: c1
  Charge       = 1
  Multiplicity = 1
  Basis Set: AUG-CC-PVTZ
    Blend: AUG-CC-PVTZ
  Basis Set: (AUG-CC-PVTZ AUX)
    Blend: AUG-CC-PVTZ-JKFIT

    Orbital Energies [Eh]
    ---------------------

    Doubly Occupied:

       1A    -15.868743     2A    -15.703347     3A    -11.457141
       4A    -11.455027     5A    -11.418157     6A    -11.418066
       7A    -11.375300     8A    -11.344508     9A    -11.340331
      10A    -11.331920    11A    -11.329992    12A    -11.328729
      13A    -11.323592    14A     -1.498739    15A     -1.390620
      16A     -1.250065    17A     -1.223053    18A     -1.155743
      19A     -1.142722    20A     -1.087800    21A     -1.056200
      22A     -1.031657    23A     -0.990624    24A     -0.939441
      25A     -0.926416    26A     -0.903573    27A     -0.864631
      28A     -0.821332    29A     -0.808840    30A     -0.794605
      31A     -0.791850    32A     -0.755844    33A     -0.743803
      34A     -0.733433    35A     -0.713899    36A     -0.700756
      37A     -0.688772    38A     -0.675241    39A     -0.669984
      40A     -0.660694    41A     -0.656682    42A     -0.640569
      43A     -0.600044    44A     -0.591876    45A     -0.588190
      46A     -0.521875    47A     -0.433689    48A     -0.423616

  @DF-RHF Final Energy:  -535.30467900831172

   => Energetics <=

    Nuclear Repulsion Energy =            820.3485538216153827
    One-Electron Energy =               -2338.9630073451908174
    Two-Electron Energy =                 983.3097745152635980
    Total Energy =                       -535.3046790083117230
  Basis Set: (AUG-CC-PVTZ AUX)
    Blend: AUG-CC-PVTZ-RI
    Molecular point group: c1

    Geometry (in Angstrom), charge = 1, multiplicity = 1:

       Center              X                  Y                   Z               Mass
    ------------   -----------------  -----------------  -----------------  -----------------
         N           -3.476130998754    -0.136981006110     0.125088988469    14.003074004430
         N           -0.671444798754     0.001834693890    -0.124996011531    14.003074004430
         C           -2.787770798754    -0.595268306110    -1.117922011531    12.000000000000
         C           -2.676511798754     0.862998693890     0.929716988469    12.000000000000
         C           -1.389806798754    -1.080400306110    -0.778459011531    12.000000000000
         C           -1.276756798754     0.323794693890     1.161245988469    12.000000000000
         C            0.759098201246    -0.174842306110    -0.035957011531    12.000000000000
         C            1.567961201246     0.959345693890    -0.232212011531    12.000000000000
         C            1.319862201246    -1.424114306110     0.253708988469    12.000000000000
         C            2.954468201246     0.794595693890    -0.130525011531    12.000000000000
         C            0.969671201246     2.304870693890    -0.545453011531    12.000000000000
         C            2.705846201246    -1.564197306110     0.333009988469    12.000000000000
         C            3.523689201246    -0.449401306110     0.147037988469    12.000000000000
         H           -2.751018798754     0.286782693890    -1.759544011531     1.007825032230
         H           -3.406548798754    -1.370313306110    -1.577562011531     1.007825032230
         H           -3.214188798754     1.067927693890     1.859041988469     1.007825032230
         H           -2.648964798754     1.758547693890     0.306283988469     1.007825032230
         H           -1.462697798754    -2.000292306110    -0.166798011531     1.007825032230
         H           -0.876136798754    -1.344824306110    -1.707066011531     1.007825032230
         H           -0.686536798754     1.100912693890     1.654207988469     1.007825032230
         H           -1.307900798754    -0.546218306110     1.845872988469     1.007825032230
         H           -4.414902798754     0.182189693890    -0.036445011531     1.007825032230
         H           -3.593829798754    -1.002189306110     0.761330988469     1.007825032230
         H            0.686072201246    -2.294028306110     0.412422988469     1.007825032230
         H            3.599912201246     1.656749693890    -0.285662011531     1.007825032230
         H            0.172775201246     2.215270693890    -1.287889011531     1.007825032230
         H            0.541916201246     2.780266693890     0.345424988469     1.007825032230
         H            1.735895201246     2.979388693890    -0.934889011531     1.007825032230
         H            3.141234201246    -2.536014306110     0.549775988469     1.007825032230
         H            4.604047201246    -0.548936306110     0.208425988469     1.007825032230

  Basis Set: AUG-CC-PVTZ
    Blend: AUG-CC-PVTZ
  Basis Set: (AUG-CC-PVTZ AUX)
    Blend: AUG-CC-PVTZ-JKFIT
	 Reference Energy          =    -535.3046790083117230 [Eh]
	 Singles Energy            =      -0.0000000000000000 [Eh]
	 Same-Spin Energy          =      -0.5856238111360262 [Eh]
	 Opposite-Spin Energy      =      -1.9176621592407173 [Eh]
	 Correlation Energy        =      -2.5032859703767434 [Eh]
	 Total Energy              =    -537.8079649786884602 [Eh]

	 ================> DF-SCS-MP2 Energies <==================
	-----------------------------------------------------------
	 SCS Same-Spin Scale       =       0.3333333333333333 [-]
	 SCS Opposite-Spin Scale   =       1.2000000000000000 [-]
	 SCS Same-Spin Energy      =      -0.1952079370453421 [Eh]
	 SCS Opposite-Spin Energy  =      -2.3011945910888607 [Eh]
	 SCS Correlation Energy    =      -2.4964025281342028 [Eh]
	 SCS Total Energy          =    -537.8010815364459631 [Eh]
	-----------------------------------------------------------

  Dipole Moment: [D]
     X:   -12.0865      Y:    -0.7037      Z:     0.7753     Total:    12.1318

*** Psi4 exiting successfully. Buy a developer a beer!
