                               Psi4 1.4a3.dev225

  ==> Input File <==

--------------------------------------------------------------------------
#psi4
#
memory 32 gb

molecule  {
1 1
  N       -3.4197460    -0.1817000     0.1602720
  N       -0.6214370    -0.0078370    -0.1287630
  C       -2.7377630    -0.6049400    -1.1216890
  C       -2.6265040     0.8533270     0.9259500
  C       -1.3397990    -1.0900720    -0.7822260
  C       -1.2267490     0.3141230     1.1574790
  C        0.8091060    -0.1845140    -0.0397240
  C        1.6179690     0.9496740    -0.2359790
  C        1.3698700    -1.4337860     0.2499420
  C        3.0044760     0.7849240    -0.1342920
  C        1.0196790     2.2951990    -0.5492200
  C        2.7558540    -1.5738690     0.3292430
  C        3.5736970    -0.4590730     0.1432710
  H       -2.7010110     0.2771110    -1.7633110
  H       -3.3565410    -1.3799850    -1.5813290
  H       -3.1641810     1.0582560     1.8552750
  H       -2.5989570     1.7488760     0.3025170
  H       -1.4126900    -2.0099640    -0.1705650
  H       -0.8355226    -1.3496604    -1.6938513
  H       -0.6365290     1.0912410     1.6504410
  H       -1.2578930    -0.5558900     1.8421060
  H       -4.3648950     0.1725180    -0.0402120
  H       -3.5438220    -1.0118610     0.7575640
  H        0.7360800    -2.3037000     0.4086560
  H        3.6499200     1.6470780    -0.2894290
  H        0.2227830     2.2055990    -1.2916560
  H        0.5919240     2.7705950     0.3416580
  H        1.7859030     2.9697170    -0.9386560
  H        3.1912420    -2.5456860     0.5460090
  H        4.6540550    -0.5586080     0.2046590
units angstrom
no_reorient  #important for SAPT in psi4, default
symmetry c1  #important for SAPT in psi4, default
}

set PROPERTIES_ORIGIN ["COM"]
properties('MP2/aug-cc-pvtz', properties = ['dipole'])
--------------------------------------------------------------------------

    Molecular point group: c1
  Charge       = 1
  Multiplicity = 1
  Basis Set: AUG-CC-PVTZ
    Blend: AUG-CC-PVTZ
  Basis Set: (AUG-CC-PVTZ AUX)
    Blend: AUG-CC-PVTZ-JKFIT

    Orbital Energies [Eh]
    ---------------------

    Doubly Occupied:

       1A    -15.866619     2A    -15.702956     3A    -11.456779
       4A    -11.456744     5A    -11.417175     6A    -11.415409
       7A    -11.375190     8A    -11.344402     9A    -11.340218
      10A    -11.331832    11A    -11.329908    12A    -11.328636
      13A    -11.323586    14A     -1.497511    15A     -1.390337
      16A     -1.249975    17A     -1.222272    18A     -1.155716
      19A     -1.142677    20A     -1.088123    21A     -1.054539
      22A     -1.032027    23A     -0.996281    24A     -0.935659
      25A     -0.924980    26A     -0.903383    27A     -0.867506
      28A     -0.823738    29A     -0.810171    30A     -0.794750
      31A     -0.788610    32A     -0.755305    33A     -0.744952
      34A     -0.734929    35A     -0.714660    36A     -0.704599
      37A     -0.687709    38A     -0.675240    39A     -0.669910
      40A     -0.661573    41A     -0.655723    42A     -0.640565
      43A     -0.599978    44A     -0.591699    45A     -0.588085
      46A     -0.521642    47A     -0.433582    48A     -0.423499

  @DF-RHF Final Energy:  -535.30899413651150

   => Energetics <=

    Nuclear Repulsion Energy =            820.3987339380832964
    One-Electron Energy =               -2339.0727302631003113
    Two-Electron Energy =                 983.3650021885055139
    Total Energy =                       -535.3089941365115010
  Basis Set: (AUG-CC-PVTZ AUX)
    Blend: AUG-CC-PVTZ-RI
    Molecular point group: c1

    Geometry (in Angstrom), charge = 1, multiplicity = 1:

       Center              X                  Y                   Z               Mass
    ------------   -----------------  -----------------  -----------------  -----------------
         N           -3.470204479971    -0.169285284975     0.160863325494    14.003074004430
         N           -0.671895479971     0.004577715025    -0.128171674506    14.003074004430
         C           -2.788221479971    -0.592525284975    -1.121097674506    12.000000000000
         C           -2.676962479971     0.865741715025     0.926541325494    12.000000000000
         C           -1.390257479971    -1.077657284975    -0.781634674506    12.000000000000
         C           -1.277207479971     0.326537715025     1.158070325494    12.000000000000
         C            0.758647520029    -0.172099284975    -0.039132674506    12.000000000000
         C            1.567510520029     0.962088715025    -0.235387674506    12.000000000000
         C            1.319411520029    -1.421371284975     0.250533325494    12.000000000000
         C            2.954017520029     0.797338715025    -0.133700674506    12.000000000000
         C            0.969220520029     2.307613715025    -0.548628674506    12.000000000000
         C            2.705395520029    -1.561454284975     0.329834325494    12.000000000000
         C            3.523238520029    -0.446658284975     0.143862325494    12.000000000000
         H           -2.751469479971     0.289525715025    -1.762719674506     1.007825032230
         H           -3.406999479971    -1.367570284975    -1.580737674506     1.007825032230
         H           -3.214639479971     1.070670715025     1.855866325494     1.007825032230
         H           -2.649415479971     1.761290715025     0.303108325494     1.007825032230
         H           -1.463148479971    -1.997549284975    -0.169973674506     1.007825032230
         H           -0.885981079971    -1.337245684975    -1.693259974506     1.007825032230
         H           -0.686987479971     1.103655715025     1.651032325494     1.007825032230
         H           -1.308351479971    -0.543475284975     1.842697325494     1.007825032230
         H           -4.415353479971     0.184932715025    -0.039620674506     1.007825032230
         H           -3.594280479971    -0.999446284975     0.758155325494     1.007825032230
         H            0.685621520029    -2.291285284975     0.409247325494     1.007825032230
         H            3.599461520029     1.659492715025    -0.288837674506     1.007825032230
         H            0.172324520029     2.218013715025    -1.291064674506     1.007825032230
         H            0.541465520029     2.783009715025     0.342249325494     1.007825032230
         H            1.735444520029     2.982131715025    -0.938064674506     1.007825032230
         H            3.140783520029    -2.533271284975     0.546600325494     1.007825032230
         H            4.603596520029    -0.546193284975     0.205250325494     1.007825032230

  Basis Set: AUG-CC-PVTZ
    Blend: AUG-CC-PVTZ
  Basis Set: (AUG-CC-PVTZ AUX)
    Blend: AUG-CC-PVTZ-JKFIT
	 Reference Energy          =    -535.3089941365115010 [Eh]
	 Singles Energy            =      -0.0000000000000000 [Eh]
	 Same-Spin Energy          =      -0.5852511201869715 [Eh]
	 Opposite-Spin Energy      =      -1.9169854984524770 [Eh]
	 Correlation Energy        =      -2.5022366186394485 [Eh]
	 Total Energy              =    -537.8112307551509730 [Eh]

	 ================> DF-SCS-MP2 Energies <==================
	-----------------------------------------------------------
	 SCS Same-Spin Scale       =       0.3333333333333333 [-]
	 SCS Opposite-Spin Scale   =       1.2000000000000000 [-]
	 SCS Same-Spin Energy      =      -0.1950837067289905 [Eh]
	 SCS Opposite-Spin Energy  =      -2.3003825981429724 [Eh]
	 SCS Correlation Energy    =      -2.4954663048719627 [Eh]
	 SCS Total Energy          =    -537.8044604413834122 [Eh]
	-----------------------------------------------------------

  Dipole Moment: [D]
     X:   -12.1085      Y:    -0.6858      Z:     0.7322     Total:    12.1500

*** Psi4 exiting successfully. Buy a developer a beer!
