                               Psi4 1.4a3.dev225

  ==> Input File <==

--------------------------------------------------------------------------
#psi4
#
memory 32 gb

molecule  {
1 1
  N       -3.4197460    -0.1817000     0.1602720
  N       -0.6214370    -0.0078370    -0.1287630
  C       -2.7377630    -0.6049400    -1.1216890
  C       -2.6265040     0.8533270     0.9259500
  C       -1.3397990    -1.0900720    -0.7822260
  C       -1.2267490     0.3141230     1.1574790
  C        0.8091060    -0.1845140    -0.0397240
  C        1.6179690     0.9496740    -0.2359790
  C        1.3698700    -1.4337860     0.2499420
  C        3.0044760     0.7849240    -0.1342920
  C        1.0196790     2.2951990    -0.5492200
  C        2.7558540    -1.5738690     0.3292430
  C        3.5736970    -0.4590730     0.1432710
  H       -2.7010110     0.2771110    -1.7633110
  H       -3.3565410    -1.3799850    -1.5813290
  H       -3.1641810     1.0582560     1.8552750
  H       -2.5989570     1.7488760     0.3025170
  H       -1.4126900    -2.0099640    -0.1705650
  H       -0.8261290    -1.3544960    -1.7108330
  H       -0.6365290     1.0912410     1.6504410
  H       -1.2578930    -0.5558900     1.8421060
  H       -4.3648950     0.1725180    -0.0402120
  H       -3.5438220    -1.0118610     0.7575640
  H        0.7069522    -2.3436796     0.4159502
  H        3.6499200     1.6470780    -0.2894290
  H        0.2227830     2.2055990    -1.2916560
  H        0.5919240     2.7705950     0.3416580
  H        1.7859030     2.9697170    -0.9386560
  H        3.1912420    -2.5456860     0.5460090
  H        4.6540550    -0.5586080     0.2046590
units angstrom
no_reorient  #important for SAPT in psi4, default
symmetry c1  #important for SAPT in psi4, default
}

set PROPERTIES_ORIGIN ["COM"]
properties('MP2/aug-cc-pvtz', properties = ['dipole'])
--------------------------------------------------------------------------

    Molecular point group: c1
  Charge       = 1
  Multiplicity = 1
  Basis Set: AUG-CC-PVTZ
    Blend: AUG-CC-PVTZ
  Basis Set: (AUG-CC-PVTZ AUX)
    Blend: AUG-CC-PVTZ-JKFIT

    Orbital Energies [Eh]
    ---------------------

    Doubly Occupied:

       1A    -15.866549     2A    -15.703063     3A    -11.456728
       4A    -11.456667     5A    -11.417319     6A    -11.417203
       7A    -11.375726     8A    -11.345971     9A    -11.344795
      10A    -11.332353    11A    -11.330190    12A    -11.328973
      13A    -11.323798    14A     -1.497452    15A     -1.390195
      16A     -1.250032    17A     -1.221754    18A     -1.155751
      19A     -1.142008    20A     -1.087355    21A     -1.053397
      22A     -1.032175    23A     -0.995866    24A     -0.934489
      25A     -0.923333    26A     -0.902560    27A     -0.867311
      28A     -0.823622    29A     -0.810098    30A     -0.792821
      31A     -0.788426    32A     -0.751635    33A     -0.744829
      34A     -0.734514    35A     -0.713270    36A     -0.702706
      37A     -0.687550    38A     -0.675368    39A     -0.668308
      40A     -0.659773    41A     -0.655202    42A     -0.640671
      43A     -0.599862    44A     -0.590607    45A     -0.588136
      46A     -0.521621    47A     -0.433849    48A     -0.423834

  @DF-RHF Final Energy:  -535.30632524264297

   => Energetics <=

    Nuclear Repulsion Energy =            820.0486210509061493
    One-Electron Energy =               -2338.3904632023022714
    Two-Electron Energy =                 983.0355169087531522
    Total Energy =                       -535.3063252426429699
  Basis Set: (AUG-CC-PVTZ AUX)
    Blend: AUG-CC-PVTZ-RI
    Molecular point group: c1

    Geometry (in Angstrom), charge = 1, multiplicity = 1:

       Center              X                  Y                   Z               Mass
    ------------   -----------------  -----------------  -----------------  -----------------
         N           -3.470092203164    -0.169030310993     0.160918442072    14.003074004430
         N           -0.671783203164     0.004832689007    -0.128116557928    14.003074004430
         C           -2.788109203164    -0.592270310993    -1.121042557928    12.000000000000
         C           -2.676850203164     0.865996689007     0.926596442072    12.000000000000
         C           -1.390145203164    -1.077402310993    -0.781579557928    12.000000000000
         C           -1.277095203164     0.326792689007     1.158125442072    12.000000000000
         C            0.758759796836    -0.171844310993    -0.039077557928    12.000000000000
         C            1.567622796836     0.962343689007    -0.235332557928    12.000000000000
         C            1.319523796836    -1.421116310993     0.250588442072    12.000000000000
         C            2.954129796836     0.797593689007    -0.133645557928    12.000000000000
         C            0.969332796836     2.307868689007    -0.548573557928    12.000000000000
         C            2.705507796836    -1.561199310993     0.329889442072    12.000000000000
         C            3.523350796836    -0.446403310993     0.143917442072    12.000000000000
         H           -2.751357203164     0.289780689007    -1.762664557928     1.007825032230
         H           -3.406887203164    -1.367315310993    -1.580682557928     1.007825032230
         H           -3.214527203164     1.070925689007     1.855921442072     1.007825032230
         H           -2.649303203164     1.761545689007     0.303163442072     1.007825032230
         H           -1.463036203164    -1.997294310993    -0.169918557928     1.007825032230
         H           -0.876475203164    -1.341826310993    -1.710186557928     1.007825032230
         H           -0.686875203164     1.103910689007     1.651087442072     1.007825032230
         H           -1.308239203164    -0.543220310993     1.842752442072     1.007825032230
         H           -4.415241203164     0.185187689007    -0.039565557928     1.007825032230
         H           -3.594168203164    -0.999191310993     0.758210442072     1.007825032230
         H            0.656605996836    -2.331009910993     0.416596642072     1.007825032230
         H            3.599573796836     1.659747689007    -0.288782557928     1.007825032230
         H            0.172436796836     2.218268689007    -1.291009557928     1.007825032230
         H            0.541577796836     2.783264689007     0.342304442072     1.007825032230
         H            1.735556796836     2.982386689007    -0.938009557928     1.007825032230
         H            3.140895796836    -2.533016310993     0.546655442072     1.007825032230
         H            4.603708796836    -0.545938310993     0.205305442072     1.007825032230

  Basis Set: AUG-CC-PVTZ
    Blend: AUG-CC-PVTZ
  Basis Set: (AUG-CC-PVTZ AUX)
    Blend: AUG-CC-PVTZ-JKFIT
	 Reference Energy          =    -535.3063252426429699 [Eh]
	 Singles Energy            =      -0.0000000000000000 [Eh]
	 Same-Spin Energy          =      -0.5854544821156131 [Eh]
	 Opposite-Spin Energy      =      -1.9176184754655310 [Eh]
	 Correlation Energy        =      -2.5030729575811441 [Eh]
	 Total Energy              =    -537.8093982002241091 [Eh]

	 ================> DF-SCS-MP2 Energies <==================
	-----------------------------------------------------------
	 SCS Same-Spin Scale       =       0.3333333333333333 [-]
	 SCS Opposite-Spin Scale   =       1.2000000000000000 [-]
	 SCS Same-Spin Energy      =      -0.1951514940385377 [Eh]
	 SCS Opposite-Spin Energy  =      -2.3011421705586370 [Eh]
	 SCS Correlation Energy    =      -2.4962936645971747 [Eh]
	 SCS Total Energy          =    -537.8026189072401166 [Eh]
	-----------------------------------------------------------

  Dipole Moment: [D]
     X:   -12.0879      Y:    -0.6707      Z:     0.7307     Total:    12.1285

*** Psi4 exiting successfully. Buy a developer a beer!
