                               Psi4 1.4a3.dev225

  ==> Input File <==

--------------------------------------------------------------------------
#psi4
#
memory 32 gb

molecule  {
1 1
  N       -3.4197460    -0.1817000     0.1602720
  N       -0.6214370    -0.0078370    -0.1287630
  C       -2.7377630    -0.6049400    -1.1216890
  C       -2.6265040     0.8533270     0.9259500
  C       -1.3397990    -1.0900720    -0.7822260
  C       -1.2267490     0.3141230     1.1574790
  C        0.8091060    -0.1845140    -0.0397240
  C        1.6179690     0.9496740    -0.2359790
  C        1.3698700    -1.4337860     0.2499420
  C        3.0044760     0.7849240    -0.1342920
  C        1.0196790     2.2951990    -0.5492200
  C        2.7558540    -1.5738690     0.3292430
  C        3.5736970    -0.4590730     0.1432710
  H       -2.7010110     0.2771110    -1.7633110
  H       -3.3565410    -1.3799850    -1.5813290
  H       -3.1641810     1.0582560     1.8552750
  H       -2.5989570     1.7488760     0.3025170
  H       -1.4126900    -2.0099640    -0.1705650
  H       -0.8261290    -1.3544960    -1.7108330
  H       -0.6365290     1.0912410     1.6504410
  H       -1.2578930    -0.5558900     1.8421060
  H       -4.3648950     0.1725180    -0.0402120
  H       -3.5438220    -1.0118610     0.7575640
  H        0.7360800    -2.3037000     0.4086560
  H        3.6499200     1.6470780    -0.2894290
  H        0.2227830     2.2055990    -1.2916560
  H        0.5919240     2.7705950     0.3416580
  H        1.7859030     2.9697170    -0.9386560
  H        3.2313061    -2.6351119     0.5659557
  H        4.6540550    -0.5586080     0.2046590
units angstrom
no_reorient  #important for SAPT in psi4, default
symmetry c1  #important for SAPT in psi4, default
}

set PROPERTIES_ORIGIN ["COM"]
properties('MP2/aug-cc-pvtz', properties = ['dipole'])
--------------------------------------------------------------------------

    Molecular point group: c1
  Charge       = 1
  Multiplicity = 1
  Basis Set: AUG-CC-PVTZ
    Blend: AUG-CC-PVTZ
  Basis Set: (AUG-CC-PVTZ AUX)
    Blend: AUG-CC-PVTZ-JKFIT

    Orbital Energies [Eh]
    ---------------------

    Doubly Occupied:

       1A    -15.866778     2A    -15.703424     3A    -11.456969
       4A    -11.456946     5A    -11.417739     6A    -11.417479
       7A    -11.375744     8A    -11.344677     9A    -11.342780
      10A    -11.340777    11A    -11.330662    12A    -11.329444
      13A    -11.323804    14A     -1.497696    15A     -1.390567
      16A     -1.250051    17A     -1.222040    18A     -1.155052
      19A     -1.142210    20A     -1.088579    21A     -1.053654
      22A     -1.030046    23A     -0.996003    24A     -0.935569
      25A     -0.924514    26A     -0.900801    27A     -0.866381
      28A     -0.823877    29A     -0.805836    30A     -0.793111
      31A     -0.788195    32A     -0.755134    33A     -0.744924
      34A     -0.734721    35A     -0.713459    36A     -0.702000
      37A     -0.687615    38A     -0.675065    39A     -0.663884
      40A     -0.659302    41A     -0.653634    42A     -0.640844
      43A     -0.595595    44A     -0.592261    45A     -0.587550
      46A     -0.521440    47A     -0.434067    48A     -0.423871

  @DF-RHF Final Energy:  -535.30146149418260

   => Energetics <=

    Nuclear Repulsion Energy =            819.7813626139245571
    One-Electron Energy =               -2337.8521111872996698
    Two-Electron Energy =                 982.7692870791925088
    Total Energy =                       -535.3014614941826039
  Basis Set: (AUG-CC-PVTZ AUX)
    Blend: AUG-CC-PVTZ-RI
    Molecular point group: c1

    Geometry (in Angstrom), charge = 1, multiplicity = 1:

       Center              X                  Y                   Z               Mass
    ------------   -----------------  -----------------  -----------------  -----------------
         N           -3.470485867239    -0.168748988585     0.160846456265    14.003074004430
         N           -0.672176867239     0.005114011415    -0.128188543735    14.003074004430
         C           -2.788502867239    -0.591988988585    -1.121114543735    12.000000000000
         C           -2.677243867239     0.866278011415     0.926524456265    12.000000000000
         C           -1.390538867239    -1.077120988585    -0.781651543735    12.000000000000
         C           -1.277488867239     0.327074011415     1.158053456265    12.000000000000
         C            0.758366132761    -0.171562988585    -0.039149543735    12.000000000000
         C            1.567229132761     0.962625011415    -0.235404543735    12.000000000000
         C            1.319130132761    -1.420834988585     0.250516456265    12.000000000000
         C            2.953736132761     0.797875011415    -0.133717543735    12.000000000000
         C            0.968939132761     2.308150011415    -0.548645543735    12.000000000000
         C            2.705114132761    -1.560917988585     0.329817456265    12.000000000000
         C            3.522957132761    -0.446121988585     0.143845456265    12.000000000000
         H           -2.751750867239     0.290062011415    -1.762736543735     1.007825032230
         H           -3.407280867239    -1.367033988585    -1.580754543735     1.007825032230
         H           -3.214920867239     1.071207011415     1.855849456265     1.007825032230
         H           -2.649696867239     1.761827011415     0.303091456265     1.007825032230
         H           -1.463429867239    -1.997012988585    -0.169990543735     1.007825032230
         H           -0.876868867239    -1.341544988585    -1.710258543735     1.007825032230
         H           -0.687268867239     1.104192011415     1.651015456265     1.007825032230
         H           -1.308632867239    -0.542938988585     1.842680456265     1.007825032230
         H           -4.415634867239     0.185469011415    -0.039637543735     1.007825032230
         H           -3.594561867239    -0.998909988585     0.758138456265     1.007825032230
         H            0.685340132761    -2.290748988585     0.409230456265     1.007825032230
         H            3.599180132761     1.660029011415    -0.288854543735     1.007825032230
         H            0.172043132761     2.218550011415    -1.291081543735     1.007825032230
         H            0.541184132761     2.783546011415     0.342232456265     1.007825032230
         H            1.735163132761     2.982668011415    -0.938081543735     1.007825032230
         H            3.180566232761    -2.622160888585     0.566530156265     1.007825032230
         H            4.603315132761    -0.545656988585     0.205233456265     1.007825032230

  Basis Set: AUG-CC-PVTZ
    Blend: AUG-CC-PVTZ
  Basis Set: (AUG-CC-PVTZ AUX)
    Blend: AUG-CC-PVTZ-JKFIT
	 Reference Energy          =    -535.3014614941826039 [Eh]
	 Singles Energy            =      -0.0000000000000000 [Eh]
	 Same-Spin Energy          =      -0.5855233156796779 [Eh]
	 Opposite-Spin Energy      =      -1.9181182391484819 [Eh]
	 Correlation Energy        =      -2.5036415548281599 [Eh]
	 Total Energy              =    -537.8051030490107678 [Eh]

	 ================> DF-SCS-MP2 Energies <==================
	-----------------------------------------------------------
	 SCS Same-Spin Scale       =       0.3333333333333333 [-]
	 SCS Opposite-Spin Scale   =       1.2000000000000000 [-]
	 SCS Same-Spin Energy      =      -0.1951744385598926 [Eh]
	 SCS Opposite-Spin Energy  =      -2.3017418869781783 [Eh]
	 SCS Correlation Energy    =      -2.4969163255380709 [Eh]
	 SCS Total Energy          =    -537.7983778197207130 [Eh]
	-----------------------------------------------------------

  Dipole Moment: [D]
     X:   -12.1228      Y:    -0.6624      Z:     0.7278     Total:    12.1627

*** Psi4 exiting successfully. Buy a developer a beer!
