                               Psi4 1.4a3.dev225

  ==> Input File <==

--------------------------------------------------------------------------
#psi4
#
memory 32 gb

molecule  {
1 1
  N       -3.4197460    -0.1817000     0.1602720
  N       -0.6214370    -0.0078370    -0.1287630
  C       -2.7377630    -0.6049400    -1.1216890
  C       -2.6265040     0.8533270     0.9259500
  C       -1.3397990    -1.0900720    -0.7822260
  C       -1.2267490     0.3141230     1.1574790
  C        0.8091060    -0.1845140    -0.0397240
  C        1.6179690     0.9496740    -0.2359790
  C        1.3698700    -1.4337860     0.2499420
  C        3.0044760     0.7849240    -0.1342920
  C        1.0196790     2.2951990    -0.5492200
  C        2.7558540    -1.5738690     0.3292430
  C        3.5736970    -0.4590730     0.1432710
  H       -2.7010110     0.2771110    -1.7633110
  H       -3.3565410    -1.3799850    -1.5813290
  H       -3.1641810     1.0582560     1.8552750
  H       -2.5989570     1.7488760     0.3025170
  H       -1.4126900    -2.0099640    -0.1705650
  H       -0.8261290    -1.3544960    -1.7108330
  H       -0.6365290     1.0912410     1.6504410
  H       -1.2578930    -0.5558900     1.8421060
  H       -4.3648950     0.1725180    -0.0402120
  H       -3.5438220    -1.0118610     0.7575640
  H        0.7360800    -2.3037000     0.4086560
  H        3.6499200     1.6470780    -0.2894290
  H        0.3686235     2.2219968    -1.1557823
  H        0.5919240     2.7705950     0.3416580
  H        1.7859030     2.9697170    -0.9386560
  H        3.1912420    -2.5456860     0.5460090
  H        4.6540550    -0.5586080     0.2046590
units angstrom
no_reorient  #important for SAPT in psi4, default
symmetry c1  #important for SAPT in psi4, default
}

set PROPERTIES_ORIGIN ["COM"]
properties('MP2/aug-cc-pvtz', properties = ['dipole'])
--------------------------------------------------------------------------

    Molecular point group: c1
  Charge       = 1
  Multiplicity = 1
  Basis Set: AUG-CC-PVTZ
    Blend: AUG-CC-PVTZ
  Basis Set: (AUG-CC-PVTZ AUX)
    Blend: AUG-CC-PVTZ-JKFIT

    Orbital Energies [Eh]
    ---------------------

    Doubly Occupied:

       1A    -15.866831     2A    -15.703591     3A    -11.457046
       4A    -11.456989     5A    -11.417758     6A    -11.417392
       7A    -11.374824     8A    -11.343101     9A    -11.339837
      10A    -11.331323    11A    -11.329057    12A    -11.327872
      13A    -11.299253    14A     -1.497750    15A     -1.390551
      16A     -1.250022    17A     -1.222087    18A     -1.158018
      19A     -1.147041    20A     -1.089287    21A     -1.053704
      22A     -1.048160    23A     -0.996815    24A     -0.935423
      25A     -0.924243    26A     -0.907232    27A     -0.868106
      28A     -0.823993    29A     -0.811795    30A     -0.793610
      31A     -0.788771    32A     -0.755689    33A     -0.748358
      34A     -0.736073    35A     -0.714480    36A     -0.710701
      37A     -0.690722    38A     -0.687578    39A     -0.670440
      40A     -0.660232    41A     -0.658547    42A     -0.645146
      43A     -0.599116    44A     -0.594097    45A     -0.588409
      46A     -0.522683    47A     -0.433223    48A     -0.423359

  @DF-RHF Final Energy:  -535.27498994690393

   => Energetics <=

    Nuclear Repulsion Energy =            821.1794585340350068
    One-Electron Energy =               -2340.4882297453568754
    Two-Electron Energy =                 984.0337812644180531
    Total Energy =                       -535.2749899469039292
  Basis Set: (AUG-CC-PVTZ AUX)
    Blend: AUG-CC-PVTZ-RI
    Molecular point group: c1

    Geometry (in Angstrom), charge = 1, multiplicity = 1:

       Center              X                  Y                   Z               Mass
    ------------   -----------------  -----------------  -----------------  -----------------
         N           -3.471087677113    -0.169351067571     0.160186895028    14.003074004430
         N           -0.672778677113     0.004511932429    -0.128848104972    14.003074004430
         C           -2.789104677113    -0.592591067571    -1.121774104972    12.000000000000
         C           -2.677845677113     0.865675932429     0.925864895028    12.000000000000
         C           -1.391140677113    -1.077723067571    -0.782311104972    12.000000000000
         C           -1.278090677113     0.326471932429     1.157393895028    12.000000000000
         C            0.757764322887    -0.172165067571    -0.039809104972    12.000000000000
         C            1.566627322887     0.962022932429    -0.236064104972    12.000000000000
         C            1.318528322887    -1.421437067571     0.249856895028    12.000000000000
         C            2.953134322887     0.797272932429    -0.134377104972    12.000000000000
         C            0.968337322887     2.307547932429    -0.549305104972    12.000000000000
         C            2.704512322887    -1.561520067571     0.329157895028    12.000000000000
         C            3.522355322887    -0.446724067571     0.143185895028    12.000000000000
         H           -2.752352677113     0.289459932429    -1.763396104972     1.007825032230
         H           -3.407882677113    -1.367636067571    -1.581414104972     1.007825032230
         H           -3.215522677113     1.070604932429     1.855189895028     1.007825032230
         H           -2.650298677113     1.761224932429     0.302431895028     1.007825032230
         H           -1.464031677113    -1.997615067571    -0.170650104972     1.007825032230
         H           -0.877470677113    -1.342147067571    -1.710918104972     1.007825032230
         H           -0.687870677113     1.103589932429     1.650355895028     1.007825032230
         H           -1.309234677113    -0.543541067571     1.842020895028     1.007825032230
         H           -4.416236677113     0.184866932429    -0.040297104972     1.007825032230
         H           -3.595163677113    -0.999512067571     0.757478895028     1.007825032230
         H            0.684738322887    -2.291351067571     0.408570895028     1.007825032230
         H            3.598578322887     1.659426932429    -0.289514104972     1.007825032230
         H            0.317281822887     2.234345732429    -1.155867404972     1.007825032230
         H            0.540582322887     2.782943932429     0.341572895028     1.007825032230
         H            1.734561322887     2.982065932429    -0.938741104972     1.007825032230
         H            3.139900322887    -2.533337067571     0.545923895028     1.007825032230
         H            4.602713322887    -0.546259067571     0.204573895028     1.007825032230

  Basis Set: AUG-CC-PVTZ
    Blend: AUG-CC-PVTZ
  Basis Set: (AUG-CC-PVTZ AUX)
    Blend: AUG-CC-PVTZ-JKFIT
	 Reference Energy          =    -535.2749899469039292 [Eh]
	 Singles Energy            =      -0.0000000000000000 [Eh]
	 Same-Spin Energy          =      -0.5851821850748251 [Eh]
	 Opposite-Spin Energy      =      -1.9163526420452706 [Eh]
	 Correlation Energy        =      -2.5015348271200954 [Eh]
	 Total Energy              =    -537.7765247740239829 [Eh]

	 ================> DF-SCS-MP2 Energies <==================
	-----------------------------------------------------------
	 SCS Same-Spin Scale       =       0.3333333333333333 [-]
	 SCS Opposite-Spin Scale   =       1.2000000000000000 [-]
	 SCS Same-Spin Energy      =      -0.1950607283582750 [Eh]
	 SCS Opposite-Spin Energy  =      -2.2996231704543244 [Eh]
	 SCS Correlation Energy    =      -2.4946838988125992 [Eh]
	 SCS Total Energy          =    -537.7696738457165111 [Eh]
	-----------------------------------------------------------

  Dipole Moment: [D]
     X:   -12.1590      Y:    -0.6572      Z:     0.6940     Total:    12.1965

*** Psi4 exiting successfully. Buy a developer a beer!
