                               Psi4 1.4a3.dev225

  ==> Input File <==

--------------------------------------------------------------------------
#psi4
#
memory 32 gb

molecule  {
1 1
  N       -3.4197460    -0.1817000     0.1602720
  N       -0.6214370    -0.0078370    -0.1287630
  C       -2.7377630    -0.6049400    -1.1216890
  C       -2.6265040     0.8533270     0.9259500
  C       -1.3397990    -1.0900720    -0.7822260
  C       -1.2267490     0.3141230     1.1574790
  C        0.8091060    -0.1845140    -0.0397240
  C        1.6179690     0.9496740    -0.2359790
  C        1.3698700    -1.4337860     0.2499420
  C        3.0044760     0.7849240    -0.1342920
  C        1.0196790     2.2951990    -0.5492200
  C        2.7558540    -1.5738690     0.3292430
  C        3.5736970    -0.4590730     0.1432710
  H       -2.7010110     0.2771110    -1.7633110
  H       -3.3565410    -1.3799850    -1.5813290
  H       -3.1641810     1.0582560     1.8552750
  H       -2.5989570     1.7488760     0.3025170
  H       -1.4126900    -2.0099640    -0.1705650
  H       -0.8261290    -1.3544960    -1.7108330
  H       -0.6365290     1.0912410     1.6504410
  H       -1.2592990    -0.5951674     1.8730140
  H       -4.3648950     0.1725180    -0.0402120
  H       -3.5438220    -1.0118610     0.7575640
  H        0.7360800    -2.3037000     0.4086560
  H        3.6499200     1.6470780    -0.2894290
  H        0.2227830     2.2055990    -1.2916560
  H        0.5919240     2.7705950     0.3416580
  H        1.7859030     2.9697170    -0.9386560
  H        3.1912420    -2.5456860     0.5460090
  H        4.6540550    -0.5586080     0.2046590
units angstrom
no_reorient  #important for SAPT in psi4, default
symmetry c1  #important for SAPT in psi4, default
}

set PROPERTIES_ORIGIN ["COM"]
properties('MP2/aug-cc-pvtz', properties = ['dipole'])
--------------------------------------------------------------------------

    Molecular point group: c1
  Charge       = 1
  Multiplicity = 1
  Basis Set: AUG-CC-PVTZ
    Blend: AUG-CC-PVTZ
  Basis Set: (AUG-CC-PVTZ AUX)
    Blend: AUG-CC-PVTZ-JKFIT

    Orbital Energies [Eh]
    ---------------------

    Doubly Occupied:

       1A    -15.866613     2A    -15.704184     3A    -11.457279
       4A    -11.456919     5A    -11.422925     6A    -11.417693
       7A    -11.375370     8A    -11.344621     9A    -11.340358
      10A    -11.331916    11A    -11.330022    12A    -11.328766
      13A    -11.323827    14A     -1.497520    15A     -1.390466
      16A     -1.250016    17A     -1.221324    18A     -1.155556
      19A     -1.142779    20A     -1.088309    21A     -1.052292
      22A     -1.032161    23A     -0.994410    24A     -0.935105
      25A     -0.924044    26A     -0.903536    27A     -0.866713
      28A     -0.822174    29A     -0.809247    30A     -0.793220
      31A     -0.788253    32A     -0.755197    33A     -0.744886
      34A     -0.734846    35A     -0.714620    36A     -0.703556
      37A     -0.684012    38A     -0.675400    39A     -0.669673
      40A     -0.659694    41A     -0.655564    42A     -0.640725
      43A     -0.599808    44A     -0.591892    45A     -0.588226
      46A     -0.521413    47A     -0.433724    48A     -0.423701

  @DF-RHF Final Energy:  -535.30666364274043

   => Energetics <=

    Nuclear Repulsion Energy =            820.0319033560591606
    One-Electron Energy =               -2338.3480235308229567
    Two-Electron Energy =                 983.0094565320234778
    Total Energy =                       -535.3066636427404319
  Basis Set: (AUG-CC-PVTZ AUX)
    Blend: AUG-CC-PVTZ-RI
    Molecular point group: c1

    Geometry (in Angstrom), charge = 1, multiplicity = 1:

       Center              X                  Y                   Z               Mass
    ------------   -----------------  -----------------  -----------------  -----------------
         N           -3.470249925047    -0.169034306128     0.160784092462    14.003074004430
         N           -0.671940925047     0.004828693872    -0.128250907538    14.003074004430
         C           -2.788266925047    -0.592274306128    -1.121176907538    12.000000000000
         C           -2.677007925047     0.865992693872     0.926462092462    12.000000000000
         C           -1.390302925047    -1.077406306128    -0.781713907538    12.000000000000
         C           -1.277252925047     0.326788693872     1.157991092462    12.000000000000
         C            0.758602074953    -0.171848306128    -0.039211907538    12.000000000000
         C            1.567465074953     0.962339693872    -0.235466907538    12.000000000000
         C            1.319366074953    -1.421120306128     0.250454092462    12.000000000000
         C            2.953972074953     0.797589693872    -0.133779907538    12.000000000000
         C            0.969175074953     2.307864693872    -0.548707907538    12.000000000000
         C            2.705350074953    -1.561203306128     0.329755092462    12.000000000000
         C            3.523193074953    -0.446407306128     0.143783092462    12.000000000000
         H           -2.751514925047     0.289776693872    -1.762798907538     1.007825032230
         H           -3.407044925047    -1.367319306128    -1.580816907538     1.007825032230
         H           -3.214684925047     1.070921693872     1.855787092462     1.007825032230
         H           -2.649460925047     1.761541693872     0.303029092462     1.007825032230
         H           -1.463193925047    -1.997298306128    -0.170052907538     1.007825032230
         H           -0.876632925047    -1.341830306128    -1.710320907538     1.007825032230
         H           -0.687032925047     1.103906693872     1.650953092462     1.007825032230
         H           -1.309802925047    -0.582501706128     1.873526092462     1.007825032230
         H           -4.415398925047     0.185183693872    -0.039699907538     1.007825032230
         H           -3.594325925047    -0.999195306128     0.758076092462     1.007825032230
         H            0.685576074953    -2.291034306128     0.409168092462     1.007825032230
         H            3.599416074953     1.659743693872    -0.288916907538     1.007825032230
         H            0.172279074953     2.218264693872    -1.291143907538     1.007825032230
         H            0.541420074953     2.783260693872     0.342170092462     1.007825032230
         H            1.735399074953     2.982382693872    -0.938143907538     1.007825032230
         H            3.140738074953    -2.533020306128     0.546521092462     1.007825032230
         H            4.603551074953    -0.545942306128     0.205171092462     1.007825032230

  Basis Set: AUG-CC-PVTZ
    Blend: AUG-CC-PVTZ
  Basis Set: (AUG-CC-PVTZ AUX)
    Blend: AUG-CC-PVTZ-JKFIT
	 Reference Energy          =    -535.3066636427404319 [Eh]
	 Singles Energy            =      -0.0000000000000000 [Eh]
	 Same-Spin Energy          =      -0.5854334016162426 [Eh]
	 Opposite-Spin Energy      =      -1.9176190699470612 [Eh]
	 Correlation Energy        =      -2.5030524715633038 [Eh]
	 Total Energy              =    -537.8097161143036828 [Eh]

	 ================> DF-SCS-MP2 Energies <==================
	-----------------------------------------------------------
	 SCS Same-Spin Scale       =       0.3333333333333333 [-]
	 SCS Opposite-Spin Scale   =       1.2000000000000000 [-]
	 SCS Same-Spin Energy      =      -0.1951444672054142 [Eh]
	 SCS Opposite-Spin Energy  =      -2.3011428839364734 [Eh]
	 SCS Correlation Energy    =      -2.4962873511418877 [Eh]
	 SCS Total Energy          =    -537.8029509938822912 [Eh]
	-----------------------------------------------------------

  Dipole Moment: [D]
     X:   -12.0852      Y:    -0.6647      Z:     0.6962     Total:    12.1234

*** Psi4 exiting successfully. Buy a developer a beer!
