                               Psi4 1.4a3.dev225

  ==> Input File <==

--------------------------------------------------------------------------
#psi4
#
memory 32 gb

molecule  {
1 1
  N       -3.4197460    -0.1817000     0.1602720
  N       -0.6214370    -0.0078370    -0.1287630
  C       -2.7377630    -0.6049400    -1.1216890
  C       -2.6265040     0.8533270     0.9259500
  C       -1.3397990    -1.0900720    -0.7822260
  C       -1.2267490     0.3141230     1.1574790
  C        0.8091060    -0.1845140    -0.0397240
  C        1.6179690     0.9496740    -0.2359790
  C        1.3698700    -1.4337860     0.2499420
  C        2.9549564     0.7908081    -0.1379238
  C        1.0196790     2.2951990    -0.5492200
  C        2.7558540    -1.5738690     0.3292430
  C        3.5736970    -0.4590730     0.1432710
  H       -2.7010110     0.2771110    -1.7633110
  H       -3.3565410    -1.3799850    -1.5813290
  H       -3.1641810     1.0582560     1.8552750
  H       -2.5989570     1.7488760     0.3025170
  H       -1.4126900    -2.0099640    -0.1705650
  H       -0.8261290    -1.3544960    -1.7108330
  H       -0.6365290     1.0912410     1.6504410
  H       -1.2578930    -0.5558900     1.8421060
  H       -4.3648950     0.1725180    -0.0402120
  H       -3.5438220    -1.0118610     0.7575640
  H        0.7360800    -2.3037000     0.4086560
  H        3.6499200     1.6470780    -0.2894290
  H        0.2227830     2.2055990    -1.2916560
  H        0.5919240     2.7705950     0.3416580
  H        1.7859030     2.9697170    -0.9386560
  H        3.1912420    -2.5456860     0.5460090
  H        4.6540550    -0.5586080     0.2046590
units angstrom
no_reorient  #important for SAPT in psi4, default
symmetry c1  #important for SAPT in psi4, default
}

set PROPERTIES_ORIGIN ["COM"]
properties('MP2/aug-cc-pvtz', properties = ['dipole'])
--------------------------------------------------------------------------

    Molecular point group: c1
  Charge       = 1
  Multiplicity = 1
  Basis Set: AUG-CC-PVTZ
    Blend: AUG-CC-PVTZ
  Basis Set: (AUG-CC-PVTZ AUX)
    Blend: AUG-CC-PVTZ-JKFIT

    Orbital Energies [Eh]
    ---------------------

    Doubly Occupied:

       1A    -15.866696     2A    -15.703236     3A    -11.456861
       4A    -11.456838     5A    -11.417597     6A    -11.417485
       7A    -11.375962     8A    -11.340228     9A    -11.338386
      10A    -11.332372    11A    -11.330898    12A    -11.328310
      13A    -11.322879    14A     -1.497608    15A     -1.390533
      16A     -1.253256    17A     -1.221948    18A     -1.154825
      19A     -1.146396    20A     -1.084710    21A     -1.053651
      22A     -1.033028    23A     -0.997150    24A     -0.936032
      25A     -0.925140    26A     -0.902410    27A     -0.867985
      28A     -0.823793    29A     -0.810194    30A     -0.793190
      31A     -0.788643    32A     -0.755282    33A     -0.745705
      34A     -0.734749    35A     -0.711574    36A     -0.703780
      37A     -0.687668    38A     -0.675800    39A     -0.670845
      40A     -0.660245    41A     -0.655953    42A     -0.638751
      43A     -0.601491    44A     -0.591629    45A     -0.585617
      46A     -0.521104    47A     -0.435888    48A     -0.423957

  @DF-RHF Final Energy:  -535.30579083927614

   => Energetics <=

    Nuclear Repulsion Energy =            821.0935865178864788
    One-Electron Energy =               -2340.4622006498316296
    Two-Electron Energy =                 984.0628232926690089
    Total Energy =                       -535.3057908392761419
  Basis Set: (AUG-CC-PVTZ AUX)
    Blend: AUG-CC-PVTZ-RI
    Molecular point group: c1

    Geometry (in Angstrom), charge = 1, multiplicity = 1:

       Center              X                  Y                   Z               Mass
    ------------   -----------------  -----------------  -----------------  -----------------
         N           -3.466903301112    -0.169656381667     0.161205972358    14.003074004430
         N           -0.668594301112     0.004206618333    -0.127829027642    14.003074004430
         C           -2.784920301112    -0.592896381667    -1.120755027642    12.000000000000
         C           -2.673661301112     0.865370618333     0.926883972358    12.000000000000
         C           -1.386956301112    -1.078028381667    -0.781292027642    12.000000000000
         C           -1.273906301112     0.326166618333     1.158412972358    12.000000000000
         C            0.761948698888    -0.172470381667    -0.038790027642    12.000000000000
         C            1.570811698888     0.961717618333    -0.235045027642    12.000000000000
         C            1.322712698888    -1.421742381667     0.250875972358    12.000000000000
         C            2.907799098888     0.802851718333    -0.136989827642    12.000000000000
         C            0.972521698888     2.307242618333    -0.548286027642    12.000000000000
         C            2.708696698888    -1.561825381667     0.330176972358    12.000000000000
         C            3.526539698888    -0.447029381667     0.144204972358    12.000000000000
         H           -2.748168301112     0.289154618333    -1.762377027642     1.007825032230
         H           -3.403698301112    -1.367941381667    -1.580395027642     1.007825032230
         H           -3.211338301112     1.070299618333     1.856208972358     1.007825032230
         H           -2.646114301112     1.760919618333     0.303450972358     1.007825032230
         H           -1.459847301112    -1.997920381667    -0.169631027642     1.007825032230
         H           -0.873286301112    -1.342452381667    -1.709899027642     1.007825032230
         H           -0.683686301112     1.103284618333     1.651374972358     1.007825032230
         H           -1.305050301112    -0.543846381667     1.843039972358     1.007825032230
         H           -4.412052301112     0.184561618333    -0.039278027642     1.007825032230
         H           -3.590979301112    -0.999817381667     0.758497972358     1.007825032230
         H            0.688922698888    -2.291656381667     0.409589972358     1.007825032230
         H            3.602762698888     1.659121618333    -0.288495027642     1.007825032230
         H            0.175625698888     2.217642618333    -1.290722027642     1.007825032230
         H            0.544766698888     2.782638618333     0.342591972358     1.007825032230
         H            1.738745698888     2.981760618333    -0.937722027642     1.007825032230
         H            3.144084698888    -2.533642381667     0.546942972358     1.007825032230
         H            4.606897698888    -0.546564381667     0.205592972358     1.007825032230

  Basis Set: AUG-CC-PVTZ
    Blend: AUG-CC-PVTZ
  Basis Set: (AUG-CC-PVTZ AUX)
    Blend: AUG-CC-PVTZ-JKFIT
	 Reference Energy          =    -535.3057908392761419 [Eh]
	 Singles Energy            =      -0.0000000000000000 [Eh]
	 Same-Spin Energy          =      -0.5852715552711244 [Eh]
	 Opposite-Spin Energy      =      -1.9172670309718816 [Eh]
	 Correlation Energy        =      -2.5025385862430061 [Eh]
	 Total Energy              =    -537.8083294255191049 [Eh]

	 ================> DF-SCS-MP2 Energies <==================
	-----------------------------------------------------------
	 SCS Same-Spin Scale       =       0.3333333333333333 [-]
	 SCS Opposite-Spin Scale   =       1.2000000000000000 [-]
	 SCS Same-Spin Energy      =      -0.1950905184237081 [Eh]
	 SCS Opposite-Spin Energy  =      -2.3007204371662580 [Eh]
	 SCS Correlation Energy    =      -2.4958109555899659 [Eh]
	 SCS Total Energy          =    -537.8016017948660874 [Eh]
	-----------------------------------------------------------

  Dipole Moment: [D]
     X:   -12.0877      Y:    -0.7185      Z:     0.7402     Total:    12.1316

*** Psi4 exiting successfully. Buy a developer a beer!
