                               Psi4 1.4a3.dev225

  ==> Input File <==

--------------------------------------------------------------------------
#psi4
#
memory 32 gb

molecule  {
1 1
  N       -3.4197460    -0.1817000     0.1602720
  N       -0.6214370    -0.0078370    -0.1287630
  C       -2.7377630    -0.6049400    -1.1216890
  C       -2.6265040     0.8533270     0.9259500
  C       -1.3397990    -1.0900720    -0.7822260
  C       -1.1901835     0.3940686     1.0983615
  C        0.8091060    -0.1845140    -0.0397240
  C        1.6179690     0.9496740    -0.2359790
  C        1.3698700    -1.4337860     0.2499420
  C        3.0044760     0.7849240    -0.1342920
  C        1.0196790     2.2951990    -0.5492200
  C        2.7558540    -1.5738690     0.3292430
  C        3.5736970    -0.4590730     0.1432710
  H       -2.7010110     0.2771110    -1.7633110
  H       -3.3565410    -1.3799850    -1.5813290
  H       -3.1641810     1.0582560     1.8552750
  H       -2.5989570     1.7488760     0.3025170
  H       -1.4126900    -2.0099640    -0.1705650
  H       -0.8261290    -1.3544960    -1.7108330
  H       -0.6365290     1.0912410     1.6504410
  H       -1.2578930    -0.5558900     1.8421060
  H       -4.3648950     0.1725180    -0.0402120
  H       -3.5438220    -1.0118610     0.7575640
  H        0.7360800    -2.3037000     0.4086560
  H        3.6499200     1.6470780    -0.2894290
  H        0.2227830     2.2055990    -1.2916560
  H        0.5919240     2.7705950     0.3416580
  H        1.7859030     2.9697170    -0.9386560
  H        3.1912420    -2.5456860     0.5460090
  H        4.6540550    -0.5586080     0.2046590
units angstrom
no_reorient  #important for SAPT in psi4, default
symmetry c1  #important for SAPT in psi4, default
}

set PROPERTIES_ORIGIN ["COM"]
properties('MP2/aug-cc-pvtz', properties = ['dipole'])
--------------------------------------------------------------------------

    Molecular point group: c1
  Charge       = 1
  Multiplicity = 1
  Basis Set: AUG-CC-PVTZ
    Blend: AUG-CC-PVTZ
  Basis Set: (AUG-CC-PVTZ AUX)
    Blend: AUG-CC-PVTZ-JKFIT

    Orbital Energies [Eh]
    ---------------------

    Doubly Occupied:

       1A    -15.868018     2A    -15.704447     3A    -11.458297
       4A    -11.456567     5A    -11.421715     6A    -11.420588
       7A    -11.376816     8A    -11.345283     9A    -11.340940
      10A    -11.332374    11A    -11.330533    12A    -11.329167
      13A    -11.324883    14A     -1.498460    15A     -1.400376
      16A     -1.251257    17A     -1.223565    18A     -1.156707
      19A     -1.143820    20A     -1.090575    21A     -1.058550
      22A     -1.033190    23A     -0.992594    24A     -0.935885
      25A     -0.928087    26A     -0.904848    27A     -0.866826
      28A     -0.821142    29A     -0.811589    30A     -0.801707
      31A     -0.794018    32A     -0.758471    33A     -0.746178
      34A     -0.737135    35A     -0.715060    36A     -0.704157
      37A     -0.682331    38A     -0.676909    39A     -0.669878
      40A     -0.661813    41A     -0.656743    42A     -0.641912
      43A     -0.598184    44A     -0.592737    45A     -0.589486
      46A     -0.515648    47A     -0.434041    48A     -0.423907

  @DF-RHF Final Energy:  -535.29851515905568

   => Energetics <=

    Nuclear Repulsion Energy =            821.1630614935376116
    One-Electron Energy =               -2340.4683274841986531
    Two-Electron Energy =                 984.0067508316054727
    Total Energy =                       -535.2985151590556825
  Basis Set: (AUG-CC-PVTZ AUX)
    Blend: AUG-CC-PVTZ-RI
    Molecular point group: c1

    Geometry (in Angstrom), charge = 1, multiplicity = 1:

       Center              X                  Y                   Z               Mass
    ------------   -----------------  -----------------  -----------------  -----------------
         N           -3.472734993669    -0.174673555351     0.164964759230    14.003074004430
         N           -0.674425993669    -0.000810555351    -0.124070240770    14.003074004430
         C           -2.790751993669    -0.597913555351    -1.116996240770    12.000000000000
         C           -2.679492993669     0.860353444649     0.930642759230    12.000000000000
         C           -1.392787993669    -1.083045555351    -0.777533240770    12.000000000000
         C           -1.243172493669     0.401095044649     1.103054259230    12.000000000000
         C            0.756117006331    -0.177487555351    -0.035031240770    12.000000000000
         C            1.564980006331     0.956700444649    -0.231286240770    12.000000000000
         C            1.316881006331    -1.426759555351     0.254634759230    12.000000000000
         C            2.951487006331     0.791950444649    -0.129599240770    12.000000000000
         C            0.966690006331     2.302225444649    -0.544527240770    12.000000000000
         C            2.702865006331    -1.566842555351     0.333935759230    12.000000000000
         C            3.520708006331    -0.452046555351     0.147963759230    12.000000000000
         H           -2.753999993669     0.284137444649    -1.758618240770     1.007825032230
         H           -3.409529993669    -1.372958555351    -1.576636240770     1.007825032230
         H           -3.217169993669     1.065282444649     1.859967759230     1.007825032230
         H           -2.651945993669     1.755902444649     0.307209759230     1.007825032230
         H           -1.465678993669    -2.002937555351    -0.165872240770     1.007825032230
         H           -0.879117993669    -1.347469555351    -1.706140240770     1.007825032230
         H           -0.689517993669     1.098267444649     1.655133759230     1.007825032230
         H           -1.310881993669    -0.548863555351     1.846798759230     1.007825032230
         H           -4.417883993669     0.179544444649    -0.035519240770     1.007825032230
         H           -3.596810993669    -1.004834555351     0.762256759230     1.007825032230
         H            0.683091006331    -2.296673555351     0.413348759230     1.007825032230
         H            3.596931006331     1.654104444649    -0.284736240770     1.007825032230
         H            0.169794006331     2.212625444649    -1.286963240770     1.007825032230
         H            0.538935006331     2.777621444649     0.346350759230     1.007825032230
         H            1.732914006331     2.976743444649    -0.933963240770     1.007825032230
         H            3.138253006331    -2.538659555351     0.550701759230     1.007825032230
         H            4.601066006331    -0.551581555351     0.209351759230     1.007825032230

  Basis Set: AUG-CC-PVTZ
    Blend: AUG-CC-PVTZ
  Basis Set: (AUG-CC-PVTZ AUX)
    Blend: AUG-CC-PVTZ-JKFIT
	 Reference Energy          =    -535.2985151590556825 [Eh]
	 Singles Energy            =      -0.0000000000000000 [Eh]
	 Same-Spin Energy          =      -0.5858184952818627 [Eh]
	 Opposite-Spin Energy      =      -1.9175684616519428 [Eh]
	 Correlation Energy        =      -2.5033869569338054 [Eh]
	 Total Energy              =    -537.8019021159894919 [Eh]

	 ================> DF-SCS-MP2 Energies <==================
	-----------------------------------------------------------
	 SCS Same-Spin Scale       =       0.3333333333333333 [-]
	 SCS Opposite-Spin Scale   =       1.2000000000000000 [-]
	 SCS Same-Spin Energy      =      -0.1952728317606209 [Eh]
	 SCS Opposite-Spin Energy  =      -2.3010821539823314 [Eh]
	 SCS Correlation Energy    =      -2.4963549857429523 [Eh]
	 SCS Total Energy          =    -537.7948701447986650 [Eh]
	-----------------------------------------------------------

  Dipole Moment: [D]
     X:   -12.0455      Y:    -0.6165      Z:     0.5404     Total:    12.0733

*** Psi4 exiting successfully. Buy a developer a beer!
