                               Psi4 1.4a3.dev225

  ==> Input File <==

--------------------------------------------------------------------------
#psi4
#
memory 32 gb

molecule  {
1 1
  N       -3.4197460    -0.1817000     0.1602720
  N       -0.6214370    -0.0078370    -0.1287630
  C       -2.7377630    -0.6049400    -1.1216890
  C       -2.6265040     0.8533270     0.9259500
  C       -1.3397990    -1.0900720    -0.7822260
  C       -1.2267490     0.3141230     1.1574790
  C        0.8091060    -0.1845140    -0.0397240
  C        1.6179690     0.9496740    -0.2359790
  C        1.3698700    -1.4337860     0.2499420
  C        3.0044760     0.7849240    -0.1342920
  C        1.0196790     2.2951990    -0.5492200
  C        2.7558540    -1.5738690     0.3292430
  C        3.5736970    -0.4590730     0.1432710
  H       -2.7010110     0.2771110    -1.7633110
  H       -3.3565410    -1.3799850    -1.5813290
  H       -3.1641810     1.0582560     1.8552750
  H       -2.5989570     1.7488760     0.3025170
  H       -1.4126900    -2.0099640    -0.1705650
  H       -0.8261290    -1.3544960    -1.7108330
  H       -0.6365290     1.0912410     1.6504410
  H       -1.2578930    -0.5558900     1.8421060
  H       -4.3648950     0.1725180    -0.0402120
  H       -3.5438220    -1.0118610     0.7575640
  H        0.7360800    -2.3037000     0.4086560
  H        3.6499200     1.6470780    -0.2894290
  H        0.2134823     2.1937130    -1.2799936
  H        0.5919240     2.7705950     0.3416580
  H        1.7859030     2.9697170    -0.9386560
  H        3.1912420    -2.5456860     0.5460090
  H        4.6540550    -0.5586080     0.2046590
units angstrom
no_reorient  #important for SAPT in psi4, default
symmetry c1  #important for SAPT in psi4, default
}

set PROPERTIES_ORIGIN ["COM"]
properties('MP2/aug-cc-pvtz', properties = ['dipole'])
--------------------------------------------------------------------------

    Molecular point group: c1
  Charge       = 1
  Multiplicity = 1
  Basis Set: AUG-CC-PVTZ
    Blend: AUG-CC-PVTZ
  Basis Set: (AUG-CC-PVTZ AUX)
    Blend: AUG-CC-PVTZ-JKFIT

    Orbital Energies [Eh]
    ---------------------

    Doubly Occupied:

       1A    -15.866697     2A    -15.703157     3A    -11.456878
       4A    -11.456850     5A    -11.417608     6A    -11.417338
       7A    -11.375146     8A    -11.344337     9A    -11.340207
      10A    -11.331758    11A    -11.329840    12A    -11.328591
      13A    -11.323610    14A     -1.497607    15A     -1.390348
      16A     -1.249931    17A     -1.221935    18A     -1.155679
      19A     -1.142696    20A     -1.088136    21A     -1.053571
      22A     -1.031989    23A     -0.996177    24A     -0.935536
      25A     -0.924322    26A     -0.903265    27A     -0.867517
      28A     -0.823805    29A     -0.810240    30A     -0.793630
      31A     -0.788569    32A     -0.754954    33A     -0.744978
      34A     -0.734649    35A     -0.714646    36A     -0.704545
      37A     -0.687814    38A     -0.674605    39A     -0.669290
      40A     -0.659998    41A     -0.655457    42A     -0.641916
      43A     -0.599936    44A     -0.591877    45A     -0.587778
      46A     -0.521697    47A     -0.433528    48A     -0.423401

  @DF-RHF Final Energy:  -535.30879839192994

   => Energetics <=

    Nuclear Repulsion Energy =            820.3389290341818878
    One-Electron Energy =               -2338.9593751790171154
    Two-Electron Energy =                 983.3116477529051735
    Total Energy =                       -535.3087983919299404
  Basis Set: (AUG-CC-PVTZ AUX)
    Blend: AUG-CC-PVTZ-RI
    Molecular point group: c1

    Geometry (in Angstrom), charge = 1, multiplicity = 1:

       Center              X                  Y                   Z               Mass
    ------------   -----------------  -----------------  -----------------  -----------------
         N           -3.470205008521    -0.169190148215     0.160893589402    14.003074004430
         N           -0.671896008521     0.004672851785    -0.128141410598    14.003074004430
         C           -2.788222008521    -0.592430148215    -1.121067410598    12.000000000000
         C           -2.676963008521     0.865836851785     0.926571589402    12.000000000000
         C           -1.390258008521    -1.077562148215    -0.781604410598    12.000000000000
         C           -1.277208008521     0.326632851785     1.158100589402    12.000000000000
         C            0.758646991479    -0.172004148215    -0.039102410598    12.000000000000
         C            1.567509991479     0.962183851785    -0.235357410598    12.000000000000
         C            1.319410991479    -1.421276148215     0.250563589402    12.000000000000
         C            2.954016991479     0.797433851785    -0.133670410598    12.000000000000
         C            0.969219991479     2.307708851785    -0.548598410598    12.000000000000
         C            2.705394991479    -1.561359148215     0.329864589402    12.000000000000
         C            3.523237991479    -0.446563148215     0.143892589402    12.000000000000
         H           -2.751470008521     0.289620851785    -1.762689410598     1.007825032230
         H           -3.407000008521    -1.367475148215    -1.580707410598     1.007825032230
         H           -3.214640008521     1.070765851785     1.855896589402     1.007825032230
         H           -2.649416008521     1.761385851785     0.303138589402     1.007825032230
         H           -1.463149008521    -1.997454148215    -0.169943410598     1.007825032230
         H           -0.876588008521    -1.341986148215    -1.710211410598     1.007825032230
         H           -0.686988008521     1.103750851785     1.651062589402     1.007825032230
         H           -1.308352008521    -0.543380148215     1.842727589402     1.007825032230
         H           -4.415354008521     0.185027851785    -0.039590410598     1.007825032230
         H           -3.594281008521    -0.999351148215     0.758185589402     1.007825032230
         H            0.685620991479    -2.291190148215     0.409277589402     1.007825032230
         H            3.599460991479     1.659587851785    -0.288807410598     1.007825032230
         H            0.163023291479     2.206222851785    -1.279372010598     1.007825032230
         H            0.541464991479     2.783104851785     0.342279589402     1.007825032230
         H            1.735443991479     2.982226851785    -0.938034410598     1.007825032230
         H            3.140782991479    -2.533176148215     0.546630589402     1.007825032230
         H            4.603595991479    -0.546098148215     0.205280589402     1.007825032230

  Basis Set: AUG-CC-PVTZ
    Blend: AUG-CC-PVTZ
  Basis Set: (AUG-CC-PVTZ AUX)
    Blend: AUG-CC-PVTZ-JKFIT
	 Reference Energy          =    -535.3087983919299404 [Eh]
	 Singles Energy            =      -0.0000000000000000 [Eh]
	 Same-Spin Energy          =      -0.5853230215606700 [Eh]
	 Opposite-Spin Energy      =      -1.9171792492429729 [Eh]
	 Correlation Energy        =      -2.5025022708036428 [Eh]
	 Total Energy              =    -537.8113006627336290 [Eh]

	 ================> DF-SCS-MP2 Energies <==================
	-----------------------------------------------------------
	 SCS Same-Spin Scale       =       0.3333333333333333 [-]
	 SCS Opposite-Spin Scale   =       1.2000000000000000 [-]
	 SCS Same-Spin Energy      =      -0.1951076738535567 [Eh]
	 SCS Opposite-Spin Energy  =      -2.3006150990915675 [Eh]
	 SCS Correlation Energy    =      -2.4957227729451241 [Eh]
	 SCS Total Energy          =    -537.8045211648750410 [Eh]
	-----------------------------------------------------------

  Dipole Moment: [D]
     X:   -12.1114      Y:    -0.6870      Z:     0.7382     Total:    12.1533

*** Psi4 exiting successfully. Buy a developer a beer!
