                               Psi4 1.4a3.dev225

  ==> Input File <==

--------------------------------------------------------------------------
#psi4
#
memory 32 gb

molecule  {
1 1
  N       -3.4197460    -0.1817000     0.1602720
  N       -0.6214370    -0.0078370    -0.1287630
  C       -2.7377630    -0.6049400    -1.1216890
  C       -2.6265040     0.8533270     0.9259500
  C       -1.3397990    -1.0900720    -0.7822260
  C       -1.2267490     0.3141230     1.1574790
  C        0.8091060    -0.1845140    -0.0397240
  C        1.7329602     1.1109148    -0.2638794
  C        1.3698700    -1.4337860     0.2499420
  C        3.0044760     0.7849240    -0.1342920
  C        1.0196790     2.2951990    -0.5492200
  C        2.7558540    -1.5738690     0.3292430
  C        3.5736970    -0.4590730     0.1432710
  H       -2.7010110     0.2771110    -1.7633110
  H       -3.3565410    -1.3799850    -1.5813290
  H       -3.1641810     1.0582560     1.8552750
  H       -2.5989570     1.7488760     0.3025170
  H       -1.4126900    -2.0099640    -0.1705650
  H       -0.8261290    -1.3544960    -1.7108330
  H       -0.6365290     1.0912410     1.6504410
  H       -1.2578930    -0.5558900     1.8421060
  H       -4.3648950     0.1725180    -0.0402120
  H       -3.5438220    -1.0118610     0.7575640
  H        0.7360800    -2.3037000     0.4086560
  H        3.6499200     1.6470780    -0.2894290
  H        0.2227830     2.2055990    -1.2916560
  H        0.5919240     2.7705950     0.3416580
  H        1.7859030     2.9697170    -0.9386560
  H        3.1912420    -2.5456860     0.5460090
  H        4.6540550    -0.5586080     0.2046590
units angstrom
no_reorient  #important for SAPT in psi4, default
symmetry c1  #important for SAPT in psi4, default
}

set PROPERTIES_ORIGIN ["COM"]
properties('MP2/aug-cc-pvtz', properties = ['dipole'])
--------------------------------------------------------------------------

    Molecular point group: c1
  Charge       = 1
  Multiplicity = 1
  Basis Set: AUG-CC-PVTZ
    Blend: AUG-CC-PVTZ
  Basis Set: (AUG-CC-PVTZ AUX)
    Blend: AUG-CC-PVTZ-JKFIT

    Orbital Energies [Eh]
    ---------------------

    Doubly Occupied:

       1A    -15.866797     2A    -15.704556     3A    -11.457085
       4A    -11.456793     5A    -11.417828     6A    -11.417383
       7A    -11.386933     8A    -11.350178     9A    -11.339938
      10A    -11.331338    11A    -11.329539    12A    -11.322248
      13A    -11.320153    14A     -1.497688    15A     -1.387952
      16A     -1.245705    17A     -1.222005    18A     -1.163407
      19A     -1.151084    20A     -1.088582    21A     -1.053665
      22A     -1.036233    23A     -0.997522    24A     -0.933095
      25A     -0.925209    26A     -0.892694    27A     -0.863707
      28A     -0.823902    29A     -0.810963    30A     -0.791496
      31A     -0.788408    32A     -0.758931    33A     -0.744127
      34A     -0.734396    35A     -0.714354    36A     -0.700464
      37A     -0.694759    38A     -0.685579    39A     -0.684261
      40A     -0.659862    41A     -0.655265    42A     -0.635452
      43A     -0.622725    44A     -0.583318    45A     -0.557135
      46A     -0.513877    47A     -0.447561    48A     -0.405562

  @DF-RHF Final Energy:  -535.26550385320854

   => Energetics <=

    Nuclear Repulsion Energy =            817.9980477122577440
    One-Electron Energy =               -2334.1836723807400631
    Two-Electron Energy =                 980.9201208152738900
    Total Energy =                       -535.2655038532085428
  Basis Set: (AUG-CC-PVTZ AUX)
    Blend: AUG-CC-PVTZ-RI
    Molecular point group: c1

    Geometry (in Angstrom), charge = 1, multiplicity = 1:

       Center              X                  Y                   Z               Mass
    ------------   -----------------  -----------------  -----------------  -----------------
         N           -3.478047812856    -0.180180764064     0.162850008481    14.003074004430
         N           -0.679738812856    -0.006317764064    -0.126184991519    14.003074004430
         C           -2.796064812856    -0.603420764064    -1.119110991519    12.000000000000
         C           -2.684805812856     0.854846235936     0.928528008481    12.000000000000
         C           -1.398100812856    -1.088552764064    -0.779647991519    12.000000000000
         C           -1.285050812856     0.315642235936     1.160057008481    12.000000000000
         C            0.750804187144    -0.182994764064    -0.037145991519    12.000000000000
         C            1.674658387144     1.112434035936    -0.261301391519    12.000000000000
         C            1.311568187144    -1.432266764064     0.252520008481    12.000000000000
         C            2.946174187144     0.786443235936    -0.131713991519    12.000000000000
         C            0.961377187144     2.296718235936    -0.546641991519    12.000000000000
         C            2.697552187144    -1.572349764064     0.331821008481    12.000000000000
         C            3.515395187144    -0.457553764064     0.145849008481    12.000000000000
         H           -2.759312812856     0.278630235936    -1.760732991519     1.007825032230
         H           -3.414842812856    -1.378465764064    -1.578750991519     1.007825032230
         H           -3.222482812856     1.059775235936     1.857853008481     1.007825032230
         H           -2.657258812856     1.750395235936     0.305095008481     1.007825032230
         H           -1.470991812856    -2.008444764064    -0.167986991519     1.007825032230
         H           -0.884430812856    -1.352976764064    -1.708254991519     1.007825032230
         H           -0.694830812856     1.092760235936     1.653019008481     1.007825032230
         H           -1.316194812856    -0.554370764064     1.844684008481     1.007825032230
         H           -4.423196812856     0.174037235936    -0.037633991519     1.007825032230
         H           -3.602123812856    -1.010341764064     0.760142008481     1.007825032230
         H            0.677778187144    -2.302180764064     0.411234008481     1.007825032230
         H            3.591618187144     1.648597235936    -0.286850991519     1.007825032230
         H            0.164481187144     2.207118235936    -1.289077991519     1.007825032230
         H            0.533622187144     2.772114235936     0.344236008481     1.007825032230
         H            1.727601187144     2.971236235936    -0.936077991519     1.007825032230
         H            3.132940187144    -2.544166764064     0.548587008481     1.007825032230
         H            4.595753187144    -0.557088764064     0.207237008481     1.007825032230

  Basis Set: AUG-CC-PVTZ
    Blend: AUG-CC-PVTZ
  Basis Set: (AUG-CC-PVTZ AUX)
    Blend: AUG-CC-PVTZ-JKFIT
	 Reference Energy          =    -535.2655038532085428 [Eh]
	 Singles Energy            =      -0.0000000000000000 [Eh]
	 Same-Spin Energy          =      -0.5864083517598120 [Eh]
	 Opposite-Spin Energy      =      -1.9209857685812541 [Eh]
	 Correlation Energy        =      -2.5073941203410661 [Eh]
	 Total Energy              =    -537.7728979735495614 [Eh]

	 ================> DF-SCS-MP2 Energies <==================
	-----------------------------------------------------------
	 SCS Same-Spin Scale       =       0.3333333333333333 [-]
	 SCS Opposite-Spin Scale   =       1.2000000000000000 [-]
	 SCS Same-Spin Energy      =      -0.1954694505866040 [Eh]
	 SCS Opposite-Spin Energy  =      -2.3051829222975049 [Eh]
	 SCS Correlation Energy    =      -2.5006523728841090 [Eh]
	 SCS Total Energy          =    -537.7661562260926758 [Eh]
	-----------------------------------------------------------

  Dipole Moment: [D]
     X:   -12.2764      Y:    -0.6355      Z:     0.7174     Total:    12.3137

*** Psi4 exiting successfully. Buy a developer a beer!
