                               Psi4 1.4a3.dev225

  ==> Input File <==

--------------------------------------------------------------------------
#psi4
#
memory 32 gb

molecule  {
1 1
  N       -3.4197460    -0.1817000     0.1602720
  N       -0.6214370    -0.0078370    -0.1287630
  C       -2.7377630    -0.6049400    -1.1216890
  C       -2.6265040     0.8533270     0.9259500
  C       -1.3397990    -1.0900720    -0.7822260
  C       -1.2267490     0.3141230     1.1574790
  C        0.8091060    -0.1845140    -0.0397240
  C        1.6179690     0.9496740    -0.2359790
  C        1.3698700    -1.4337860     0.2499420
  C        3.0044760     0.7849240    -0.1342920
  C        1.0991600     2.1164502    -0.5076069
  C        2.7558540    -1.5738690     0.3292430
  C        3.5736970    -0.4590730     0.1432710
  H       -2.7010110     0.2771110    -1.7633110
  H       -3.3565410    -1.3799850    -1.5813290
  H       -3.1641810     1.0582560     1.8552750
  H       -2.5989570     1.7488760     0.3025170
  H       -1.4126900    -2.0099640    -0.1705650
  H       -0.8261290    -1.3544960    -1.7108330
  H       -0.6365290     1.0912410     1.6504410
  H       -1.2578930    -0.5558900     1.8421060
  H       -4.3648950     0.1725180    -0.0402120
  H       -3.5438220    -1.0118610     0.7575640
  H        0.7360800    -2.3037000     0.4086560
  H        3.6499200     1.6470780    -0.2894290
  H        0.2227830     2.2055990    -1.2916560
  H        0.5919240     2.7705950     0.3416580
  H        1.7859030     2.9697170    -0.9386560
  H        3.1912420    -2.5456860     0.5460090
  H        4.6540550    -0.5586080     0.2046590
units angstrom
no_reorient  #important for SAPT in psi4, default
symmetry c1  #important for SAPT in psi4, default
}

set PROPERTIES_ORIGIN ["COM"]
properties('MP2/aug-cc-pvtz', properties = ['dipole'])
--------------------------------------------------------------------------

    Molecular point group: c1
  Charge       = 1
  Multiplicity = 1
  Basis Set: AUG-CC-PVTZ
    Blend: AUG-CC-PVTZ
  Basis Set: (AUG-CC-PVTZ AUX)
    Blend: AUG-CC-PVTZ-JKFIT

    Orbital Energies [Eh]
    ---------------------

    Doubly Occupied:

       1A    -15.866472     2A    -15.703416     3A    -11.456718
       4A    -11.456499     5A    -11.417738     6A    -11.417115
       7A    -11.376329     8A    -11.341303     9A    -11.333972
      10A    -11.333134    11A    -11.332207    12A    -11.330801
      13A    -11.329477    14A     -1.497401    15A     -1.391463
      16A     -1.262200    17A     -1.221738    18A     -1.174205
      19A     -1.152128    20A     -1.090191    21A     -1.053545
      22A     -1.027796    23A     -0.995712    24A     -0.937515
      25A     -0.925748    26A     -0.898642    27A     -0.867938
      28A     -0.823498    29A     -0.813031    30A     -0.793939
      31A     -0.789057    32A     -0.768868    33A     -0.749147
      34A     -0.734931    35A     -0.719400    36A     -0.709939
      37A     -0.693838    38A     -0.684811    39A     -0.666520
      40A     -0.659498    41A     -0.655380    42A     -0.622002
      43A     -0.611675    44A     -0.575671    45A     -0.568224
      46A     -0.521991    47A     -0.434052    48A     -0.416649

  @DF-RHF Final Energy:  -535.25625439824660

   => Energetics <=

    Nuclear Repulsion Energy =            824.1721974672803981
    One-Electron Energy =               -2346.4498612699840123
    Two-Electron Energy =                 987.0214094044569038
    Total Energy =                       -535.2562543982465968
  Basis Set: (AUG-CC-PVTZ AUX)
    Blend: AUG-CC-PVTZ-RI
    Molecular point group: c1

    Geometry (in Angstrom), charge = 1, multiplicity = 1:

       Center              X                  Y                   Z               Mass
    ------------   -----------------  -----------------  -----------------  -----------------
         N           -3.475642233156    -0.157148731577     0.158140931526    14.003074004430
         N           -0.677333233156     0.016714268423    -0.130894068474    14.003074004430
         C           -2.793659233156    -0.580388731577    -1.123820068474    12.000000000000
         C           -2.682400233156     0.877878268423     0.923818931526    12.000000000000
         C           -1.395695233156    -1.065520731577    -0.784357068474    12.000000000000
         C           -1.282645233156     0.338674268423     1.155347931526    12.000000000000
         C            0.753209766844    -0.159962731577    -0.041855068474    12.000000000000
         C            1.562072766844     0.974225268423    -0.238110068474    12.000000000000
         C            1.313973766844    -1.409234731577     0.247810931526    12.000000000000
         C            2.948579766844     0.809475268423    -0.136423068474    12.000000000000
         C            1.043263766844     2.141001468423    -0.509737968474    12.000000000000
         C            2.699957766844    -1.549317731577     0.327111931526    12.000000000000
         C            3.517800766844    -0.434521731577     0.141139931526    12.000000000000
         H           -2.756907233156     0.301662268423    -1.765442068474     1.007825032230
         H           -3.412437233156    -1.355433731577    -1.583460068474     1.007825032230
         H           -3.220077233156     1.082807268423     1.853143931526     1.007825032230
         H           -2.654853233156     1.773427268423     0.300385931526     1.007825032230
         H           -1.468586233156    -1.985412731577    -0.172696068474     1.007825032230
         H           -0.882025233156    -1.329944731577    -1.712964068474     1.007825032230
         H           -0.692425233156     1.115792268423     1.648309931526     1.007825032230
         H           -1.313789233156    -0.531338731577     1.839974931526     1.007825032230
         H           -4.420791233156     0.197069268423    -0.042343068474     1.007825032230
         H           -3.599718233156    -0.987309731577     0.755432931526     1.007825032230
         H            0.680183766844    -2.279148731577     0.406524931526     1.007825032230
         H            3.594023766844     1.671629268423    -0.291560068474     1.007825032230
         H            0.166886766844     2.230150268423    -1.293787068474     1.007825032230
         H            0.536027766844     2.795146268423     0.339526931526     1.007825032230
         H            1.730006766844     2.994268268423    -0.940787068474     1.007825032230
         H            3.135345766844    -2.521134731577     0.543877931526     1.007825032230
         H            4.598158766844    -0.534056731577     0.202527931526     1.007825032230

  Basis Set: AUG-CC-PVTZ
    Blend: AUG-CC-PVTZ
  Basis Set: (AUG-CC-PVTZ AUX)
    Blend: AUG-CC-PVTZ-JKFIT
	 Reference Energy          =    -535.2562543982465968 [Eh]
	 Singles Energy            =      -0.0000000000000000 [Eh]
	 Same-Spin Energy          =      -0.5891747142957873 [Eh]
	 Opposite-Spin Energy      =      -1.9218963492248076 [Eh]
	 Correlation Energy        =      -2.5110710635205948 [Eh]
	 Total Energy              =    -537.7673254617672001 [Eh]

	 ================> DF-SCS-MP2 Energies <==================
	-----------------------------------------------------------
	 SCS Same-Spin Scale       =       0.3333333333333333 [-]
	 SCS Opposite-Spin Scale   =       1.2000000000000000 [-]
	 SCS Same-Spin Energy      =      -0.1963915714319291 [Eh]
	 SCS Opposite-Spin Energy  =      -2.3062756190697691 [Eh]
	 SCS Correlation Energy    =      -2.5026671905016982 [Eh]
	 SCS Total Energy          =    -537.7589215887483078 [Eh]
	-----------------------------------------------------------

  Dipole Moment: [D]
     X:   -12.1236      Y:    -0.6387      Z:     0.7098     Total:    12.1611

*** Psi4 exiting successfully. Buy a developer a beer!
