                               Psi4 1.4a3.dev225

  ==> Input File <==

--------------------------------------------------------------------------
#psi4
#
memory 32 gb

molecule  {
1 1
  N       -3.4197460    -0.1817000     0.1602720
  N       -0.6214370    -0.0078370    -0.1287630
  C       -2.7377630    -0.6049400    -1.1216890
  C       -2.6624474     0.7772544     0.9903257
  C       -1.3397990    -1.0900720    -0.7822260
  C       -1.2267490     0.3141230     1.1574790
  C        0.8091060    -0.1845140    -0.0397240
  C        1.6179690     0.9496740    -0.2359790
  C        1.3698700    -1.4337860     0.2499420
  C        3.0044760     0.7849240    -0.1342920
  C        1.0196790     2.2951990    -0.5492200
  C        2.7558540    -1.5738690     0.3292430
  C        3.5736970    -0.4590730     0.1432710
  H       -2.7010110     0.2771110    -1.7633110
  H       -3.3565410    -1.3799850    -1.5813290
  H       -3.1641810     1.0582560     1.8552750
  H       -2.5989570     1.7488760     0.3025170
  H       -1.4126900    -2.0099640    -0.1705650
  H       -0.8261290    -1.3544960    -1.7108330
  H       -0.6365290     1.0912410     1.6504410
  H       -1.2578930    -0.5558900     1.8421060
  H       -4.3648950     0.1725180    -0.0402120
  H       -3.5438220    -1.0118610     0.7575640
  H        0.7360800    -2.3037000     0.4086560
  H        3.6499200     1.6470780    -0.2894290
  H        0.2227830     2.2055990    -1.2916560
  H        0.5919240     2.7705950     0.3416580
  H        1.7859030     2.9697170    -0.9386560
  H        3.1912420    -2.5456860     0.5460090
  H        4.6540550    -0.5586080     0.2046590
units angstrom
no_reorient  #important for SAPT in psi4, default
symmetry c1  #important for SAPT in psi4, default
}

set PROPERTIES_ORIGIN ["COM"]
properties('MP2/aug-cc-pvtz', properties = ['dipole'])
--------------------------------------------------------------------------

    Molecular point group: c1
  Charge       = 1
  Multiplicity = 1
  Basis Set: AUG-CC-PVTZ
    Blend: AUG-CC-PVTZ
  Basis Set: (AUG-CC-PVTZ AUX)
    Blend: AUG-CC-PVTZ-JKFIT

    Orbital Energies [Eh]
    ---------------------

    Doubly Occupied:

       1A    -15.870456     2A    -15.704255     3A    -11.459342
       4A    -11.457206     5A    -11.418515     6A    -11.417549
       7A    -11.375522     8A    -11.344543     9A    -11.340439
      10A    -11.331852    11A    -11.329924    12A    -11.328720
      13A    -11.323105    14A     -1.506305    15A     -1.390900
      16A     -1.250031    17A     -1.224373    18A     -1.155452
      19A     -1.142547    20A     -1.087682    21A     -1.057953
      22A     -1.031520    23A     -0.994034    24A     -0.940124
      25A     -0.928537    26A     -0.904492    27A     -0.874019
      28A     -0.819309    29A     -0.808962    30A     -0.797524
      31A     -0.792870    32A     -0.755442    33A     -0.748445
      34A     -0.736858    35A     -0.713910    36A     -0.699416
      37A     -0.675100    38A     -0.671579    39A     -0.667230
      40A     -0.659809    41A     -0.657512    42A     -0.640347
      43A     -0.599542    44A     -0.592143    45A     -0.588243
      46A     -0.521153    47A     -0.433675    48A     -0.423637

  @DF-RHF Final Energy:  -535.29646562742653

   => Energetics <=

    Nuclear Repulsion Energy =            820.1920196090748050
    One-Electron Energy =               -2338.5927706585612214
    Two-Electron Energy =                 983.1042854220598883
    Total Energy =                       -535.2964656274265280
  Basis Set: (AUG-CC-PVTZ AUX)
    Blend: AUG-CC-PVTZ-RI
    Molecular point group: c1

    Geometry (in Angstrom), charge = 1, multiplicity = 1:

       Center              X                  Y                   Z               Mass
    ------------   -----------------  -----------------  -----------------  -----------------
         N           -3.467822998301    -0.164104360732     0.156598916880    14.003074004430
         N           -0.669513998301     0.009758639268    -0.132436083120    14.003074004430
         C           -2.785839998301    -0.587344360732    -1.125362083120    12.000000000000
         C           -2.710524398301     0.794850039268     0.986652616880    12.000000000000
         C           -1.387875998301    -1.072476360732    -0.785899083120    12.000000000000
         C           -1.274825998301     0.331718639268     1.153805916880    12.000000000000
         C            0.761029001699    -0.166918360732    -0.043397083120    12.000000000000
         C            1.569892001699     0.967269639268    -0.239652083120    12.000000000000
         C            1.321793001699    -1.416190360732     0.246268916880    12.000000000000
         C            2.956399001699     0.802519639268    -0.137965083120    12.000000000000
         C            0.971602001699     2.312794639268    -0.552893083120    12.000000000000
         C            2.707777001699    -1.556273360732     0.325569916880    12.000000000000
         C            3.525620001699    -0.441477360732     0.139597916880    12.000000000000
         H           -2.749087998301     0.294706639268    -1.766984083120     1.007825032230
         H           -3.404617998301    -1.362389360732    -1.585002083120     1.007825032230
         H           -3.212257998301     1.075851639268     1.851601916880     1.007825032230
         H           -2.647033998301     1.766471639268     0.298843916880     1.007825032230
         H           -1.460766998301    -1.992368360732    -0.174238083120     1.007825032230
         H           -0.874205998301    -1.336900360732    -1.714506083120     1.007825032230
         H           -0.684605998301     1.108836639268     1.646767916880     1.007825032230
         H           -1.305969998301    -0.538294360732     1.838432916880     1.007825032230
         H           -4.412971998301     0.190113639268    -0.043885083120     1.007825032230
         H           -3.591898998301    -0.994265360732     0.753890916880     1.007825032230
         H            0.688003001699    -2.286104360732     0.404982916880     1.007825032230
         H            3.601843001699     1.664673639268    -0.293102083120     1.007825032230
         H            0.174706001699     2.223194639268    -1.295329083120     1.007825032230
         H            0.543847001699     2.788190639268     0.337984916880     1.007825032230
         H            1.737826001699     2.987312639268    -0.942329083120     1.007825032230
         H            3.143165001699    -2.528090360732     0.542335916880     1.007825032230
         H            4.605978001699    -0.541012360732     0.200985916880     1.007825032230

  Basis Set: AUG-CC-PVTZ
    Blend: AUG-CC-PVTZ
  Basis Set: (AUG-CC-PVTZ AUX)
    Blend: AUG-CC-PVTZ-JKFIT
	 Reference Energy          =    -535.2964656274265280 [Eh]
	 Singles Energy            =      -0.0000000000000000 [Eh]
	 Same-Spin Energy          =      -0.5857619685342457 [Eh]
	 Opposite-Spin Energy      =      -1.9177947701499083 [Eh]
	 Correlation Energy        =      -2.5035567386841540 [Eh]
	 Total Energy              =    -537.8000223661107384 [Eh]

	 ================> DF-SCS-MP2 Energies <==================
	-----------------------------------------------------------
	 SCS Same-Spin Scale       =       0.3333333333333333 [-]
	 SCS Opposite-Spin Scale   =       1.2000000000000000 [-]
	 SCS Same-Spin Energy      =      -0.1952539895114152 [Eh]
	 SCS Opposite-Spin Energy  =      -2.3013537241798900 [Eh]
	 SCS Correlation Energy    =      -2.4966077136913052 [Eh]
	 SCS Total Energy          =    -537.7930733411178608 [Eh]
	-----------------------------------------------------------

  Dipole Moment: [D]
     X:   -12.1321      Y:    -0.7653      Z:     0.7008     Total:    12.1764

*** Psi4 exiting successfully. Buy a developer a beer!
