                               Psi4 1.4a3.dev225

  ==> Input File <==

--------------------------------------------------------------------------
#psi4
#
memory 32 gb

molecule  {
1 1
  N       -3.4197460    -0.1817000     0.1602720
  N       -0.6214370    -0.0078370    -0.1287630
  C       -2.7377630    -0.6049400    -1.1216890
  C       -2.6265040     0.8533270     0.9259500
  C       -1.3397990    -1.0900720    -0.7822260
  C       -1.2267490     0.3141230     1.1574790
  C        0.8091060    -0.1845140    -0.0397240
  C        1.6179690     0.9496740    -0.2359790
  C        1.3698700    -1.4337860     0.2499420
  C        3.0044760     0.7849240    -0.1342920
  C        1.0196790     2.2951990    -0.5492200
  C        2.7957521    -1.6009355     0.3360784
  C        3.5736970    -0.4590730     0.1432710
  H       -2.7010110     0.2771110    -1.7633110
  H       -3.3565410    -1.3799850    -1.5813290
  H       -3.1641810     1.0582560     1.8552750
  H       -2.5989570     1.7488760     0.3025170
  H       -1.4126900    -2.0099640    -0.1705650
  H       -0.8261290    -1.3544960    -1.7108330
  H       -0.6365290     1.0912410     1.6504410
  H       -1.2578930    -0.5558900     1.8421060
  H       -4.3648950     0.1725180    -0.0402120
  H       -3.5438220    -1.0118610     0.7575640
  H        0.7360800    -2.3037000     0.4086560
  H        3.6499200     1.6470780    -0.2894290
  H        0.2227830     2.2055990    -1.2916560
  H        0.5919240     2.7705950     0.3416580
  H        1.7859030     2.9697170    -0.9386560
  H        3.1912420    -2.5456860     0.5460090
  H        4.6540550    -0.5586080     0.2046590
units angstrom
no_reorient  #important for SAPT in psi4, default
symmetry c1  #important for SAPT in psi4, default
}

set PROPERTIES_ORIGIN ["COM"]
properties('MP2/aug-cc-pvtz', properties = ['dipole'])
--------------------------------------------------------------------------

    Molecular point group: c1
  Charge       = 1
  Multiplicity = 1
  Basis Set: AUG-CC-PVTZ
    Blend: AUG-CC-PVTZ
  Basis Set: (AUG-CC-PVTZ AUX)
    Blend: AUG-CC-PVTZ-JKFIT

    Orbital Energies [Eh]
    ---------------------

    Doubly Occupied:

       1A    -15.866620     2A    -15.703295     3A    -11.456800
       4A    -11.456750     5A    -11.417445     6A    -11.417294
       7A    -11.375565     8A    -11.345160     9A    -11.344702
      10A    -11.333236    11A    -11.330220    12A    -11.329018
      13A    -11.323841    14A     -1.497531    15A     -1.390270
      16A     -1.246776    17A     -1.221841    18A     -1.155123
      19A     -1.140462    20A     -1.086380    21A     -1.053474
      22A     -1.032997    23A     -0.996330    24A     -0.935404
      25A     -0.923610    26A     -0.904945    27A     -0.867535
      28A     -0.823718    29A     -0.812344    30A     -0.793407
      31A     -0.788591    32A     -0.752883    33A     -0.743374
      34A     -0.734446    35A     -0.717255    36A     -0.707393
      37A     -0.687840    38A     -0.676527    39A     -0.669298
      40A     -0.660199    41A     -0.655374    42A     -0.639210
      43A     -0.604887    44A     -0.586929    45A     -0.585462
      46A     -0.522361    47A     -0.432326    48A     -0.422313

  @DF-RHF Final Energy:  -535.30541626878414

   => Energetics <=

    Nuclear Repulsion Energy =            819.3167169522126869
    One-Electron Energy =               -2336.9067425341354465
    Two-Electron Energy =                 982.2846093131387306
    Total Energy =                       -535.3054162687841426
  Basis Set: (AUG-CC-PVTZ AUX)
    Blend: AUG-CC-PVTZ-RI
    Molecular point group: c1

    Geometry (in Angstrom), charge = 1, multiplicity = 1:

       Center              X                  Y                   Z               Mass
    ------------   -----------------  -----------------  -----------------  -----------------
         N           -3.472960755138    -0.167424197830     0.160496889226    14.003074004430
         N           -0.674651755138     0.006438802170    -0.128538110774    14.003074004430
         C           -2.790977755138    -0.590664197830    -1.121464110774    12.000000000000
         C           -2.679718755138     0.867602802170     0.926174889226    12.000000000000
         C           -1.393013755138    -1.075796197830    -0.782001110774    12.000000000000
         C           -1.279963755138     0.328398802170     1.157703889226    12.000000000000
         C            0.755891244862    -0.170238197830    -0.039499110774    12.000000000000
         C            1.564754244862     0.963949802170    -0.235754110774    12.000000000000
         C            1.316655244862    -1.419510197830     0.250166889226    12.000000000000
         C            2.951261244862     0.799199802170    -0.134067110774    12.000000000000
         C            0.966464244862     2.309474802170    -0.548995110774    12.000000000000
         C            2.742537344862    -1.586659697830     0.336303289226    12.000000000000
         C            3.520482244862    -0.444797197830     0.143495889226    12.000000000000
         H           -2.754225755138     0.291386802170    -1.763086110774     1.007825032230
         H           -3.409755755138    -1.365709197830    -1.581104110774     1.007825032230
         H           -3.217395755138     1.072531802170     1.855499889226     1.007825032230
         H           -2.652171755138     1.763151802170     0.302741889226     1.007825032230
         H           -1.465904755138    -1.995688197830    -0.170340110774     1.007825032230
         H           -0.879343755138    -1.340220197830    -1.710608110774     1.007825032230
         H           -0.689743755138     1.105516802170     1.650665889226     1.007825032230
         H           -1.311107755138    -0.541614197830     1.842330889226     1.007825032230
         H           -4.418109755138     0.186793802170    -0.039987110774     1.007825032230
         H           -3.597036755138    -0.997585197830     0.757788889226     1.007825032230
         H            0.682865244862    -2.289424197830     0.408880889226     1.007825032230
         H            3.596705244862     1.661353802170    -0.289204110774     1.007825032230
         H            0.169568244862     2.219874802170    -1.291431110774     1.007825032230
         H            0.538709244862     2.784870802170     0.341882889226     1.007825032230
         H            1.732688244862     2.983992802170    -0.938431110774     1.007825032230
         H            3.138027244862    -2.531410197830     0.546233889226     1.007825032230
         H            4.600840244862    -0.544332197830     0.204883889226     1.007825032230

  Basis Set: AUG-CC-PVTZ
    Blend: AUG-CC-PVTZ
  Basis Set: (AUG-CC-PVTZ AUX)
    Blend: AUG-CC-PVTZ-JKFIT
	 Reference Energy          =    -535.3054162687841426 [Eh]
	 Singles Energy            =      -0.0000000000000000 [Eh]
	 Same-Spin Energy          =      -0.5852508812044270 [Eh]
	 Opposite-Spin Energy      =      -1.9175099004730674 [Eh]
	 Correlation Energy        =      -2.5027607816774946 [Eh]
	 Total Energy              =    -537.8081770504616088 [Eh]

	 ================> DF-SCS-MP2 Energies <==================
	-----------------------------------------------------------
	 SCS Same-Spin Scale       =       0.3333333333333333 [-]
	 SCS Opposite-Spin Scale   =       1.2000000000000000 [-]
	 SCS Same-Spin Energy      =      -0.1950836270681423 [Eh]
	 SCS Opposite-Spin Energy  =      -2.3010118805676809 [Eh]
	 SCS Correlation Energy    =      -2.4960955076358231 [Eh]
	 SCS Total Energy          =    -537.8015117764199431 [Eh]
	-----------------------------------------------------------

  Dipole Moment: [D]
     X:   -12.1208      Y:    -0.6879      Z:     0.7336     Total:    12.1625

*** Psi4 exiting successfully. Buy a developer a beer!
