                               Psi4 1.4a3.dev225

  ==> Input File <==

--------------------------------------------------------------------------
#psi4
#
memory 32 gb

molecule  {
1 1
  N       -3.4197460    -0.1817000     0.1602720
  N       -0.6214370    -0.0078370    -0.1287630
  C       -2.7377630    -0.6049400    -1.1216890
  C       -2.6265040     0.8533270     0.9259500
  C       -1.3397990    -1.0900720    -0.7822260
  C       -1.2267490     0.3141230     1.1574790
  C        0.8091060    -0.1845140    -0.0397240
  C        1.6179690     0.9496740    -0.2359790
  C        1.3698700    -1.4337860     0.2499420
  C        3.0044760     0.7849240    -0.1342920
  C        1.0196790     2.2951990    -0.5492200
  C        2.7558540    -1.5738690     0.3292430
  C        3.5736970    -0.4590730     0.1432710
  H       -2.7010110     0.2771110    -1.7633110
  H       -3.3565410    -1.3799850    -1.5813290
  H       -3.1641810     1.0582560     1.8552750
  H       -2.5989570     1.7488760     0.3025170
  H       -1.4126900    -2.0099640    -0.1705650
  H       -0.8261290    -1.3544960    -1.7108330
  H       -0.6365290     1.0912410     1.6504410
  H       -1.2578930    -0.5558900     1.8421060
  H       -4.3648950     0.1725180    -0.0402120
  H       -3.5438220    -1.0118610     0.7575640
  H        0.7360800    -2.3037000     0.4086560
  H        3.6499200     1.6470780    -0.2894290
  H        0.2227830     2.2055990    -1.2916560
  H        0.6037298     2.7854567     0.3391903
  H        1.7859030     2.9697170    -0.9386560
  H        3.1912420    -2.5456860     0.5460090
  H        4.6540550    -0.5586080     0.2046590
units angstrom
no_reorient  #important for SAPT in psi4, default
symmetry c1  #important for SAPT in psi4, default
}

set PROPERTIES_ORIGIN ["COM"]
properties('MP2/aug-cc-pvtz', properties = ['dipole'])
--------------------------------------------------------------------------

    Molecular point group: c1
  Charge       = 1
  Multiplicity = 1
  Basis Set: AUG-CC-PVTZ
    Blend: AUG-CC-PVTZ
  Basis Set: (AUG-CC-PVTZ AUX)
    Blend: AUG-CC-PVTZ-JKFIT

    Orbital Energies [Eh]
    ---------------------

    Doubly Occupied:

       1A    -15.866607     2A    -15.703042     3A    -11.456798
       4A    -11.456732     5A    -11.417532     6A    -11.417208
       7A    -11.375232     8A    -11.344460     9A    -11.340197
      10A    -11.331878    11A    -11.329941    12A    -11.328650
      13A    -11.323460    14A     -1.497513    15A     -1.390237
      16A     -1.249938    17A     -1.221828    18A     -1.155591
      19A     -1.142607    20A     -1.088105    21A     -1.053467
      22A     -1.032011    23A     -0.996077    24A     -0.935485
      25A     -0.924252    26A     -0.903463    27A     -0.867458
      28A     -0.823698    29A     -0.810191    30A     -0.793541
      31A     -0.788461    32A     -0.755106    33A     -0.744718
      34A     -0.734545    35A     -0.714597    36A     -0.704505
      37A     -0.687750    38A     -0.675107    39A     -0.669585
      40A     -0.659901    41A     -0.655624    42A     -0.640006
      43A     -0.600174    44A     -0.591661    45A     -0.587987
      46A     -0.521637    47A     -0.433573    48A     -0.423580

  @DF-RHF Final Energy:  -535.30884568152590

   => Energetics <=

    Nuclear Repulsion Energy =            820.2501711504459081
    One-Electron Energy =               -2338.7865946843053280
    Two-Electron Energy =                 983.2275778523334111
    Total Energy =                       -535.3088456815258951
  Basis Set: (AUG-CC-PVTZ AUX)
    Blend: AUG-CC-PVTZ-RI
    Molecular point group: c1

    Geometry (in Angstrom), charge = 1, multiplicity = 1:

       Center              X                  Y                   Z               Mass
    ------------   -----------------  -----------------  -----------------  -----------------
         N           -3.470325092964    -0.169342328002     0.160973981945    14.003074004430
         N           -0.672016092964     0.004520671998    -0.128061018055    14.003074004430
         C           -2.788342092964    -0.592582328002    -1.120987018055    12.000000000000
         C           -2.677083092964     0.865684671998     0.926651981945    12.000000000000
         C           -1.390378092964    -1.077714328002    -0.781524018055    12.000000000000
         C           -1.277328092964     0.326480671998     1.158180981945    12.000000000000
         C            0.758526907036    -0.172156328002    -0.039022018055    12.000000000000
         C            1.567389907036     0.962031671998    -0.235277018055    12.000000000000
         C            1.319290907036    -1.421428328002     0.250643981945    12.000000000000
         C            2.953896907036     0.797281671998    -0.133590018055    12.000000000000
         C            0.969099907036     2.307556671998    -0.548518018055    12.000000000000
         C            2.705274907036    -1.561511328002     0.329944981945    12.000000000000
         C            3.523117907036    -0.446715328002     0.143972981945    12.000000000000
         H           -2.751590092964     0.289468671998    -1.762609018055     1.007825032230
         H           -3.407120092964    -1.367627328002    -1.580627018055     1.007825032230
         H           -3.214760092964     1.070613671998     1.855976981945     1.007825032230
         H           -2.649536092964     1.761233671998     0.303218981945     1.007825032230
         H           -1.463269092964    -1.997606328002    -0.169863018055     1.007825032230
         H           -0.876708092964    -1.342138328002    -1.710131018055     1.007825032230
         H           -0.687108092964     1.103598671998     1.651142981945     1.007825032230
         H           -1.308472092964    -0.543532328002     1.842807981945     1.007825032230
         H           -4.415474092964     0.184875671998    -0.039510018055     1.007825032230
         H           -3.594401092964    -0.999503328002     0.758265981945     1.007825032230
         H            0.685500907036    -2.291342328002     0.409357981945     1.007825032230
         H            3.599340907036     1.659435671998    -0.288727018055     1.007825032230
         H            0.172203907036     2.217956671998    -1.290954018055     1.007825032230
         H            0.553150707036     2.797814371998     0.339892281945     1.007825032230
         H            1.735323907036     2.982074671998    -0.937954018055     1.007825032230
         H            3.140662907036    -2.533328328002     0.546710981945     1.007825032230
         H            4.603475907036    -0.546250328002     0.205360981945     1.007825032230

  Basis Set: AUG-CC-PVTZ
    Blend: AUG-CC-PVTZ
  Basis Set: (AUG-CC-PVTZ AUX)
    Blend: AUG-CC-PVTZ-JKFIT
	 Reference Energy          =    -535.3088456815258951 [Eh]
	 Singles Energy            =      -0.0000000000000000 [Eh]
	 Same-Spin Energy          =      -0.5852891424025853 [Eh]
	 Opposite-Spin Energy      =      -1.9171317287609682 [Eh]
	 Correlation Energy        =      -2.5024208711635536 [Eh]
	 Total Energy              =    -537.8112665526894034 [Eh]

	 ================> DF-SCS-MP2 Energies <==================
	-----------------------------------------------------------
	 SCS Same-Spin Scale       =       0.3333333333333333 [-]
	 SCS Opposite-Spin Scale   =       1.2000000000000000 [-]
	 SCS Same-Spin Energy      =      -0.1950963808008618 [Eh]
	 SCS Opposite-Spin Energy  =      -2.3005580745131615 [Eh]
	 SCS Correlation Energy    =      -2.4956544553140234 [Eh]
	 SCS Total Energy          =    -537.8045001368399198 [Eh]
	-----------------------------------------------------------

  Dipole Moment: [D]
     X:   -12.1007      Y:    -0.6809      Z:     0.7355     Total:    12.1421

*** Psi4 exiting successfully. Buy a developer a beer!
