                               Psi4 1.4a3.dev225

  ==> Input File <==

--------------------------------------------------------------------------
#psi4
#
memory 32 gb

molecule  {
1 1
  N       -3.4197460    -0.1817000     0.1602720
  N       -0.6214370    -0.0078370    -0.1287630
  C       -2.7377630    -0.6049400    -1.1216890
  C       -2.6265040     0.8533270     0.9259500
  C       -1.3397990    -1.0900720    -0.7822260
  C       -1.2267490     0.3141230     1.1574790
  C        0.8091060    -0.1845140    -0.0397240
  C        1.6179690     0.9496740    -0.2359790
  C        1.3698700    -1.4337860     0.2499420
  C        2.9846682     0.7872776    -0.1357447
  C        1.0196790     2.2951990    -0.5492200
  C        2.7558540    -1.5738690     0.3292430
  C        3.5736970    -0.4590730     0.1432710
  H       -2.7010110     0.2771110    -1.7633110
  H       -3.3565410    -1.3799850    -1.5813290
  H       -3.1641810     1.0582560     1.8552750
  H       -2.5989570     1.7488760     0.3025170
  H       -1.4126900    -2.0099640    -0.1705650
  H       -0.8261290    -1.3544960    -1.7108330
  H       -0.6365290     1.0912410     1.6504410
  H       -1.2578930    -0.5558900     1.8421060
  H       -4.3648950     0.1725180    -0.0402120
  H       -3.5438220    -1.0118610     0.7575640
  H        0.7360800    -2.3037000     0.4086560
  H        3.6499200     1.6470780    -0.2894290
  H        0.2227830     2.2055990    -1.2916560
  H        0.5919240     2.7705950     0.3416580
  H        1.7859030     2.9697170    -0.9386560
  H        3.1912420    -2.5456860     0.5460090
  H        4.6540550    -0.5586080     0.2046590
units angstrom
no_reorient  #important for SAPT in psi4, default
symmetry c1  #important for SAPT in psi4, default
}

set PROPERTIES_ORIGIN ["COM"]
properties('MP2/aug-cc-pvtz', properties = ['dipole'])
--------------------------------------------------------------------------

    Molecular point group: c1
  Charge       = 1
  Multiplicity = 1
  Basis Set: AUG-CC-PVTZ
    Blend: AUG-CC-PVTZ
  Basis Set: (AUG-CC-PVTZ AUX)
    Blend: AUG-CC-PVTZ-JKFIT

    Orbital Energies [Eh]
    ---------------------

    Doubly Occupied:

       1A    -15.866666     2A    -15.703137     3A    -11.456831
       4A    -11.456816     5A    -11.417572     6A    -11.417364
       7A    -11.375491     8A    -11.342085     9A    -11.340194
      10A    -11.331761    11A    -11.330272    12A    -11.328851
      13A    -11.323305    14A     -1.497574    15A     -1.390374
      16A     -1.251165    17A     -1.221904    18A     -1.155250
      19A     -1.144127    20A     -1.086756    21A     -1.053567
      22A     -1.032382    23A     -0.996527    24A     -0.935653
      25A     -0.924574    26A     -0.903120    27A     -0.867678
      28A     -0.823763    29A     -0.810166    30A     -0.793440
      31A     -0.788558    32A     -0.755108    33A     -0.745133
      34A     -0.734636    35A     -0.713225    36A     -0.704376
      37A     -0.687725    38A     -0.675417    39A     -0.670021
      40A     -0.660072    41A     -0.655806    42A     -0.639758
      43A     -0.599360    44A     -0.592536    45A     -0.587798
      46A     -0.521462    47A     -0.433745    48A     -0.424291

  @DF-RHF Final Energy:  -535.30844091635606

   => Energetics <=

    Nuclear Repulsion Energy =            820.6073561909275895
    One-Electron Energy =               -2339.4968088647710829
    Two-Electron Energy =                 983.5810117574875449
    Total Energy =                       -535.3084409163560622
  Basis Set: (AUG-CC-PVTZ AUX)
    Blend: AUG-CC-PVTZ-RI
    Molecular point group: c1

    Geometry (in Angstrom), charge = 1, multiplicity = 1:

       Center              X                  Y                   Z               Mass
    ------------   -----------------  -----------------  -----------------  -----------------
         N           -3.468916077805    -0.169417213790     0.161058352837    14.003074004430
         N           -0.670607077805     0.004445786210    -0.127976647163    14.003074004430
         C           -2.786933077805    -0.592657213790    -1.120902647163    12.000000000000
         C           -2.675674077805     0.865609786210     0.926736352837    12.000000000000
         C           -1.388969077805    -1.077789213790    -0.781439647163    12.000000000000
         C           -1.275919077805     0.326405786210     1.158265352837    12.000000000000
         C            0.759935922195    -0.172231213790    -0.038937647163    12.000000000000
         C            1.568798922195     0.961956786210    -0.235192647163    12.000000000000
         C            1.320699922195    -1.421503213790     0.250728352837    12.000000000000
         C            2.935498122195     0.799560386210    -0.134958347163    12.000000000000
         C            0.970508922195     2.307481786210    -0.548433647163    12.000000000000
         C            2.706683922195    -1.561586213790     0.330029352837    12.000000000000
         C            3.524526922195    -0.446790213790     0.144057352837    12.000000000000
         H           -2.750181077805     0.289393786210    -1.762524647163     1.007825032230
         H           -3.405711077805    -1.367702213790    -1.580542647163     1.007825032230
         H           -3.213351077805     1.070538786210     1.856061352837     1.007825032230
         H           -2.648127077805     1.761158786210     0.303303352837     1.007825032230
         H           -1.461860077805    -1.997681213790    -0.169778647163     1.007825032230
         H           -0.875299077805    -1.342213213790    -1.710046647163     1.007825032230
         H           -0.685699077805     1.103523786210     1.651227352837     1.007825032230
         H           -1.307063077805    -0.543607213790     1.842892352837     1.007825032230
         H           -4.414065077805     0.184800786210    -0.039425647163     1.007825032230
         H           -3.592992077805    -0.999578213790     0.758350352837     1.007825032230
         H            0.686909922195    -2.291417213790     0.409442352837     1.007825032230
         H            3.600749922195     1.659360786210    -0.288642647163     1.007825032230
         H            0.173612922195     2.217881786210    -1.290869647163     1.007825032230
         H            0.542753922195     2.782877786210     0.342444352837     1.007825032230
         H            1.736732922195     2.981999786210    -0.937869647163     1.007825032230
         H            3.142071922195    -2.533403213790     0.546795352837     1.007825032230
         H            4.604884922195    -0.546325213790     0.205445352837     1.007825032230

  Basis Set: AUG-CC-PVTZ
    Blend: AUG-CC-PVTZ
  Basis Set: (AUG-CC-PVTZ AUX)
    Blend: AUG-CC-PVTZ-JKFIT
	 Reference Energy          =    -535.3084409163560622 [Eh]
	 Singles Energy            =      -0.0000000000000000 [Eh]
	 Same-Spin Energy          =      -0.5852966085559759 [Eh]
	 Opposite-Spin Energy      =      -1.9171656401459236 [Eh]
	 Correlation Energy        =      -2.5024622487018995 [Eh]
	 Total Energy              =    -537.8109031650579936 [Eh]

	 ================> DF-SCS-MP2 Energies <==================
	-----------------------------------------------------------
	 SCS Same-Spin Scale       =       0.3333333333333333 [-]
	 SCS Opposite-Spin Scale   =       1.2000000000000000 [-]
	 SCS Same-Spin Energy      =      -0.1950988695186586 [Eh]
	 SCS Opposite-Spin Energy  =      -2.3005987681751083 [Eh]
	 SCS Correlation Energy    =      -2.4956976376937670 [Eh]
	 SCS Total Energy          =    -537.8041385540498140 [Eh]
	-----------------------------------------------------------

  Dipole Moment: [D]
     X:   -12.0987      Y:    -0.6976      Z:     0.7354     Total:    12.1411

*** Psi4 exiting successfully. Buy a developer a beer!
