                               Psi4 1.4a3.dev225

  ==> Input File <==

--------------------------------------------------------------------------
#psi4
#
memory 32 gb

molecule  {
1 1
  N       -3.4197460    -0.1817000     0.1602720
  N       -0.6214370    -0.0078370    -0.1287630
  C       -2.7377630    -0.6049400    -1.1216890
  C       -2.6265040     0.8533270     0.9259500
  C       -1.3397990    -1.0900720    -0.7822260
  C       -1.2267490     0.3141230     1.1574790
  C        0.8091060    -0.1845140    -0.0397240
  C        1.6179690     0.9496740    -0.2359790
  C        1.3698700    -1.4337860     0.2499420
  C        3.2025543     0.7613876    -0.1197649
  C        1.0196790     2.2951990    -0.5492200
  C        2.7558540    -1.5738690     0.3292430
  C        3.5736970    -0.4590730     0.1432710
  H       -2.7010110     0.2771110    -1.7633110
  H       -3.3565410    -1.3799850    -1.5813290
  H       -3.1641810     1.0582560     1.8552750
  H       -2.5989570     1.7488760     0.3025170
  H       -1.4126900    -2.0099640    -0.1705650
  H       -0.8261290    -1.3544960    -1.7108330
  H       -0.6365290     1.0912410     1.6504410
  H       -1.2578930    -0.5558900     1.8421060
  H       -4.3648950     0.1725180    -0.0402120
  H       -3.5438220    -1.0118610     0.7575640
  H        0.7360800    -2.3037000     0.4086560
  H        3.6499200     1.6470780    -0.2894290
  H        0.2227830     2.2055990    -1.2916560
  H        0.5919240     2.7705950     0.3416580
  H        1.7859030     2.9697170    -0.9386560
  H        3.1912420    -2.5456860     0.5460090
  H        4.6540550    -0.5586080     0.2046590
units angstrom
no_reorient  #important for SAPT in psi4, default
symmetry c1  #important for SAPT in psi4, default
}

set PROPERTIES_ORIGIN ["COM"]
properties('MP2/aug-cc-pvtz', properties = ['dipole'])
--------------------------------------------------------------------------

    Molecular point group: c1
  Charge       = 1
  Multiplicity = 1
  Basis Set: AUG-CC-PVTZ
    Blend: AUG-CC-PVTZ
  Basis Set: (AUG-CC-PVTZ AUX)
    Blend: AUG-CC-PVTZ-JKFIT

    Orbital Energies [Eh]
    ---------------------

    Doubly Occupied:

       1A    -15.866379     2A    -15.702229     3A    -11.456664
       4A    -11.456415     5A    -11.417285     6A    -11.416412
       7A    -11.371873     8A    -11.359846     9A    -11.341415
      10A    -11.333367    11A    -11.332249    12A    -11.325624
      13A    -11.319142    14A     -1.497252    15A     -1.389191
      16A     -1.242635    17A     -1.221500    18A     -1.160916
      19A     -1.131683    20A     -1.100780    21A     -1.052988
      22A     -1.030065    23A     -0.992581    24A     -0.936573
      25A     -0.924802    26A     -0.899350    27A     -0.867191
      28A     -0.823473    29A     -0.813245    30A     -0.793666
      31A     -0.788204    32A     -0.756888    33A     -0.747303
      34A     -0.735448    35A     -0.725302    36A     -0.702617
      37A     -0.687955    38A     -0.673842    39A     -0.667625
      40A     -0.660159    41A     -0.652853    42A     -0.648101
      43A     -0.615498    44A     -0.587421    45A     -0.550406
      46A     -0.522981    47A     -0.449160    48A     -0.406831

  @DF-RHF Final Energy:  -535.26776149800094

   => Energetics <=

    Nuclear Repulsion Energy =            817.4192249303436029
    One-Electron Energy =               -2333.0632055928344926
    Two-Electron Energy =                 980.3762191644898394
    Total Energy =                       -535.2677614980009366
  Basis Set: (AUG-CC-PVTZ AUX)
    Blend: AUG-CC-PVTZ-RI
    Molecular point group: c1

    Geometry (in Angstrom), charge = 1, multiplicity = 1:

       Center              X                  Y                   Z               Mass
    ------------   -----------------  -----------------  -----------------  -----------------
         N           -3.483676410867    -0.167663338610     0.159975827746    14.003074004430
         N           -0.685367410867     0.006199661390    -0.129059172254    14.003074004430
         C           -2.801693410867    -0.590903338610    -1.121985172254    12.000000000000
         C           -2.690434410867     0.867363661390     0.925653827746    12.000000000000
         C           -1.403729410867    -1.076035338610    -0.782522172254    12.000000000000
         C           -1.290679410867     0.328159661390     1.157182827746    12.000000000000
         C            0.745175589133    -0.170477338610    -0.040020172254    12.000000000000
         C            1.554038589133     0.963710661390    -0.236275172254    12.000000000000
         C            1.305939589133    -1.419749338610     0.249645827746    12.000000000000
         C            3.138623889133     0.775424261390    -0.120061072254    12.000000000000
         C            0.955748589133     2.309235661390    -0.549516172254    12.000000000000
         C            2.691923589133    -1.559832338610     0.328946827746    12.000000000000
         C            3.509766589133    -0.445036338610     0.142974827746    12.000000000000
         H           -2.764941410867     0.291147661390    -1.763607172254     1.007825032230
         H           -3.420471410867    -1.365948338610    -1.581625172254     1.007825032230
         H           -3.228111410867     1.072292661390     1.854978827746     1.007825032230
         H           -2.662887410867     1.762912661390     0.302220827746     1.007825032230
         H           -1.476620410867    -1.995927338610    -0.170861172254     1.007825032230
         H           -0.890059410867    -1.340459338610    -1.711129172254     1.007825032230
         H           -0.700459410867     1.105277661390     1.650144827746     1.007825032230
         H           -1.321823410867    -0.541853338610     1.841809827746     1.007825032230
         H           -4.428825410867     0.186554661390    -0.040508172254     1.007825032230
         H           -3.607752410867    -0.997824338610     0.757267827746     1.007825032230
         H            0.672149589133    -2.289663338610     0.408359827746     1.007825032230
         H            3.585989589133     1.661114661390    -0.289725172254     1.007825032230
         H            0.158852589133     2.219635661390    -1.291952172254     1.007825032230
         H            0.527993589133     2.784631661390     0.341361827746     1.007825032230
         H            1.721972589133     2.983753661390    -0.938952172254     1.007825032230
         H            3.127311589133    -2.531649338610     0.545712827746     1.007825032230
         H            4.590124589133    -0.544571338610     0.204362827746     1.007825032230

  Basis Set: AUG-CC-PVTZ
    Blend: AUG-CC-PVTZ
  Basis Set: (AUG-CC-PVTZ AUX)
    Blend: AUG-CC-PVTZ-JKFIT
	 Reference Energy          =    -535.2677614980009366 [Eh]
	 Singles Energy            =      -0.0000000000000000 [Eh]
	 Same-Spin Energy          =      -0.5848786337204802 [Eh]
	 Opposite-Spin Energy      =      -1.9192295847239760 [Eh]
	 Correlation Energy        =      -2.5041082184444563 [Eh]
	 Total Energy              =    -537.7718697164453943 [Eh]

	 ================> DF-SCS-MP2 Energies <==================
	-----------------------------------------------------------
	 SCS Same-Spin Scale       =       0.3333333333333333 [-]
	 SCS Opposite-Spin Scale   =       1.2000000000000000 [-]
	 SCS Same-Spin Energy      =      -0.1949595445734934 [Eh]
	 SCS Opposite-Spin Energy  =      -2.3030755016687712 [Eh]
	 SCS Correlation Energy    =      -2.4980350462422645 [Eh]
	 SCS Total Energy          =    -537.7657965442432442 [Eh]
	-----------------------------------------------------------

  Dipole Moment: [D]
     X:   -12.1682      Y:    -0.6013      Z:     0.7129     Total:    12.2039

*** Psi4 exiting successfully. Buy a developer a beer!
