                               Psi4 1.4a3.dev225

  ==> Input File <==

--------------------------------------------------------------------------
#psi4
#
memory 32 gb

molecule  {
1 1
  N       -3.4197460    -0.1817000     0.1602720
  N       -0.6214370    -0.0078370    -0.1287630
  C       -2.7377630    -0.6049400    -1.1216890
  C       -2.6265040     0.8533270     0.9259500
  C       -1.3397990    -1.0900720    -0.7822260
  C       -1.2267490     0.3141230     1.1574790
  C        0.8315567    -0.1749691    -0.0409911
  C        1.6179690     0.9496740    -0.2359790
  C        1.3698700    -1.4337860     0.2499420
  C        3.0044760     0.7849240    -0.1342920
  C        1.0196790     2.2951990    -0.5492200
  C        2.7558540    -1.5738690     0.3292430
  C        3.5736970    -0.4590730     0.1432710
  H       -2.7010110     0.2771110    -1.7633110
  H       -3.3565410    -1.3799850    -1.5813290
  H       -3.1641810     1.0582560     1.8552750
  H       -2.5989570     1.7488760     0.3025170
  H       -1.4126900    -2.0099640    -0.1705650
  H       -0.8261290    -1.3544960    -1.7108330
  H       -0.6365290     1.0912410     1.6504410
  H       -1.2578930    -0.5558900     1.8421060
  H       -4.3648950     0.1725180    -0.0402120
  H       -3.5438220    -1.0118610     0.7575640
  H        0.7360800    -2.3037000     0.4086560
  H        3.6499200     1.6470780    -0.2894290
  H        0.2227830     2.2055990    -1.2916560
  H        0.5919240     2.7705950     0.3416580
  H        1.7859030     2.9697170    -0.9386560
  H        3.1912420    -2.5456860     0.5460090
  H        4.6540550    -0.5586080     0.2046590
units angstrom
no_reorient  #important for SAPT in psi4, default
symmetry c1  #important for SAPT in psi4, default
}

set PROPERTIES_ORIGIN ["COM"]
properties('MP2/aug-cc-pvtz', properties = ['dipole'])
--------------------------------------------------------------------------

    Molecular point group: c1
  Charge       = 1
  Multiplicity = 1
  Basis Set: AUG-CC-PVTZ
    Blend: AUG-CC-PVTZ
  Basis Set: (AUG-CC-PVTZ AUX)
    Blend: AUG-CC-PVTZ-JKFIT

    Orbital Energies [Eh]
    ---------------------

    Doubly Occupied:

       1A    -15.866001     2A    -15.701767     3A    -11.456176
       4A    -11.456033     5A    -11.416731     6A    -11.416203
       7A    -11.374936     8A    -11.342953     9A    -11.340614
      10A    -11.332522    11A    -11.330597    12A    -11.328996
      13A    -11.324165    14A     -1.496755    15A     -1.385581
      16A     -1.252802    17A     -1.220970    18A     -1.155019
      19A     -1.142731    20A     -1.088324    21A     -1.052286
      22A     -1.033279    23A     -0.994769    24A     -0.935636
      25A     -0.924322    26A     -0.904041    27A     -0.866907
      28A     -0.822977    29A     -0.808647    30A     -0.792772
      31A     -0.786798    32A     -0.755108    33A     -0.744785
      34A     -0.733718    35A     -0.714879    36A     -0.704719
      37A     -0.686945    38A     -0.676023    39A     -0.670125
      40A     -0.658895    41A     -0.654374    42A     -0.640679
      43A     -0.600292    44A     -0.592179    45A     -0.589919
      46A     -0.520121    47A     -0.433617    48A     -0.426688

  @DF-RHF Final Energy:  -535.30847765634053

   => Energetics <=

    Nuclear Repulsion Energy =            820.2360950791008918
    One-Electron Energy =               -2338.7783961362265472
    Two-Electron Energy =                 983.2338234007852407
    Total Energy =                       -535.3084776563405285
  Basis Set: (AUG-CC-PVTZ AUX)
    Blend: AUG-CC-PVTZ-RI
    Molecular point group: c1

    Geometry (in Angstrom), charge = 1, multiplicity = 1:

       Center              X                  Y                   Z               Mass
    ------------   -----------------  -----------------  -----------------  -----------------
         N           -3.471778809915    -0.169904376501     0.161045779672    14.003074004430
         N           -0.673469809915     0.003958623499    -0.127989220328    14.003074004430
         C           -2.789795809915    -0.593144376501    -1.120915220328    12.000000000000
         C           -2.678536809915     0.865122623499     0.926723779672    12.000000000000
         C           -1.391831809915    -1.078276376501    -0.781452220328    12.000000000000
         C           -1.278781809915     0.325918623499     1.158252779672    12.000000000000
         C            0.779523890085    -0.163173476501    -0.040217320328    12.000000000000
         C            1.565936190085     0.961469623499    -0.235205220328    12.000000000000
         C            1.317837190085    -1.421990376501     0.250715779672    12.000000000000
         C            2.952443190085     0.796719623499    -0.133518220328    12.000000000000
         C            0.967646190085     2.306994623499    -0.548446220328    12.000000000000
         C            2.703821190085    -1.562073376501     0.330016779672    12.000000000000
         C            3.521664190085    -0.447277376501     0.144044779672    12.000000000000
         H           -2.753043809915     0.288906623499    -1.762537220328     1.007825032230
         H           -3.408573809915    -1.368189376501    -1.580555220328     1.007825032230
         H           -3.216213809915     1.070051623499     1.856048779672     1.007825032230
         H           -2.650989809915     1.760671623499     0.303290779672     1.007825032230
         H           -1.464722809915    -1.998168376501    -0.169791220328     1.007825032230
         H           -0.878161809915    -1.342700376501    -1.710059220328     1.007825032230
         H           -0.688561809915     1.103036623499     1.651214779672     1.007825032230
         H           -1.309925809915    -0.544094376501     1.842879779672     1.007825032230
         H           -4.416927809915     0.184313623499    -0.039438220328     1.007825032230
         H           -3.595854809915    -1.000065376501     0.758337779672     1.007825032230
         H            0.684047190085    -2.291904376501     0.409429779672     1.007825032230
         H            3.597887190085     1.658873623499    -0.288655220328     1.007825032230
         H            0.170750190085     2.217394623499    -1.290882220328     1.007825032230
         H            0.539891190085     2.782390623499     0.342431779672     1.007825032230
         H            1.733870190085     2.981512623499    -0.937882220328     1.007825032230
         H            3.139209190085    -2.533890376501     0.546782779672     1.007825032230
         H            4.602022190085    -0.546812376501     0.205432779672     1.007825032230

  Basis Set: AUG-CC-PVTZ
    Blend: AUG-CC-PVTZ
  Basis Set: (AUG-CC-PVTZ AUX)
    Blend: AUG-CC-PVTZ-JKFIT
	 Reference Energy          =    -535.3084776563405285 [Eh]
	 Singles Energy            =      -0.0000000000000000 [Eh]
	 Same-Spin Energy          =      -0.5851442226212671 [Eh]
	 Opposite-Spin Energy      =      -1.9169944865306596 [Eh]
	 Correlation Energy        =      -2.5021387091519269 [Eh]
	 Total Energy              =    -537.8106163654924785 [Eh]

	 ================> DF-SCS-MP2 Energies <==================
	-----------------------------------------------------------
	 SCS Same-Spin Scale       =       0.3333333333333333 [-]
	 SCS Opposite-Spin Scale   =       1.2000000000000000 [-]
	 SCS Same-Spin Energy      =      -0.1950480742070890 [Eh]
	 SCS Opposite-Spin Energy  =      -2.3003933838367914 [Eh]
	 SCS Correlation Energy    =      -2.4954414580438802 [Eh]
	 SCS Total Energy          =    -537.8039191143843709 [Eh]
	-----------------------------------------------------------

  Dipole Moment: [D]
     X:   -12.0204      Y:    -0.6831      Z:     0.7263     Total:    12.0617

*** Psi4 exiting successfully. Buy a developer a beer!
