                               Psi4 1.4a3.dev225

  ==> Input File <==

--------------------------------------------------------------------------
#psi4
#
memory 32 gb

molecule  {
1 1
  N       -3.4197460    -0.1817000     0.1602720
  N       -0.6214370    -0.0078370    -0.1287630
  C       -2.7377630    -0.6049400    -1.1216890
  C       -2.6265040     0.8533270     0.9259500
  C       -1.3397990    -1.0900720    -0.7822260
  C       -1.2267490     0.3141230     1.1574790
  C        0.8091060    -0.1845140    -0.0397240
  C        1.6179690     0.9496740    -0.2359790
  C        1.3698700    -1.4337860     0.2499420
  C        3.0044760     0.7849240    -0.1342920
  C        1.0395492     2.2505118    -0.5388167
  C        2.7558540    -1.5738690     0.3292430
  C        3.5736970    -0.4590730     0.1432710
  H       -2.7010110     0.2771110    -1.7633110
  H       -3.3565410    -1.3799850    -1.5813290
  H       -3.1641810     1.0582560     1.8552750
  H       -2.5989570     1.7488760     0.3025170
  H       -1.4126900    -2.0099640    -0.1705650
  H       -0.8261290    -1.3544960    -1.7108330
  H       -0.6365290     1.0912410     1.6504410
  H       -1.2578930    -0.5558900     1.8421060
  H       -4.3648950     0.1725180    -0.0402120
  H       -3.5438220    -1.0118610     0.7575640
  H        0.7360800    -2.3037000     0.4086560
  H        3.6499200     1.6470780    -0.2894290
  H        0.2227830     2.2055990    -1.2916560
  H        0.5919240     2.7705950     0.3416580
  H        1.7859030     2.9697170    -0.9386560
  H        3.1912420    -2.5456860     0.5460090
  H        4.6540550    -0.5586080     0.2046590
units angstrom
no_reorient  #important for SAPT in psi4, default
symmetry c1  #important for SAPT in psi4, default
}

set PROPERTIES_ORIGIN ["COM"]
properties('MP2/aug-cc-pvtz', properties = ['dipole'])
--------------------------------------------------------------------------

    Molecular point group: c1
  Charge       = 1
  Multiplicity = 1
  Basis Set: AUG-CC-PVTZ
    Blend: AUG-CC-PVTZ
  Basis Set: (AUG-CC-PVTZ AUX)
    Blend: AUG-CC-PVTZ-JKFIT

    Orbital Energies [Eh]
    ---------------------

    Doubly Occupied:

       1A    -15.866609     2A    -15.703134     3A    -11.456800
       4A    -11.456726     5A    -11.417597     6A    -11.417242
       7A    -11.375357     8A    -11.342171     9A    -11.340427
      10A    -11.332064    11A    -11.330053    12A    -11.328786
      13A    -11.325229    14A     -1.497519    15A     -1.390498
      16A     -1.251918    17A     -1.221845    18A     -1.157526
      19A     -1.146592    20A     -1.088583    21A     -1.053520
      22A     -1.030489    23A     -0.996025    24A     -0.935855
      25A     -0.924619    26A     -0.902696    27A     -0.867604
      28A     -0.823691    29A     -0.810758    30A     -0.793644
      31A     -0.788607    32A     -0.757527    33A     -0.745563
      34A     -0.734632    35A     -0.715123    36A     -0.705585
      37A     -0.688208    38A     -0.675246    39A     -0.670704
      40A     -0.660224    41A     -0.655799    42A     -0.633199
      43A     -0.605062    44A     -0.588938    45A     -0.586162
      46A     -0.521827    47A     -0.433624    48A     -0.422535

  @DF-RHF Final Energy:  -535.30552023446751

   => Energetics <=

    Nuclear Repulsion Energy =            821.2098200774538554
    One-Electron Energy =               -2340.6823980308336104
    Two-Electron Energy =                 984.1670577189121332
    Total Energy =                       -535.3055202344675081
  Basis Set: (AUG-CC-PVTZ AUX)
    Blend: AUG-CC-PVTZ-RI
    Molecular point group: c1

    Geometry (in Angstrom), charge = 1, multiplicity = 1:

       Center              X                  Y                   Z               Mass
    ------------   -----------------  -----------------  -----------------  -----------------
         N           -3.471603998215    -0.166230512686     0.160255187749    14.003074004430
         N           -0.673294998215     0.007632487314    -0.128779812251    14.003074004430
         C           -2.789620998215    -0.589470512686    -1.121705812251    12.000000000000
         C           -2.678361998215     0.868796487314     0.925933187749    12.000000000000
         C           -1.391656998215    -1.074602512686    -0.782242812251    12.000000000000
         C           -1.278606998215     0.329592487314     1.157462187749    12.000000000000
         C            0.757248001785    -0.169044512686    -0.039740812251    12.000000000000
         C            1.566111001785     0.965143487314    -0.235995812251    12.000000000000
         C            1.318012001785    -1.418316512686     0.249925187749    12.000000000000
         C            2.952618001785     0.800393487314    -0.134308812251    12.000000000000
         C            0.987691201785     2.265981287314    -0.538833512251    12.000000000000
         C            2.703996001785    -1.558399512686     0.329226187749    12.000000000000
         C            3.521839001785    -0.443603512686     0.143254187749    12.000000000000
         H           -2.752868998215     0.292580487314    -1.763327812251     1.007825032230
         H           -3.408398998215    -1.364515512686    -1.581345812251     1.007825032230
         H           -3.216038998215     1.073725487314     1.855258187749     1.007825032230
         H           -2.650814998215     1.764345487314     0.302500187749     1.007825032230
         H           -1.464547998215    -1.994494512686    -0.170581812251     1.007825032230
         H           -0.877986998215    -1.339026512686    -1.710849812251     1.007825032230
         H           -0.688386998215     1.106710487314     1.650424187749     1.007825032230
         H           -1.309750998215    -0.540420512686     1.842089187749     1.007825032230
         H           -4.416752998215     0.187987487314    -0.040228812251     1.007825032230
         H           -3.595679998215    -0.996391512686     0.757547187749     1.007825032230
         H            0.684222001785    -2.288230512686     0.408639187749     1.007825032230
         H            3.598062001785     1.662547487314    -0.289445812251     1.007825032230
         H            0.170925001785     2.221068487314    -1.291672812251     1.007825032230
         H            0.540066001785     2.786064487314     0.341641187749     1.007825032230
         H            1.734045001785     2.985186487314    -0.938672812251     1.007825032230
         H            3.139384001785    -2.530216512686     0.545992187749     1.007825032230
         H            4.602197001785    -0.543138512686     0.204642187749     1.007825032230

  Basis Set: AUG-CC-PVTZ
    Blend: AUG-CC-PVTZ
  Basis Set: (AUG-CC-PVTZ AUX)
    Blend: AUG-CC-PVTZ-JKFIT
	 Reference Energy          =    -535.3055202344675081 [Eh]
	 Singles Energy            =      -0.0000000000000000 [Eh]
	 Same-Spin Energy          =      -0.5858895888161655 [Eh]
	 Opposite-Spin Energy      =      -1.9177152509252995 [Eh]
	 Correlation Energy        =      -2.5036048397414650 [Eh]
	 Total Energy              =    -537.8091250742089642 [Eh]

	 ================> DF-SCS-MP2 Energies <==================
	-----------------------------------------------------------
	 SCS Same-Spin Scale       =       0.3333333333333333 [-]
	 SCS Opposite-Spin Scale   =       1.2000000000000000 [-]
	 SCS Same-Spin Energy      =      -0.1952965296053885 [Eh]
	 SCS Opposite-Spin Energy  =      -2.3012583011103591 [Eh]
	 SCS Correlation Energy    =      -2.4965548307157475 [Eh]
	 SCS Total Energy          =    -537.8020750651832032 [Eh]
	-----------------------------------------------------------

  Dipole Moment: [D]
     X:   -12.1133      Y:    -0.6678      Z:     0.7258     Total:    12.1534

*** Psi4 exiting successfully. Buy a developer a beer!
