                               Psi4 1.4a3.dev225

  ==> Input File <==

--------------------------------------------------------------------------
#psi4
#
memory 32 gb

molecule  {
1 1
  N       -3.4197460    -0.1817000     0.1602720
  N       -0.6214370    -0.0078370    -0.1287630
  C       -2.7377630    -0.6049400    -1.1216890
  C       -2.6265040     0.8533270     0.9259500
  C       -1.3397990    -1.0900720    -0.7822260
  C       -1.2267490     0.3141230     1.1574790
  C        0.8496931    -0.2110695    -0.0320563
  C        1.6179690     0.9496740    -0.2359790
  C        1.3698700    -1.4337860     0.2499420
  C        3.0044760     0.7849240    -0.1342920
  C        1.0196790     2.2951990    -0.5492200
  C        2.7558540    -1.5738690     0.3292430
  C        3.5736970    -0.4590730     0.1432710
  H       -2.7010110     0.2771110    -1.7633110
  H       -3.3565410    -1.3799850    -1.5813290
  H       -3.1641810     1.0582560     1.8552750
  H       -2.5989570     1.7488760     0.3025170
  H       -1.4126900    -2.0099640    -0.1705650
  H       -0.8261290    -1.3544960    -1.7108330
  H       -0.6365290     1.0912410     1.6504410
  H       -1.2578930    -0.5558900     1.8421060
  H       -4.3648950     0.1725180    -0.0402120
  H       -3.5438220    -1.0118610     0.7575640
  H        0.7360800    -2.3037000     0.4086560
  H        3.6499200     1.6470780    -0.2894290
  H        0.2227830     2.2055990    -1.2916560
  H        0.5919240     2.7705950     0.3416580
  H        1.7859030     2.9697170    -0.9386560
  H        3.1912420    -2.5456860     0.5460090
  H        4.6540550    -0.5586080     0.2046590
units angstrom
no_reorient  #important for SAPT in psi4, default
symmetry c1  #important for SAPT in psi4, default
}

set PROPERTIES_ORIGIN ["COM"]
properties('MP2/aug-cc-pvtz', properties = ['dipole'])
--------------------------------------------------------------------------

    Molecular point group: c1
  Charge       = 1
  Multiplicity = 1
  Basis Set: AUG-CC-PVTZ
    Blend: AUG-CC-PVTZ
  Basis Set: (AUG-CC-PVTZ AUX)
    Blend: AUG-CC-PVTZ-JKFIT

    Orbital Energies [Eh]
    ---------------------

    Doubly Occupied:

       1A    -15.865546     2A    -15.701330     3A    -11.455705
       4A    -11.455548     5A    -11.415507     6A    -11.415479
       7A    -11.374615     8A    -11.345402     9A    -11.337435
      10A    -11.332578    11A    -11.330478    12A    -11.328979
      13A    -11.325114    14A     -1.496201    15A     -1.381877
      16A     -1.254933    17A     -1.220310    18A     -1.152342
      19A     -1.144873    20A     -1.091159    21A     -1.051376
      22A     -1.033445    23A     -0.993596    24A     -0.933891
      25A     -0.922923    26A     -0.905935    27A     -0.866555
      28A     -0.822448    29A     -0.808865    30A     -0.791853
      31A     -0.785535    32A     -0.752377    33A     -0.745953
      34A     -0.733189    35A     -0.716709    36A     -0.704245
      37A     -0.686286    38A     -0.675667    39A     -0.670706
      40A     -0.658048    41A     -0.651983    42A     -0.642004
      43A     -0.602095    44A     -0.593377    45A     -0.586744
      46A     -0.521081    47A     -0.439436    48A     -0.423721

  @DF-RHF Final Energy:  -535.30647550105766

   => Energetics <=

    Nuclear Repulsion Energy =            820.1092932450941362
    One-Electron Energy =               -2338.5406283524794162
    Two-Electron Energy =                 983.1248596063275045
    Total Energy =                       -535.3064755010576619
  Basis Set: (AUG-CC-PVTZ AUX)
    Blend: AUG-CC-PVTZ-RI
    Molecular point group: c1

    Geometry (in Angstrom), charge = 1, multiplicity = 1:

       Center              X                  Y                   Z               Mass
    ------------   -----------------  -----------------  -----------------  -----------------
         N           -3.473007430302    -0.167458814679     0.160440506441    14.003074004430
         N           -0.674698430302     0.006404185321    -0.128594493559    14.003074004430
         C           -2.791024430302    -0.590698814679    -1.121520493559    12.000000000000
         C           -2.679765430302     0.867568185321     0.926118506441    12.000000000000
         C           -1.393060430302    -1.075830814679    -0.782057493559    12.000000000000
         C           -1.280010430302     0.328364185321     1.157647506441    12.000000000000
         C            0.796431669698    -0.196828314679    -0.031887793559    12.000000000000
         C            1.564707569698     0.963915185321    -0.235810493559    12.000000000000
         C            1.316608569698    -1.419544814679     0.250110506441    12.000000000000
         C            2.951214569698     0.799165185321    -0.134123493559    12.000000000000
         C            0.966417569698     2.309440185321    -0.549051493559    12.000000000000
         C            2.702592569698    -1.559627814679     0.329411506441    12.000000000000
         C            3.520435569698    -0.444831814679     0.143439506441    12.000000000000
         H           -2.754272430302     0.291352185321    -1.763142493559     1.007825032230
         H           -3.409802430302    -1.365743814679    -1.581160493559     1.007825032230
         H           -3.217442430302     1.072497185321     1.855443506441     1.007825032230
         H           -2.652218430302     1.763117185321     0.302685506441     1.007825032230
         H           -1.465951430302    -1.995722814679    -0.170396493559     1.007825032230
         H           -0.879390430302    -1.340254814679    -1.710664493559     1.007825032230
         H           -0.689790430302     1.105482185321     1.650609506441     1.007825032230
         H           -1.311154430302    -0.541648814679     1.842274506441     1.007825032230
         H           -4.418156430302     0.186759185321    -0.040043493559     1.007825032230
         H           -3.597083430302    -0.997619814679     0.757732506441     1.007825032230
         H            0.682818569698    -2.289458814679     0.408824506441     1.007825032230
         H            3.596658569698     1.661319185321    -0.289260493559     1.007825032230
         H            0.169521569698     2.219840185321    -1.291487493559     1.007825032230
         H            0.538662569698     2.784836185321     0.341826506441     1.007825032230
         H            1.732641569698     2.983958185321    -0.938487493559     1.007825032230
         H            3.137980569698    -2.531444814679     0.546177506441     1.007825032230
         H            4.600793569698    -0.544366814679     0.204827506441     1.007825032230

  Basis Set: AUG-CC-PVTZ
    Blend: AUG-CC-PVTZ
  Basis Set: (AUG-CC-PVTZ AUX)
    Blend: AUG-CC-PVTZ-JKFIT
	 Reference Energy          =    -535.3064755010576619 [Eh]
	 Singles Energy            =      -0.0000000000000000 [Eh]
	 Same-Spin Energy          =      -0.5850507495063051 [Eh]
	 Opposite-Spin Energy      =      -1.9169892204223924 [Eh]
	 Correlation Energy        =      -2.5020399699286973 [Eh]
	 Total Energy              =    -537.8085154709863218 [Eh]

	 ================> DF-SCS-MP2 Energies <==================
	-----------------------------------------------------------
	 SCS Same-Spin Scale       =       0.3333333333333333 [-]
	 SCS Opposite-Spin Scale   =       1.2000000000000000 [-]
	 SCS Same-Spin Energy      =      -0.1950169165021017 [Eh]
	 SCS Opposite-Spin Energy  =      -2.3003870645068707 [Eh]
	 SCS Correlation Energy    =      -2.4954039810089723 [Eh]
	 SCS Total Energy          =    -537.8018794820666244 [Eh]
	-----------------------------------------------------------

  Dipole Moment: [D]
     X:   -11.9710      Y:    -0.6782      Z:     0.7314     Total:    12.0125

*** Psi4 exiting successfully. Buy a developer a beer!
