                               Psi4 1.4a3.dev225

  ==> Input File <==

--------------------------------------------------------------------------
#psi4
#
memory 32 gb

molecule  {
1 1
  N       -3.4197460    -0.1817000     0.1602720
  N       -0.6214370    -0.0078370    -0.1287630
  C       -2.7377630    -0.6049400    -1.1216890
  C       -2.6265040     0.8533270     0.9259500
  C       -1.3397990    -1.0900720    -0.7822260
  C       -1.2267490     0.3141230     1.1574790
  C        0.8091060    -0.1845140    -0.0397240
  C        1.6179690     0.9496740    -0.2359790
  C        1.3698700    -1.4337860     0.2499420
  C        3.0044760     0.7849240    -0.1342920
  C        1.0196790     2.2951990    -0.5492200
  C        2.7558540    -1.5738690     0.3292430
  C        3.5736970    -0.4590730     0.1432710
  H       -2.7010110     0.2771110    -1.7633110
  H       -3.3565410    -1.3799850    -1.5813290
  H       -3.1641810     1.0582560     1.8552750
  H       -2.5989570     1.7488760     0.3025170
  H       -1.4126900    -2.0099640    -0.1705650
  H       -0.8261290    -1.3544960    -1.7108330
  H       -0.6365290     1.0912410     1.6504410
  H       -1.2578930    -0.5558900     1.8421060
  H       -4.3648950     0.1725180    -0.0402120
  H       -3.5438220    -1.0118610     0.7575640
  H        0.7360800    -2.3037000     0.4086560
  H        3.6499200     1.6470780    -0.2894290
  H        0.1863229     2.2014996    -1.3256244
  H        0.5919240     2.7705950     0.3416580
  H        1.7859030     2.9697170    -0.9386560
  H        3.1912420    -2.5456860     0.5460090
  H        4.6540550    -0.5586080     0.2046590
units angstrom
no_reorient  #important for SAPT in psi4, default
symmetry c1  #important for SAPT in psi4, default
}

set PROPERTIES_ORIGIN ["COM"]
properties('MP2/aug-cc-pvtz', properties = ['dipole'])
--------------------------------------------------------------------------

    Molecular point group: c1
  Charge       = 1
  Multiplicity = 1
  Basis Set: AUG-CC-PVTZ
    Blend: AUG-CC-PVTZ
  Basis Set: (AUG-CC-PVTZ AUX)
    Blend: AUG-CC-PVTZ-JKFIT

    Orbital Energies [Eh]
    ---------------------

    Doubly Occupied:

       1A    -15.866580     2A    -15.702926     3A    -11.456757
       4A    -11.456702     5A    -11.417496     6A    -11.417259
       7A    -11.375365     8A    -11.344847     9A    -11.340343
      10A    -11.332034    11A    -11.330229    12A    -11.329496
      13A    -11.328887    14A     -1.497482    15A     -1.390202
      16A     -1.250060    17A     -1.221805    18A     -1.155457
      19A     -1.142108    20A     -1.088040    21A     -1.053454
      22A     -1.029299    23A     -0.995919    24A     -0.935533
      25A     -0.924305    26A     -0.902739    27A     -0.867378
      28A     -0.823662    29A     -0.809979    30A     -0.793585
      31A     -0.788439    32A     -0.755091    33A     -0.744390
      34A     -0.734297    35A     -0.714731    36A     -0.704029
      37A     -0.687709    38A     -0.673951    39A     -0.668245
      40A     -0.659962    41A     -0.654641    42A     -0.637309
      43A     -0.600291    44A     -0.591180    45A     -0.587315
      46A     -0.521293    47A     -0.433708    48A     -0.423601

  @DF-RHF Final Energy:  -535.30667014683104

   => Energetics <=

    Nuclear Repulsion Energy =            820.1052311596569098
    One-Electron Energy =               -2338.5035735604001275
    Two-Electron Energy =                 983.0916722539122929
    Total Energy =                       -535.3066701468310384
  Basis Set: (AUG-CC-PVTZ AUX)
    Blend: AUG-CC-PVTZ-RI
    Molecular point group: c1

    Geometry (in Angstrom), charge = 1, multiplicity = 1:

       Center              X                  Y                   Z               Mass
    ------------   -----------------  -----------------  -----------------  -----------------
         N           -3.470050486387    -0.169234449711     0.161153203702    14.003074004430
         N           -0.671741486387     0.004628550289    -0.127881796298    14.003074004430
         C           -2.788067486387    -0.592474449711    -1.120807796298    12.000000000000
         C           -2.676808486387     0.865792550289     0.926831203702    12.000000000000
         C           -1.390103486387    -1.077606449711    -0.781344796298    12.000000000000
         C           -1.277053486387     0.326588550289     1.158360203702    12.000000000000
         C            0.758801513613    -0.172048449711    -0.038842796298    12.000000000000
         C            1.567664513613     0.962139550289    -0.235097796298    12.000000000000
         C            1.319565513613    -1.421320449711     0.250823203702    12.000000000000
         C            2.954171513613     0.797389550289    -0.133410796298    12.000000000000
         C            0.969374513613     2.307664550289    -0.548338796298    12.000000000000
         C            2.705549513613    -1.561403449711     0.330124203702    12.000000000000
         C            3.523392513613    -0.446607449711     0.144152203702    12.000000000000
         H           -2.751315486387     0.289576550289    -1.762429796298     1.007825032230
         H           -3.406845486387    -1.367519449711    -1.580447796298     1.007825032230
         H           -3.214485486387     1.070721550289     1.856156203702     1.007825032230
         H           -2.649261486387     1.761341550289     0.303398203702     1.007825032230
         H           -1.462994486387    -1.997498449711    -0.169683796298     1.007825032230
         H           -0.876433486387    -1.342030449711    -1.709951796298     1.007825032230
         H           -0.686833486387     1.103706550289     1.651322203702     1.007825032230
         H           -1.308197486387    -0.543424449711     1.842987203702     1.007825032230
         H           -4.415199486387     0.184983550289    -0.039330796298     1.007825032230
         H           -3.594126486387    -0.999395449711     0.758445203702     1.007825032230
         H            0.685775513613    -2.291234449711     0.409537203702     1.007825032230
         H            3.599615513613     1.659543550289    -0.288547796298     1.007825032230
         H            0.136018413613     2.213965150289    -1.324743196298     1.007825032230
         H            0.541619513613     2.783060550289     0.342539203702     1.007825032230
         H            1.735598513613     2.982182550289    -0.937774796298     1.007825032230
         H            3.140937513613    -2.533220449711     0.546890203702     1.007825032230
         H            4.603750513613    -0.546142449711     0.205540203702     1.007825032230

  Basis Set: AUG-CC-PVTZ
    Blend: AUG-CC-PVTZ
  Basis Set: (AUG-CC-PVTZ AUX)
    Blend: AUG-CC-PVTZ-JKFIT
	 Reference Energy          =    -535.3066701468310384 [Eh]
	 Singles Energy            =      -0.0000000000000000 [Eh]
	 Same-Spin Energy          =      -0.5853555732869087 [Eh]
	 Opposite-Spin Energy      =      -1.9175292784843647 [Eh]
	 Correlation Energy        =      -2.5028848517712734 [Eh]
	 Total Energy              =    -537.8095549986022661 [Eh]

	 ================> DF-SCS-MP2 Energies <==================
	-----------------------------------------------------------
	 SCS Same-Spin Scale       =       0.3333333333333333 [-]
	 SCS Opposite-Spin Scale   =       1.2000000000000000 [-]
	 SCS Same-Spin Energy      =      -0.1951185244289695 [Eh]
	 SCS Opposite-Spin Energy  =      -2.3010351341812374 [Eh]
	 SCS Correlation Energy    =      -2.4961536586102069 [Eh]
	 SCS Total Energy          =    -537.8028238054412213 [Eh]
	-----------------------------------------------------------

  Dipole Moment: [D]
     X:   -12.0857      Y:    -0.6953      Z:     0.7483     Total:    12.1288

*** Psi4 exiting successfully. Buy a developer a beer!
