                               Psi4 1.4a3.dev225

  ==> Input File <==

--------------------------------------------------------------------------
#psi4
#
memory 32 gb

molecule  {
1 1
  N       -3.4197460    -0.1817000     0.1602720
  N       -0.6214370    -0.0078370    -0.1287630
  C       -2.7377630    -0.6049400    -1.1216890
  C       -2.6265040     0.8533270     0.9259500
  C       -1.3397990    -1.0900720    -0.7822260
  C       -1.3189727     0.3496488     1.1422246
  C        0.8091060    -0.1845140    -0.0397240
  C        1.6179690     0.9496740    -0.2359790
  C        1.3698700    -1.4337860     0.2499420
  C        3.0044760     0.7849240    -0.1342920
  C        1.0196790     2.2951990    -0.5492200
  C        2.7558540    -1.5738690     0.3292430
  C        3.5736970    -0.4590730     0.1432710
  H       -2.7010110     0.2771110    -1.7633110
  H       -3.3565410    -1.3799850    -1.5813290
  H       -3.1641810     1.0582560     1.8552750
  H       -2.5989570     1.7488760     0.3025170
  H       -1.4126900    -2.0099640    -0.1705650
  H       -0.8261290    -1.3544960    -1.7108330
  H       -0.6365290     1.0912410     1.6504410
  H       -1.2578930    -0.5558900     1.8421060
  H       -4.3648950     0.1725180    -0.0402120
  H       -3.5438220    -1.0118610     0.7575640
  H        0.7360800    -2.3037000     0.4086560
  H        3.6499200     1.6470780    -0.2894290
  H        0.2227830     2.2055990    -1.2916560
  H        0.5919240     2.7705950     0.3416580
  H        1.7859030     2.9697170    -0.9386560
  H        3.1912420    -2.5456860     0.5460090
  H        4.6540550    -0.5586080     0.2046590
units angstrom
no_reorient  #important for SAPT in psi4, default
symmetry c1  #important for SAPT in psi4, default
}

set PROPERTIES_ORIGIN ["COM"]
properties('MP2/aug-cc-pvtz', properties = ['dipole'])
--------------------------------------------------------------------------

    Molecular point group: c1
  Charge       = 1
  Multiplicity = 1
  Basis Set: AUG-CC-PVTZ
    Blend: AUG-CC-PVTZ
  Basis Set: (AUG-CC-PVTZ AUX)
    Blend: AUG-CC-PVTZ-JKFIT

    Orbital Energies [Eh]
    ---------------------

    Doubly Occupied:

       1A    -15.867488     2A    -15.702493     3A    -11.456914
       4A    -11.456711     5A    -11.419127     6A    -11.415499
       7A    -11.375712     8A    -11.344358     9A    -11.340098
      10A    -11.331543    11A    -11.329719    12A    -11.328523
      13A    -11.323333    14A     -1.501146    15A     -1.382631
      16A     -1.250736    17A     -1.234715    18A     -1.160873
      19A     -1.143419    20A     -1.089262    21A     -1.047375
      22A     -1.031844    23A     -0.996008    24A     -0.935404
      25A     -0.925211    26A     -0.903431    27A     -0.867023
      28A     -0.827822    29A     -0.811309    30A     -0.790330
      31A     -0.788439    32A     -0.756040    33A     -0.749462
      34A     -0.744259    35A     -0.715415    36A     -0.700807
      37A     -0.686183    38A     -0.674598    39A     -0.668888
      40A     -0.657047    41A     -0.647769    42A     -0.639619
      43A     -0.598997    44A     -0.592924    45A     -0.587457
      46A     -0.518990    47A     -0.432926    48A     -0.422750

  @DF-RHF Final Energy:  -535.29671070504151

   => Energetics <=

    Nuclear Repulsion Energy =            820.3368850117318516
    One-Electron Energy =               -2338.9219313342009627
    Two-Electron Energy =                 983.2883356174277196
    Total Energy =                       -535.2967107050415052
  Basis Set: (AUG-CC-PVTZ AUX)
    Blend: AUG-CC-PVTZ-RI
    Molecular point group: c1

    Geometry (in Angstrom), charge = 1, multiplicity = 1:

       Center              X                  Y                   Z               Mass
    ------------   -----------------  -----------------  -----------------  -----------------
         N           -3.464010382568    -0.171664409552     0.161993326150    14.003074004430
         N           -0.665701382568     0.002198590448    -0.127041673850    14.003074004430
         C           -2.782027382568    -0.594904409552    -1.119967673850    12.000000000000
         C           -2.670768382568     0.863362590448     0.927671326150    12.000000000000
         C           -1.384063382568    -1.080036409552    -0.780504673850    12.000000000000
         C           -1.363237082568     0.359684390448     1.143945926150    12.000000000000
         C            0.764841617432    -0.174478409552    -0.038002673850    12.000000000000
         C            1.573704617432     0.959709590448    -0.234257673850    12.000000000000
         C            1.325605617432    -1.423750409552     0.251663326150    12.000000000000
         C            2.960211617432     0.794959590448    -0.132570673850    12.000000000000
         C            0.975414617432     2.305234590448    -0.547498673850    12.000000000000
         C            2.711589617432    -1.563833409552     0.330964326150    12.000000000000
         C            3.529432617432    -0.449037409552     0.144992326150    12.000000000000
         H           -2.745275382568     0.287146590448    -1.761589673850     1.007825032230
         H           -3.400805382568    -1.369949409552    -1.579607673850     1.007825032230
         H           -3.208445382568     1.068291590448     1.856996326150     1.007825032230
         H           -2.643221382568     1.758911590448     0.304238326150     1.007825032230
         H           -1.456954382568    -1.999928409552    -0.168843673850     1.007825032230
         H           -0.870393382568    -1.344460409552    -1.709111673850     1.007825032230
         H           -0.680793382568     1.101276590448     1.652162326150     1.007825032230
         H           -1.302157382568    -0.545854409552     1.843827326150     1.007825032230
         H           -4.409159382568     0.182553590448    -0.038490673850     1.007825032230
         H           -3.588086382568    -1.001825409552     0.759285326150     1.007825032230
         H            0.691815617432    -2.293664409552     0.410377326150     1.007825032230
         H            3.605655617432     1.657113590448    -0.287707673850     1.007825032230
         H            0.178518617432     2.215634590448    -1.289934673850     1.007825032230
         H            0.547659617432     2.780630590448     0.343379326150     1.007825032230
         H            1.741638617432     2.979752590448    -0.936934673850     1.007825032230
         H            3.146977617432    -2.535650409552     0.547730326150     1.007825032230
         H            4.609790617432    -0.548572409552     0.206380326150     1.007825032230

  Basis Set: AUG-CC-PVTZ
    Blend: AUG-CC-PVTZ
  Basis Set: (AUG-CC-PVTZ AUX)
    Blend: AUG-CC-PVTZ-JKFIT
	 Reference Energy          =    -535.2967107050415052 [Eh]
	 Singles Energy            =      -0.0000000000000000 [Eh]
	 Same-Spin Energy          =      -0.5864154303123622 [Eh]
	 Opposite-Spin Energy      =      -1.9184273450876321 [Eh]
	 Correlation Energy        =      -2.5048427753999944 [Eh]
	 Total Energy              =    -537.8015534804414983 [Eh]

	 ================> DF-SCS-MP2 Energies <==================
	-----------------------------------------------------------
	 SCS Same-Spin Scale       =       0.3333333333333333 [-]
	 SCS Opposite-Spin Scale   =       1.2000000000000000 [-]
	 SCS Same-Spin Energy      =      -0.1954718101041207 [Eh]
	 SCS Opposite-Spin Energy  =      -2.3021128141051586 [Eh]
	 SCS Correlation Energy    =      -2.4975846242092792 [Eh]
	 SCS Total Energy          =    -537.7942953292507582 [Eh]
	-----------------------------------------------------------

  Dipole Moment: [D]
     X:   -12.1320      Y:    -0.6115      Z:     0.7802     Total:    12.1725

*** Psi4 exiting successfully. Buy a developer a beer!
