                               Psi4 1.4a3.dev225

  ==> Input File <==

--------------------------------------------------------------------------
#psi4
#
memory 32 gb

molecule  {
1 1
  N       -3.4197460    -0.1817000     0.1602720
  N       -0.6214370    -0.0078370    -0.1287630
  C       -2.7377630    -0.6049400    -1.1216890
  C       -2.6265040     0.8533270     0.9259500
  C       -1.3397990    -1.0900720    -0.7822260
  C       -1.2267490     0.3141230     1.1574790
  C        0.8091060    -0.1845140    -0.0397240
  C        1.6179690     0.9496740    -0.2359790
  C        1.3698700    -1.4337860     0.2499420
  C        3.0044760     0.7849240    -0.1342920
  C        1.0196790     2.2951990    -0.5492200
  C        2.7558540    -1.5738690     0.3292430
  C        3.5736970    -0.4590730     0.1432710
  H       -2.7010110     0.2771110    -1.7633110
  H       -3.3565410    -1.3799850    -1.5813290
  H       -3.1887765     1.0676303     1.8977860
  H       -2.5989570     1.7488760     0.3025170
  H       -1.4126900    -2.0099640    -0.1705650
  H       -0.8261290    -1.3544960    -1.7108330
  H       -0.6365290     1.0912410     1.6504410
  H       -1.2578930    -0.5558900     1.8421060
  H       -4.3648950     0.1725180    -0.0402120
  H       -3.5438220    -1.0118610     0.7575640
  H        0.7360800    -2.3037000     0.4086560
  H        3.6499200     1.6470780    -0.2894290
  H        0.2227830     2.2055990    -1.2916560
  H        0.5919240     2.7705950     0.3416580
  H        1.7859030     2.9697170    -0.9386560
  H        3.1912420    -2.5456860     0.5460090
  H        4.6540550    -0.5586080     0.2046590
units angstrom
no_reorient  #important for SAPT in psi4, default
symmetry c1  #important for SAPT in psi4, default
}

set PROPERTIES_ORIGIN ["COM"]
properties('MP2/aug-cc-pvtz', properties = ['dipole'])
--------------------------------------------------------------------------

    Molecular point group: c1
  Charge       = 1
  Multiplicity = 1
  Basis Set: AUG-CC-PVTZ
    Blend: AUG-CC-PVTZ
  Basis Set: (AUG-CC-PVTZ AUX)
    Blend: AUG-CC-PVTZ-JKFIT

    Orbital Energies [Eh]
    ---------------------

    Doubly Occupied:

       1A    -15.866867     2A    -15.703290     3A    -11.461983
       4A    -11.456941     5A    -11.417664     6A    -11.417486
       7A    -11.375301     8A    -11.344484     9A    -11.340292
      10A    -11.331885    11A    -11.329962    12A    -11.328695
      13A    -11.323646    14A     -1.497456    15A     -1.390442
      16A     -1.250012    17A     -1.220320    18A     -1.155217
      19A     -1.142616    20A     -1.087513    21A     -1.052090
      22A     -1.031934    23A     -0.996084    24A     -0.935534
      25A     -0.923361    26A     -0.903007    27A     -0.865071
      28A     -0.823825    29A     -0.810139    30A     -0.791752
      31A     -0.788051    32A     -0.755100    33A     -0.742835
      34A     -0.732709    35A     -0.714714    36A     -0.703780
      37A     -0.687263    38A     -0.675249    39A     -0.669505
      40A     -0.659363    41A     -0.655214    42A     -0.640503
      43A     -0.600030    44A     -0.591733    45A     -0.588131
      46A     -0.521816    47A     -0.433642    48A     -0.423577

  @DF-RHF Final Energy:  -535.30655487454919

   => Energetics <=

    Nuclear Repulsion Energy =            820.0212192649007648
    One-Electron Energy =               -2338.3393708543326284
    Two-Electron Energy =                 983.0115967148826712
    Total Energy =                       -535.3065548745491924
  Basis Set: (AUG-CC-PVTZ AUX)
    Blend: AUG-CC-PVTZ-RI
    Molecular point group: c1

    Geometry (in Angstrom), charge = 1, multiplicity = 1:

       Center              X                  Y                   Z               Mass
    ------------   -----------------  -----------------  -----------------  -----------------
         N           -3.470117989473    -0.169311107696     0.160718077737    14.003074004430
         N           -0.671808989473     0.004551892304    -0.128316922263    14.003074004430
         C           -2.788134989473    -0.592551107696    -1.121242922263    12.000000000000
         C           -2.676875989473     0.865715892304     0.926396077737    12.000000000000
         C           -1.390170989473    -1.077683107696    -0.781779922263    12.000000000000
         C           -1.277120989473     0.326511892304     1.157925077737    12.000000000000
         C            0.758734010527    -0.172125107696    -0.039277922263    12.000000000000
         C            1.567597010527     0.962062892304    -0.235532922263    12.000000000000
         C            1.319498010527    -1.421397107696     0.250388077737    12.000000000000
         C            2.954104010527     0.797312892304    -0.133845922263    12.000000000000
         C            0.969307010527     2.307587892304    -0.548773922263    12.000000000000
         C            2.705482010527    -1.561480107696     0.329689077737    12.000000000000
         C            3.523325010527    -0.446684107696     0.143717077737    12.000000000000
         H           -2.751382989473     0.289499892304    -1.762864922263     1.007825032230
         H           -3.406912989473    -1.367596107696    -1.580882922263     1.007825032230
         H           -3.239148489473     1.080019192304     1.898232077737     1.007825032230
         H           -2.649328989473     1.761264892304     0.302963077737     1.007825032230
         H           -1.463061989473    -1.997575107696    -0.170118922263     1.007825032230
         H           -0.876500989473    -1.342107107696    -1.710386922263     1.007825032230
         H           -0.686900989473     1.103629892304     1.650887077737     1.007825032230
         H           -1.308264989473    -0.543501107696     1.842552077737     1.007825032230
         H           -4.415266989473     0.184906892304    -0.039765922263     1.007825032230
         H           -3.594193989473    -0.999472107696     0.758010077737     1.007825032230
         H            0.685708010527    -2.291311107696     0.409102077737     1.007825032230
         H            3.599548010527     1.659466892304    -0.288982922263     1.007825032230
         H            0.172411010527     2.217987892304    -1.291209922263     1.007825032230
         H            0.541552010527     2.782983892304     0.342104077737     1.007825032230
         H            1.735531010527     2.982105892304    -0.938209922263     1.007825032230
         H            3.140870010527    -2.533297107696     0.546455077737     1.007825032230
         H            4.603683010527    -0.546219107696     0.205105077737     1.007825032230

  Basis Set: AUG-CC-PVTZ
    Blend: AUG-CC-PVTZ
  Basis Set: (AUG-CC-PVTZ AUX)
    Blend: AUG-CC-PVTZ-JKFIT
	 Reference Energy          =    -535.3065548745491924 [Eh]
	 Singles Energy            =      -0.0000000000000000 [Eh]
	 Same-Spin Energy          =      -0.5853805338058561 [Eh]
	 Opposite-Spin Energy      =      -1.9175866209073065 [Eh]
	 Correlation Energy        =      -2.5029671547131627 [Eh]
	 Total Energy              =    -537.8095220292623253 [Eh]

	 ================> DF-SCS-MP2 Energies <==================
	-----------------------------------------------------------
	 SCS Same-Spin Scale       =       0.3333333333333333 [-]
	 SCS Opposite-Spin Scale   =       1.2000000000000000 [-]
	 SCS Same-Spin Energy      =      -0.1951268446019520 [Eh]
	 SCS Opposite-Spin Energy  =      -2.3011039450887676 [Eh]
	 SCS Correlation Energy    =      -2.4962307896907197 [Eh]
	 SCS Total Energy          =    -537.8027856642398774 [Eh]
	-----------------------------------------------------------

  Dipole Moment: [D]
     X:   -12.0978      Y:    -0.6883      Z:     0.7311     Total:    12.1394

*** Psi4 exiting successfully. Buy a developer a beer!
