                               Psi4 1.4a3.dev225

  ==> Input File <==

--------------------------------------------------------------------------
#psi4
#
memory 32 gb

molecule  {
1 1
  N       -3.4197460    -0.1817000     0.1602720
  N       -0.6214370    -0.0078370    -0.1287630
  C       -2.7377630    -0.6049400    -1.1216890
  C       -2.6265040     0.8533270     0.9259500
  C       -1.3397990    -1.0900720    -0.7822260
  C       -1.2267490     0.3141230     1.1574790
  C        0.8091060    -0.1845140    -0.0397240
  C        1.6179690     0.9496740    -0.2359790
  C        1.3698700    -1.4337860     0.2499420
  C        3.0044760     0.7849240    -0.1342920
  C        1.0196790     2.2951990    -0.5492200
  C        2.7558540    -1.5738690     0.3292430
  C        3.5736970    -0.4590730     0.1432710
  H       -2.7010110     0.2771110    -1.7633110
  H       -3.3565410    -1.3799850    -1.5813290
  H       -3.1641810     1.0582560     1.8552750
  H       -2.5989570     1.7488760     0.3025170
  H       -1.4126900    -2.0099640    -0.1705650
  H       -0.8261290    -1.3544960    -1.7108330
  H       -0.6365290     1.0912410     1.6504410
  H       -1.2578930    -0.5558900     1.8421060
  H       -4.3648950     0.1725180    -0.0402120
  H       -3.5438220    -1.0118610     0.7575640
  H        0.7360800    -2.3037000     0.4086560
  H        3.6499200     1.6470780    -0.2894290
  H        0.2227830     2.2055990    -1.2916560
  H        0.6398927     2.8291279     0.3301671
  H        1.7859030     2.9697170    -0.9386560
  H        3.1912420    -2.5456860     0.5460090
  H        4.6540550    -0.5586080     0.2046590
units angstrom
no_reorient  #important for SAPT in psi4, default
symmetry c1  #important for SAPT in psi4, default
}

set PROPERTIES_ORIGIN ["COM"]
properties('MP2/aug-cc-pvtz', properties = ['dipole'])
--------------------------------------------------------------------------

    Molecular point group: c1
  Charge       = 1
  Multiplicity = 1
  Basis Set: AUG-CC-PVTZ
    Blend: AUG-CC-PVTZ
  Basis Set: (AUG-CC-PVTZ AUX)
    Blend: AUG-CC-PVTZ-JKFIT

    Orbital Energies [Eh]
    ---------------------

    Doubly Occupied:

       1A    -15.866489     2A    -15.702954     3A    -11.456723
       4A    -11.456559     5A    -11.417461     6A    -11.416984
       7A    -11.375382     8A    -11.344674     9A    -11.340198
      10A    -11.332050    11A    -11.330078    12A    -11.328726
      13A    -11.323103    14A     -1.497396    15A     -1.390140
      16A     -1.249960    17A     -1.221688    18A     -1.155501
      19A     -1.142485    20A     -1.088073    21A     -1.053328
      22A     -1.032069    23A     -0.995972    24A     -0.935453
      25A     -0.924174    26A     -0.903777    27A     -0.867382
      28A     -0.823564    29A     -0.810144    30A     -0.793449
      31A     -0.788328    32A     -0.755466    33A     -0.744547
      34A     -0.734453    35A     -0.714575    36A     -0.704426
      37A     -0.687745    38A     -0.675297    39A     -0.669627
      40A     -0.659606    41A     -0.655574    42A     -0.638129
      43A     -0.600755    44A     -0.591600    45A     -0.587508
      46A     -0.521556    47A     -0.433593    48A     -0.423778

  @DF-RHF Final Energy:  -535.30833248732779

   => Energetics <=

    Nuclear Repulsion Energy =            820.1297818077049442
    One-Electron Energy =               -2338.5512257399104783
    Two-Electron Energy =                 983.1131114448776316
    Total Energy =                       -535.3083324873277888
  Basis Set: (AUG-CC-PVTZ AUX)
    Blend: AUG-CC-PVTZ-RI
    Molecular point group: c1

    Geometry (in Angstrom), charge = 1, multiplicity = 1:

       Center              X                  Y                   Z               Mass
    ------------   -----------------  -----------------  -----------------  -----------------
         N           -3.470530840090    -0.169590793249     0.161025319018    14.003074004430
         N           -0.672221840090     0.004272206751    -0.128009680982    14.003074004430
         C           -2.788547840090    -0.592830793249    -1.120935680982    12.000000000000
         C           -2.677288840090     0.865436206751     0.926703319018    12.000000000000
         C           -1.390583840090    -1.077962793249    -0.781472680982    12.000000000000
         C           -1.277533840090     0.326232206751     1.158232319018    12.000000000000
         C            0.758321159910    -0.172404793249    -0.038970680982    12.000000000000
         C            1.567184159910     0.961783206751    -0.235225680982    12.000000000000
         C            1.319085159910    -1.421676793249     0.250695319018    12.000000000000
         C            2.953691159910     0.797033206751    -0.133538680982    12.000000000000
         C            0.968894159910     2.307308206751    -0.548466680982    12.000000000000
         C            2.705069159910    -1.561759793249     0.329996319018    12.000000000000
         C            3.522912159910    -0.446963793249     0.144024319018    12.000000000000
         H           -2.751795840090     0.289220206751    -1.762557680982     1.007825032230
         H           -3.407325840090    -1.367875793249    -1.580575680982     1.007825032230
         H           -3.214965840090     1.070365206751     1.856028319018     1.007825032230
         H           -2.649741840090     1.760985206751     0.303270319018     1.007825032230
         H           -1.463474840090    -1.997854793249    -0.169811680982     1.007825032230
         H           -0.876913840090    -1.342386793249    -1.710079680982     1.007825032230
         H           -0.687313840090     1.103350206751     1.651194319018     1.007825032230
         H           -1.308677840090    -0.543780793249     1.842859319018     1.007825032230
         H           -4.415679840090     0.184627206751    -0.039458680982     1.007825032230
         H           -3.594606840090    -0.999751793249     0.758317319018     1.007825032230
         H            0.685295159910    -2.291590793249     0.409409319018     1.007825032230
         H            3.599135159910     1.659187206751    -0.288675680982     1.007825032230
         H            0.171998159910     2.217708206751    -1.290902680982     1.007825032230
         H            0.589107859910     2.841237106751     0.330920419018     1.007825032230
         H            1.735118159910     2.981826206751    -0.937902680982     1.007825032230
         H            3.140457159910    -2.533576793249     0.546762319018     1.007825032230
         H            4.603270159910    -0.546498793249     0.205412319018     1.007825032230

  Basis Set: AUG-CC-PVTZ
    Blend: AUG-CC-PVTZ
  Basis Set: (AUG-CC-PVTZ AUX)
    Blend: AUG-CC-PVTZ-JKFIT
	 Reference Energy          =    -535.3083324873277888 [Eh]
	 Singles Energy            =      -0.0000000000000000 [Eh]
	 Same-Spin Energy          =      -0.5852936389816454 [Eh]
	 Opposite-Spin Energy      =      -1.9171082633276504 [Eh]
	 Correlation Energy        =      -2.5024019023092956 [Eh]
	 Total Energy              =    -537.8107343896371049 [Eh]

	 ================> DF-SCS-MP2 Energies <==================
	-----------------------------------------------------------
	 SCS Same-Spin Scale       =       0.3333333333333333 [-]
	 SCS Opposite-Spin Scale   =       1.2000000000000000 [-]
	 SCS Same-Spin Energy      =      -0.1950978796605485 [Eh]
	 SCS Opposite-Spin Energy  =      -2.3005299159931805 [Eh]
	 SCS Correlation Energy    =      -2.4956277956537289 [Eh]
	 SCS Total Energy          =    -537.8039602829815067 [Eh]
	-----------------------------------------------------------

  Dipole Moment: [D]
     X:   -12.0831      Y:    -0.6683      Z:     0.7436     Total:    12.1243

*** Psi4 exiting successfully. Buy a developer a beer!
