                               Psi4 1.4a3.dev225

  ==> Input File <==

--------------------------------------------------------------------------
#psi4
#
memory 32 gb

molecule  {
1 1
  N       -3.4197460    -0.1817000     0.1602720
  N       -0.6245450    -0.0323869    -0.1239741
  C       -2.7377630    -0.6049400    -1.1216890
  C       -2.6265040     0.8533270     0.9259500
  C       -1.3397990    -1.0900720    -0.7822260
  C       -1.2267490     0.3141230     1.1574790
  C        0.8091060    -0.1845140    -0.0397240
  C        1.6179690     0.9496740    -0.2359790
  C        1.3698700    -1.4337860     0.2499420
  C        3.0044760     0.7849240    -0.1342920
  C        1.0196790     2.2951990    -0.5492200
  C        2.7558540    -1.5738690     0.3292430
  C        3.5736970    -0.4590730     0.1432710
  H       -2.7010110     0.2771110    -1.7633110
  H       -3.3565410    -1.3799850    -1.5813290
  H       -3.1641810     1.0582560     1.8552750
  H       -2.5989570     1.7488760     0.3025170
  H       -1.4126900    -2.0099640    -0.1705650
  H       -0.8261290    -1.3544960    -1.7108330
  H       -0.6365290     1.0912410     1.6504410
  H       -1.2578930    -0.5558900     1.8421060
  H       -4.3648950     0.1725180    -0.0402120
  H       -3.5438220    -1.0118610     0.7575640
  H        0.7360800    -2.3037000     0.4086560
  H        3.6499200     1.6470780    -0.2894290
  H        0.2227830     2.2055990    -1.2916560
  H        0.5919240     2.7705950     0.3416580
  H        1.7859030     2.9697170    -0.9386560
  H        3.1912420    -2.5456860     0.5460090
  H        4.6540550    -0.5586080     0.2046590
units angstrom
no_reorient  #important for SAPT in psi4, default
symmetry c1  #important for SAPT in psi4, default
}

set PROPERTIES_ORIGIN ["COM"]
properties('MP2/aug-cc-pvtz', properties = ['dipole'])
--------------------------------------------------------------------------

    Molecular point group: c1
  Charge       = 1
  Multiplicity = 1
  Basis Set: AUG-CC-PVTZ
    Blend: AUG-CC-PVTZ
  Basis Set: (AUG-CC-PVTZ AUX)
    Blend: AUG-CC-PVTZ-JKFIT

    Orbital Energies [Eh]
    ---------------------

    Doubly Occupied:

       1A    -15.866639     2A    -15.701006     3A    -11.456951
       4A    -11.456650     5A    -11.417616     6A    -11.416640
       7A    -11.375561     8A    -11.344953     9A    -11.339756
      10A    -11.331683    11A    -11.330108    12A    -11.328749
      13A    -11.324101    14A     -1.497706    15A     -1.392465
      16A     -1.250320    17A     -1.222247    18A     -1.155299
      19A     -1.143117    20A     -1.088490    21A     -1.054970
      22A     -1.032458    23A     -0.995451    24A     -0.935275
      25A     -0.924453    26A     -0.904177    27A     -0.867068
      28A     -0.823553    29A     -0.810449    30A     -0.795364
      31A     -0.789975    32A     -0.755569    33A     -0.744674
      34A     -0.734636    35A     -0.714975    36A     -0.704568
      37A     -0.687398    38A     -0.676019    39A     -0.669691
      40A     -0.662475    41A     -0.655592    42A     -0.640691
      43A     -0.599714    44A     -0.592438    45A     -0.588373
      46A     -0.518593    47A     -0.433446    48A     -0.423551

  @DF-RHF Final Energy:  -535.30917385651742

   => Energetics <=

    Nuclear Repulsion Energy =            820.4527252220132141
    One-Electron Energy =               -2339.1724882402877483
    Two-Electron Energy =                 983.4105891617571160
    Total Energy =                       -535.3091738565174182
  Basis Set: (AUG-CC-PVTZ AUX)
    Blend: AUG-CC-PVTZ-RI
    Molecular point group: c1

    Geometry (in Angstrom), charge = 1, multiplicity = 1:

       Center              X                  Y                   Z               Mass
    ------------   -----------------  -----------------  -----------------  -----------------
         N           -3.470012233117    -0.167317072647     0.160581373525    14.003074004430
         N           -0.674811233117    -0.018003972647    -0.123664726475    14.003074004430
         C           -2.788029233117    -0.590557072647    -1.121379626475    12.000000000000
         C           -2.676770233117     0.867709927353     0.926259373525    12.000000000000
         C           -1.390065233117    -1.075689072647    -0.781916626475    12.000000000000
         C           -1.277015233117     0.328505927353     1.157788373525    12.000000000000
         C            0.758839766883    -0.170131072647    -0.039414626475    12.000000000000
         C            1.567702766883     0.964056927353    -0.235669626475    12.000000000000
         C            1.319603766883    -1.419403072647     0.250251373525    12.000000000000
         C            2.954209766883     0.799306927353    -0.133982626475    12.000000000000
         C            0.969412766883     2.309581927353    -0.548910626475    12.000000000000
         C            2.705587766883    -1.559486072647     0.329552373525    12.000000000000
         C            3.523430766883    -0.444690072647     0.143580373525    12.000000000000
         H           -2.751277233117     0.291493927353    -1.763001626475     1.007825032230
         H           -3.406807233117    -1.365602072647    -1.581019626475     1.007825032230
         H           -3.214447233117     1.072638927353     1.855584373525     1.007825032230
         H           -2.649223233117     1.763258927353     0.302826373525     1.007825032230
         H           -1.462956233117    -1.995581072647    -0.170255626475     1.007825032230
         H           -0.876395233117    -1.340113072647    -1.710523626475     1.007825032230
         H           -0.686795233117     1.105623927353     1.650750373525     1.007825032230
         H           -1.308159233117    -0.541507072647     1.842415373525     1.007825032230
         H           -4.415161233117     0.186900927353    -0.039902626475     1.007825032230
         H           -3.594088233117    -0.997478072647     0.757873373525     1.007825032230
         H            0.685813766883    -2.289317072647     0.408965373525     1.007825032230
         H            3.599653766883     1.661460927353    -0.289119626475     1.007825032230
         H            0.172516766883     2.219981927353    -1.291346626475     1.007825032230
         H            0.541657766883     2.784977927353     0.341967373525     1.007825032230
         H            1.735636766883     2.984099927353    -0.938346626475     1.007825032230
         H            3.140975766883    -2.531303072647     0.546318373525     1.007825032230
         H            4.603788766883    -0.544225072647     0.204968373525     1.007825032230

  Basis Set: AUG-CC-PVTZ
    Blend: AUG-CC-PVTZ
  Basis Set: (AUG-CC-PVTZ AUX)
    Blend: AUG-CC-PVTZ-JKFIT
	 Reference Energy          =    -535.3091738565174182 [Eh]
	 Singles Energy            =      -0.0000000000000000 [Eh]
	 Same-Spin Energy          =      -0.5852466199692059 [Eh]
	 Opposite-Spin Energy      =      -1.9167896933970399 [Eh]
	 Correlation Energy        =      -2.5020363133662458 [Eh]
	 Total Energy              =    -537.8112101698836796 [Eh]

	 ================> DF-SCS-MP2 Energies <==================
	-----------------------------------------------------------
	 SCS Same-Spin Scale       =       0.3333333333333333 [-]
	 SCS Opposite-Spin Scale   =       1.2000000000000000 [-]
	 SCS Same-Spin Energy      =      -0.1950822066564020 [Eh]
	 SCS Opposite-Spin Energy  =      -2.3001476320764476 [Eh]
	 SCS Correlation Energy    =      -2.4952298387328495 [Eh]
	 SCS Total Energy          =    -537.8044036952502438 [Eh]
	-----------------------------------------------------------

  Dipole Moment: [D]
     X:   -12.0842      Y:    -0.6163      Z:     0.7197     Total:    12.1213

*** Psi4 exiting successfully. Buy a developer a beer!
