                               Psi4 1.4a3.dev225

  ==> Input File <==

--------------------------------------------------------------------------
#psi4
#
memory 32 gb

molecule  {
1 1
  N       -3.4197460    -0.1817000     0.1602720
  N       -0.6214370    -0.0078370    -0.1287630
  C       -2.7377630    -0.6049400    -1.1216890
  C       -2.6265040     0.8533270     0.9259500
  C       -1.3397990    -1.0900720    -0.7822260
  C       -1.2267490     0.3141230     1.1574790
  C        0.8091060    -0.1845140    -0.0397240
  C        1.6179690     0.9496740    -0.2359790
  C        1.3698700    -1.4337860     0.2499420
  C        3.0044760     0.7849240    -0.1342920
  C        1.0196790     2.2951990    -0.5492200
  C        2.8365980    -1.6266107     0.3426789
  C        3.5736970    -0.4590730     0.1432710
  H       -2.7010110     0.2771110    -1.7633110
  H       -3.3565410    -1.3799850    -1.5813290
  H       -3.1641810     1.0582560     1.8552750
  H       -2.5989570     1.7488760     0.3025170
  H       -1.4126900    -2.0099640    -0.1705650
  H       -0.8261290    -1.3544960    -1.7108330
  H       -0.6365290     1.0912410     1.6504410
  H       -1.2578930    -0.5558900     1.8421060
  H       -4.3648950     0.1725180    -0.0402120
  H       -3.5438220    -1.0118610     0.7575640
  H        0.7360800    -2.3037000     0.4086560
  H        3.6499200     1.6470780    -0.2894290
  H        0.2227830     2.2055990    -1.2916560
  H        0.5919240     2.7705950     0.3416580
  H        1.7859030     2.9697170    -0.9386560
  H        3.1912420    -2.5456860     0.5460090
  H        4.6540550    -0.5586080     0.2046590
units angstrom
no_reorient  #important for SAPT in psi4, default
symmetry c1  #important for SAPT in psi4, default
}

set PROPERTIES_ORIGIN ["COM"]
properties('MP2/aug-cc-pvtz', properties = ['dipole'])
--------------------------------------------------------------------------

    Molecular point group: c1
  Charge       = 1
  Multiplicity = 1
  Basis Set: AUG-CC-PVTZ
    Blend: AUG-CC-PVTZ
  Basis Set: (AUG-CC-PVTZ AUX)
    Blend: AUG-CC-PVTZ-JKFIT

    Orbital Energies [Eh]
    ---------------------

    Doubly Occupied:

       1A    -15.866613     2A    -15.703530     3A    -11.456829
       4A    -11.456701     5A    -11.417363     6A    -11.417332
       7A    -11.375992     8A    -11.348893     9A    -11.346020
      10A    -11.334794    11A    -11.330814    12A    -11.329567
      13A    -11.324161    14A     -1.497530    15A     -1.390311
      16A     -1.244194    17A     -1.221829    18A     -1.154838
      19A     -1.138570    20A     -1.084829    21A     -1.053462
      22A     -1.034242    23A     -0.996507    24A     -0.935448
      25A     -0.923156    26A     -0.906900    27A     -0.867978
      28A     -0.823718    29A     -0.814606    30A     -0.793439
      31A     -0.788636    32A     -0.750837    33A     -0.742138
      34A     -0.734308    35A     -0.722297    36A     -0.709722
      37A     -0.687866    38A     -0.677982    39A     -0.669025
      40A     -0.660313    41A     -0.654384    42A     -0.637534
      43A     -0.609025    44A     -0.583259    45A     -0.580404
      46A     -0.522805    47A     -0.432756    48A     -0.419904

  @DF-RHF Final Energy:  -535.29571275106014

   => Energetics <=

    Nuclear Repulsion Energy =            818.3791419670282039
    One-Electron Energy =               -2335.0029837031115676
    Two-Electron Energy =                 981.3281289850231133
    Total Energy =                       -535.2957127510601367
  Basis Set: (AUG-CC-PVTZ AUX)
    Blend: AUG-CC-PVTZ-RI
    Molecular point group: c1

    Geometry (in Angstrom), charge = 1, multiplicity = 1:

       Center              X                  Y                   Z               Mass
    ------------   -----------------  -----------------  -----------------  -----------------
         N           -3.475727793000    -0.165684873920     0.160049749283    14.003074004430
         N           -0.677418793000     0.008178126080    -0.128985250717    14.003074004430
         C           -2.793744793000    -0.588924873920    -1.121911250717    12.000000000000
         C           -2.682485793000     0.869342126080     0.925727749283    12.000000000000
         C           -1.395780793000    -1.074056873920    -0.782448250717    12.000000000000
         C           -1.282730793000     0.330138126080     1.157256749283    12.000000000000
         C            0.753124207000    -0.168498873920    -0.039946250717    12.000000000000
         C            1.561987207000     0.965689126080    -0.236201250717    12.000000000000
         C            1.313888207000    -1.417770873920     0.249719749283    12.000000000000
         C            2.948494207000     0.800939126080    -0.134514250717    12.000000000000
         C            0.963697207000     2.311214126080    -0.549442250717    12.000000000000
         C            2.780616207000    -1.610595573920     0.342456649283    12.000000000000
         C            3.517715207000    -0.443057873920     0.143048749283    12.000000000000
         H           -2.756992793000     0.293126126080    -1.763533250717     1.007825032230
         H           -3.412522793000    -1.363969873920    -1.581551250717     1.007825032230
         H           -3.220162793000     1.074271126080     1.855052749283     1.007825032230
         H           -2.654938793000     1.764891126080     0.302294749283     1.007825032230
         H           -1.468671793000    -1.993948873920    -0.170787250717     1.007825032230
         H           -0.882110793000    -1.338480873920    -1.711055250717     1.007825032230
         H           -0.692510793000     1.107256126080     1.650218749283     1.007825032230
         H           -1.313874793000    -0.539874873920     1.841883749283     1.007825032230
         H           -4.420876793000     0.188533126080    -0.040434250717     1.007825032230
         H           -3.599803793000    -0.995845873920     0.757341749283     1.007825032230
         H            0.680098207000    -2.287684873920     0.408433749283     1.007825032230
         H            3.593938207000     1.663093126080    -0.289651250717     1.007825032230
         H            0.166801207000     2.221614126080    -1.291878250717     1.007825032230
         H            0.535942207000     2.786610126080     0.341435749283     1.007825032230
         H            1.729921207000     2.985732126080    -0.938878250717     1.007825032230
         H            3.135260207000    -2.529670873920     0.545786749283     1.007825032230
         H            4.598073207000    -0.542592873920     0.204436749283     1.007825032230

  Basis Set: AUG-CC-PVTZ
    Blend: AUG-CC-PVTZ
  Basis Set: (AUG-CC-PVTZ AUX)
    Blend: AUG-CC-PVTZ-JKFIT
	 Reference Energy          =    -535.2957127510601367 [Eh]
	 Singles Energy            =      -0.0000000000000000 [Eh]
	 Same-Spin Energy          =      -0.5852698375864632 [Eh]
	 Opposite-Spin Energy      =      -1.9182295980952717 [Eh]
	 Correlation Energy        =      -2.5034994356817348 [Eh]
	 Total Energy              =    -537.7992121867418973 [Eh]

	 ================> DF-SCS-MP2 Energies <==================
	-----------------------------------------------------------
	 SCS Same-Spin Scale       =       0.3333333333333333 [-]
	 SCS Opposite-Spin Scale   =       1.2000000000000000 [-]
	 SCS Same-Spin Energy      =      -0.1950899458621544 [Eh]
	 SCS Opposite-Spin Energy  =      -2.3018755177143260 [Eh]
	 SCS Correlation Energy    =      -2.4969654635764802 [Eh]
	 SCS Total Energy          =    -537.7926782146365667 [Eh]
	-----------------------------------------------------------

  Dipole Moment: [D]
     X:   -12.1381      Y:    -0.6834      Z:     0.7332     Total:    12.1794

*** Psi4 exiting successfully. Buy a developer a beer!
