                               Psi4 1.4a3.dev225

  ==> Input File <==

--------------------------------------------------------------------------
#psi4
#
memory 32 gb

molecule  {
1 1
  N       -3.4197460    -0.1817000     0.1602720
  N       -0.6214370    -0.0078370    -0.1287630
  C       -2.7377630    -0.6049400    -1.1216890
  C       -2.6265040     0.8533270     0.9259500
  C       -1.3397990    -1.0900720    -0.7822260
  C       -1.2267490     0.3141230     1.1574790
  C        0.8091060    -0.1845140    -0.0397240
  C        1.6179690     0.9496740    -0.2359790
  C        1.3698700    -1.4337860     0.2499420
  C        3.0044760     0.7849240    -0.1342920
  C        1.0196790     2.2951990    -0.5492200
  C        2.7558540    -1.5738690     0.3292430
  C        3.5736970    -0.4590730     0.1432710
  H       -2.7010110     0.2771110    -1.7633110
  H       -3.3565410    -1.3799850    -1.5813290
  H       -3.1641810     1.0582560     1.8552750
  H       -2.5989570     1.7488760     0.3025170
  H       -1.4126900    -2.0099640    -0.1705650
  H       -0.8261290    -1.3544960    -1.7108330
  H       -0.6365290     1.0912410     1.6504410
  H       -1.2578930    -0.5558900     1.8421060
  H       -4.3648950     0.1725180    -0.0402120
  H       -3.5438220    -1.0118610     0.7575640
  H        0.7360800    -2.3037000     0.4086560
  H        3.6499200     1.6470780    -0.2894290
  H        0.2957032     2.2137979    -1.2237191
  H        0.5919240     2.7705950     0.3416580
  H        1.7859030     2.9697170    -0.9386560
  H        3.1912420    -2.5456860     0.5460090
  H        4.6540550    -0.5586080     0.2046590
units angstrom
no_reorient  #important for SAPT in psi4, default
symmetry c1  #important for SAPT in psi4, default
}

set PROPERTIES_ORIGIN ["COM"]
properties('MP2/aug-cc-pvtz', properties = ['dipole'])
--------------------------------------------------------------------------

    Molecular point group: c1
  Charge       = 1
  Multiplicity = 1
  Basis Set: AUG-CC-PVTZ
    Blend: AUG-CC-PVTZ
  Basis Set: (AUG-CC-PVTZ AUX)
    Blend: AUG-CC-PVTZ-JKFIT

    Orbital Energies [Eh]
    ---------------------

    Doubly Occupied:

       1A    -15.866756     2A    -15.703348     3A    -11.456940
       4A    -11.456923     5A    -11.417667     6A    -11.417338
       7A    -11.374930     8A    -11.343646     9A    -11.339975
      10A    -11.331498    11A    -11.329383    12A    -11.328183
      13A    -11.311378    14A     -1.497669    15A     -1.390413
      16A     -1.249845    17A     -1.221996    18A     -1.156301
      19A     -1.144417    20A     -1.088489    21A     -1.053620
      22A     -1.039051    23A     -0.996488    24A     -0.935449
      25A     -0.924250    26A     -0.905030    27A     -0.867760
      28A     -0.823885    29A     -0.810856    30A     -0.793582
      31A     -0.788640    32A     -0.755037    33A     -0.746104
      34A     -0.735255    35A     -0.714459    36A     -0.706518
      37A     -0.687923    38A     -0.682364    39A     -0.670432
      40A     -0.660070    41A     -0.657535    42A     -0.643864
      43A     -0.599427    44A     -0.593022    45A     -0.588430
      46A     -0.522255    47A     -0.433348    48A     -0.423376

  @DF-RHF Final Energy:  -535.30297254253480

   => Energetics <=

    Nuclear Repulsion Energy =            820.7029385857696298
    One-Electron Energy =               -2339.6415726857753725
    Two-Electron Energy =                 983.6356615574710531
    Total Energy =                       -535.3029725425348033
  Basis Set: (AUG-CC-PVTZ AUX)
    Blend: AUG-CC-PVTZ-RI
    Molecular point group: c1

    Geometry (in Angstrom), charge = 1, multiplicity = 1:

       Center              X                  Y                   Z               Mass
    ------------   -----------------  -----------------  -----------------  -----------------
         N           -3.470672800481    -0.169304420313     0.160573418270    14.003074004430
         N           -0.672363800481     0.004558579687    -0.128461581730    14.003074004430
         C           -2.788689800481    -0.592544420313    -1.121387581730    12.000000000000
         C           -2.677430800481     0.865722579687     0.926251418270    12.000000000000
         C           -1.390725800481    -1.077676420313    -0.781924581730    12.000000000000
         C           -1.277675800481     0.326518579687     1.157780418270    12.000000000000
         C            0.758179199519    -0.172118420313    -0.039422581730    12.000000000000
         C            1.567042199519     0.962069579687    -0.235677581730    12.000000000000
         C            1.318943199519    -1.421390420313     0.250243418270    12.000000000000
         C            2.953549199519     0.797319579687    -0.133990581730    12.000000000000
         C            0.968752199519     2.307594579687    -0.548918581730    12.000000000000
         C            2.704927199519    -1.561473420313     0.329544418270    12.000000000000
         C            3.522770199519    -0.446677420313     0.143572418270    12.000000000000
         H           -2.751937800481     0.289506579687    -1.763009581730     1.007825032230
         H           -3.407467800481    -1.367589420313    -1.581027581730     1.007825032230
         H           -3.215107800481     1.070651579687     1.855576418270     1.007825032230
         H           -2.649883800481     1.761271579687     0.302818418270     1.007825032230
         H           -1.463616800481    -1.997568420313    -0.170263581730     1.007825032230
         H           -0.877055800481    -1.342100420313    -1.710531581730     1.007825032230
         H           -0.687455800481     1.103636579687     1.650742418270     1.007825032230
         H           -1.308819800481    -0.543494420313     1.842407418270     1.007825032230
         H           -4.415821800481     0.184913579687    -0.039910581730     1.007825032230
         H           -3.594748800481    -0.999465420313     0.757865418270     1.007825032230
         H            0.685153199519    -2.291304420313     0.408957418270     1.007825032230
         H            3.598993199519     1.659473579687    -0.289127581730     1.007825032230
         H            0.244776399519     2.226193479687    -1.223417681730     1.007825032230
         H            0.540997199519     2.782990579687     0.341959418270     1.007825032230
         H            1.734976199519     2.982112579687    -0.938354581730     1.007825032230
         H            3.140315199519    -2.533290420313     0.546310418270     1.007825032230
         H            4.603128199519    -0.546212420313     0.204960418270     1.007825032230

  Basis Set: AUG-CC-PVTZ
    Blend: AUG-CC-PVTZ
  Basis Set: (AUG-CC-PVTZ AUX)
    Blend: AUG-CC-PVTZ-JKFIT
	 Reference Energy          =    -535.3029725425348033 [Eh]
	 Singles Energy            =      -0.0000000000000000 [Eh]
	 Same-Spin Energy          =      -0.5852041148940904 [Eh]
	 Opposite-Spin Energy      =      -1.9165849920230624 [Eh]
	 Correlation Energy        =      -2.5017891069171529 [Eh]
	 Total Energy              =    -537.8047616494519616 [Eh]

	 ================> DF-SCS-MP2 Energies <==================
	-----------------------------------------------------------
	 SCS Same-Spin Scale       =       0.3333333333333333 [-]
	 SCS Opposite-Spin Scale   =       1.2000000000000000 [-]
	 SCS Same-Spin Energy      =      -0.1950680382980301 [Eh]
	 SCS Opposite-Spin Energy  =      -2.2999019904276747 [Eh]
	 SCS Correlation Energy    =      -2.4949700287257048 [Eh]
	 SCS Total Energy          =    -537.7979425712604780 [Eh]
	-----------------------------------------------------------

  Dipole Moment: [D]
     X:   -12.1386      Y:    -0.6683      Z:     0.7082     Total:    12.1776

*** Psi4 exiting successfully. Buy a developer a beer!
