                               Psi4 1.4a3.dev225

  ==> Input File <==

--------------------------------------------------------------------------
#psi4
#
memory 32 gb

molecule  {
1 1
  N       -3.4197460    -0.1817000     0.1602720
  N       -0.6214370    -0.0078370    -0.1287630
  C       -2.7377630    -0.6049400    -1.1216890
  C       -2.6265040     0.8533270     0.9259500
  C       -1.3397990    -1.0900720    -0.7822260
  C       -1.2267490     0.3141230     1.1574790
  C        0.8091060    -0.1845140    -0.0397240
  C        1.5892212     0.9093638    -0.2290039
  C        1.3698700    -1.4337860     0.2499420
  C        3.0044760     0.7849240    -0.1342920
  C        1.0196790     2.2951990    -0.5492200
  C        2.7558540    -1.5738690     0.3292430
  C        3.5736970    -0.4590730     0.1432710
  H       -2.7010110     0.2771110    -1.7633110
  H       -3.3565410    -1.3799850    -1.5813290
  H       -3.1641810     1.0582560     1.8552750
  H       -2.5989570     1.7488760     0.3025170
  H       -1.4126900    -2.0099640    -0.1705650
  H       -0.8261290    -1.3544960    -1.7108330
  H       -0.6365290     1.0912410     1.6504410
  H       -1.2578930    -0.5558900     1.8421060
  H       -4.3648950     0.1725180    -0.0402120
  H       -3.5438220    -1.0118610     0.7575640
  H        0.7360800    -2.3037000     0.4086560
  H        3.6499200     1.6470780    -0.2894290
  H        0.2227830     2.2055990    -1.2916560
  H        0.5919240     2.7705950     0.3416580
  H        1.7859030     2.9697170    -0.9386560
  H        3.1912420    -2.5456860     0.5460090
  H        4.6540550    -0.5586080     0.2046590
units angstrom
no_reorient  #important for SAPT in psi4, default
symmetry c1  #important for SAPT in psi4, default
}

set PROPERTIES_ORIGIN ["COM"]
properties('MP2/aug-cc-pvtz', properties = ['dipole'])
--------------------------------------------------------------------------

    Molecular point group: c1
  Charge       = 1
  Multiplicity = 1
  Basis Set: AUG-CC-PVTZ
    Blend: AUG-CC-PVTZ
  Basis Set: (AUG-CC-PVTZ AUX)
    Blend: AUG-CC-PVTZ-JKFIT

    Orbital Energies [Eh]
    ---------------------

    Doubly Occupied:

       1A    -15.866548     2A    -15.702449     3A    -11.456750
       4A    -11.456673     5A    -11.417455     6A    -11.417073
       7A    -11.370013     8A    -11.342368     9A    -11.339877
      10A    -11.332488    11A    -11.332225    12A    -11.328687
      13A    -11.324533    14A     -1.497453    15A     -1.390989
      16A     -1.252314    17A     -1.221762    18A     -1.157106
      19A     -1.137801    20A     -1.089312    21A     -1.053397
      22A     -1.031233    23A     -0.995805    24A     -0.937607
      25A     -0.925410    26A     -0.904086    27A     -0.867145
      28A     -0.823639    29A     -0.810068    30A     -0.794017
      31A     -0.788465    32A     -0.755063    33A     -0.744288
      34A     -0.734579    35A     -0.715022    36A     -0.705582
      37A     -0.687580    38A     -0.673655    39A     -0.665759
      40A     -0.659568    41A     -0.656150    42A     -0.641224
      43A     -0.600085    44A     -0.592256    45A     -0.586209
      46A     -0.521860    47A     -0.433549    48A     -0.426496

  @DF-RHF Final Energy:  -535.30669250977792

   => Energetics <=

    Nuclear Repulsion Energy =            820.9353142897477937
    One-Electron Energy =               -2340.1566616802565477
    Two-Electron Energy =                 983.9146548807308363
    Total Energy =                       -535.3066925097779176
  Basis Set: (AUG-CC-PVTZ AUX)
    Blend: AUG-CC-PVTZ-RI
    Molecular point group: c1

    Geometry (in Angstrom), charge = 1, multiplicity = 1:

       Center              X                  Y                   Z               Mass
    ------------   -----------------  -----------------  -----------------  -----------------
         N           -3.468310452309    -0.166527025303     0.160487425481    14.003074004430
         N           -0.670001452309     0.007335974697    -0.128547574519    14.003074004430
         C           -2.786327452309    -0.589767025303    -1.121473574519    12.000000000000
         C           -2.675068452309     0.868499974697     0.926165425481    12.000000000000
         C           -1.388363452309    -1.074899025303    -0.782010574519    12.000000000000
         C           -1.275313452309     0.329295974697     1.157694425481    12.000000000000
         C            0.760541547691    -0.169341025303    -0.039508574519    12.000000000000
         C            1.540656747691     0.924536774697    -0.228788474519    12.000000000000
         C            1.321305547691    -1.418613025303     0.250157425481    12.000000000000
         C            2.955911547691     0.800096974697    -0.134076574519    12.000000000000
         C            0.971114547691     2.310371974697    -0.549004574519    12.000000000000
         C            2.707289547691    -1.558696025303     0.329458425481    12.000000000000
         C            3.525132547691    -0.443900025303     0.143486425481    12.000000000000
         H           -2.749575452309     0.292283974697    -1.763095574519     1.007825032230
         H           -3.405105452309    -1.364812025303    -1.581113574519     1.007825032230
         H           -3.212745452309     1.073428974697     1.855490425481     1.007825032230
         H           -2.647521452309     1.764048974697     0.302732425481     1.007825032230
         H           -1.461254452309    -1.994791025303    -0.170349574519     1.007825032230
         H           -0.874693452309    -1.339323025303    -1.710617574519     1.007825032230
         H           -0.685093452309     1.106413974697     1.650656425481     1.007825032230
         H           -1.306457452309    -0.540717025303     1.842321425481     1.007825032230
         H           -4.413459452309     0.187690974697    -0.039996574519     1.007825032230
         H           -3.592386452309    -0.996688025303     0.757779425481     1.007825032230
         H            0.687515547691    -2.288527025303     0.408871425481     1.007825032230
         H            3.601355547691     1.662250974697    -0.289213574519     1.007825032230
         H            0.174218547691     2.220771974697    -1.291440574519     1.007825032230
         H            0.543359547691     2.785767974697     0.341873425481     1.007825032230
         H            1.737338547691     2.984889974697    -0.938440574519     1.007825032230
         H            3.142677547691    -2.530513025303     0.546224425481     1.007825032230
         H            4.605490547691    -0.543435025303     0.204874425481     1.007825032230

  Basis Set: AUG-CC-PVTZ
    Blend: AUG-CC-PVTZ
  Basis Set: (AUG-CC-PVTZ AUX)
    Blend: AUG-CC-PVTZ-JKFIT
	 Reference Energy          =    -535.3066925097779176 [Eh]
	 Singles Energy            =      -0.0000000000000000 [Eh]
	 Same-Spin Energy          =      -0.5849460938381972 [Eh]
	 Opposite-Spin Energy      =      -1.9168706129909365 [Eh]
	 Correlation Energy        =      -2.5018167068291337 [Eh]
	 Total Energy              =    -537.8085092166070353 [Eh]

	 ================> DF-SCS-MP2 Energies <==================
	-----------------------------------------------------------
	 SCS Same-Spin Scale       =       0.3333333333333333 [-]
	 SCS Opposite-Spin Scale   =       1.2000000000000000 [-]
	 SCS Same-Spin Energy      =      -0.1949820312793991 [Eh]
	 SCS Opposite-Spin Energy  =      -2.3002447355891236 [Eh]
	 SCS Correlation Energy    =      -2.4952267668685226 [Eh]
	 SCS Total Energy          =    -537.8019192766464585 [Eh]
	-----------------------------------------------------------

  Dipole Moment: [D]
     X:   -12.0568      Y:    -0.6848      Z:     0.7333     Total:    12.0985

*** Psi4 exiting successfully. Buy a developer a beer!
