                               Psi4 1.4a3.dev225

  ==> Input File <==

--------------------------------------------------------------------------
#psi4
#
memory 32 gb

molecule  {
1 1
  N       -3.4197460    -0.1817000     0.1602720
  N       -0.6214370    -0.0078370    -0.1287630
  C       -2.7377630    -0.6049400    -1.1216890
  C       -2.6778057     0.7383483     1.0228387
  C       -1.3397990    -1.0900720    -0.7822260
  C       -1.2267490     0.3141230     1.1574790
  C        0.8091060    -0.1845140    -0.0397240
  C        1.6179690     0.9496740    -0.2359790
  C        1.3698700    -1.4337860     0.2499420
  C        3.0044760     0.7849240    -0.1342920
  C        1.0196790     2.2951990    -0.5492200
  C        2.7558540    -1.5738690     0.3292430
  C        3.5736970    -0.4590730     0.1432710
  H       -2.7010110     0.2771110    -1.7633110
  H       -3.3565410    -1.3799850    -1.5813290
  H       -3.1641810     1.0582560     1.8552750
  H       -2.5989570     1.7488760     0.3025170
  H       -1.4126900    -2.0099640    -0.1705650
  H       -0.8261290    -1.3544960    -1.7108330
  H       -0.6365290     1.0912410     1.6504410
  H       -1.2578930    -0.5558900     1.8421060
  H       -4.3648950     0.1725180    -0.0402120
  H       -3.5438220    -1.0118610     0.7575640
  H        0.7360800    -2.3037000     0.4086560
  H        3.6499200     1.6470780    -0.2894290
  H        0.2227830     2.2055990    -1.2916560
  H        0.5919240     2.7705950     0.3416580
  H        1.7859030     2.9697170    -0.9386560
  H        3.1912420    -2.5456860     0.5460090
  H        4.6540550    -0.5586080     0.2046590
units angstrom
no_reorient  #important for SAPT in psi4, default
symmetry c1  #important for SAPT in psi4, default
}

set PROPERTIES_ORIGIN ["COM"]
properties('MP2/aug-cc-pvtz', properties = ['dipole'])
--------------------------------------------------------------------------

    Molecular point group: c1
  Charge       = 1
  Multiplicity = 1
  Basis Set: AUG-CC-PVTZ
    Blend: AUG-CC-PVTZ
  Basis Set: (AUG-CC-PVTZ AUX)
    Blend: AUG-CC-PVTZ-JKFIT

    Orbital Energies [Eh]
    ---------------------

    Doubly Occupied:

       1A    -15.872370     2A    -15.705004     3A    -11.460601
       4A    -11.458761     5A    -11.419075     6A    -11.418302
       7A    -11.375771     8A    -11.344696     9A    -11.340644
      10A    -11.331939    11A    -11.330015    12A    -11.328832
      13A    -11.322917    14A     -1.510415    15A     -1.391362
      16A     -1.250189    17A     -1.225910    18A     -1.155623
      19A     -1.142621    20A     -1.087778    21A     -1.060409
      22A     -1.031422    23A     -0.993373    24A     -0.942747
      25A     -0.930778    26A     -0.905175    27A     -0.877252
      28A     -0.821064    29A     -0.809952    30A     -0.796447
      31A     -0.794113    32A     -0.755748    33A     -0.751107
      34A     -0.736867    35A     -0.714294    36A     -0.698549
      37A     -0.675018    38A     -0.671178    39A     -0.666008
      40A     -0.660915    41A     -0.644924    42A     -0.640294
      43A     -0.599256    44A     -0.592366    45A     -0.588367
      46A     -0.520919    47A     -0.433812    48A     -0.423784

  @DF-RHF Final Energy:  -535.28222188508767

   => Energetics <=

    Nuclear Repulsion Energy =            820.1299380052200831
    One-Electron Energy =               -2338.4063906370188306
    Two-Electron Energy =                 982.9942307467110822
    Total Energy =                       -535.2822218850876652
  Basis Set: (AUG-CC-PVTZ AUX)
    Blend: AUG-CC-PVTZ-RI
    Molecular point group: c1

    Geometry (in Angstrom), charge = 1, multiplicity = 1:

       Center              X                  Y                   Z               Mass
    ------------   -----------------  -----------------  -----------------  -----------------
         N           -3.466782575698    -0.161468731409     0.154396377531    14.003074004430
         N           -0.668473575698     0.012394268591    -0.134638622469    14.003074004430
         C           -2.784799575698    -0.584708731409    -1.127564622469    12.000000000000
         C           -2.724842275698     0.758579568591     1.016963077531    12.000000000000
         C           -1.386835575698    -1.069840731409    -0.788101622469    12.000000000000
         C           -1.273785575698     0.334354268591     1.151603377531    12.000000000000
         C            0.762069424302    -0.164282731409    -0.045599622469    12.000000000000
         C            1.570932424302     0.969905268591    -0.241854622469    12.000000000000
         C            1.322833424302    -1.413554731409     0.244066377531    12.000000000000
         C            2.957439424302     0.805155268591    -0.140167622469    12.000000000000
         C            0.972642424302     2.315430268591    -0.555095622469    12.000000000000
         C            2.708817424302    -1.553637731409     0.323367377531    12.000000000000
         C            3.526660424302    -0.438841731409     0.137395377531    12.000000000000
         H           -2.748047575698     0.297342268591    -1.769186622469     1.007825032230
         H           -3.403577575698    -1.359753731409    -1.587204622469     1.007825032230
         H           -3.211217575698     1.078487268591     1.849399377531     1.007825032230
         H           -2.645993575698     1.769107268591     0.296641377531     1.007825032230
         H           -1.459726575698    -1.989732731409    -0.176440622469     1.007825032230
         H           -0.873165575698    -1.334264731409    -1.716708622469     1.007825032230
         H           -0.683565575698     1.111472268591     1.644565377531     1.007825032230
         H           -1.304929575698    -0.535658731409     1.836230377531     1.007825032230
         H           -4.411931575698     0.192749268591    -0.046087622469     1.007825032230
         H           -3.590858575698    -0.991629731409     0.751688377531     1.007825032230
         H            0.689043424302    -2.283468731409     0.402780377531     1.007825032230
         H            3.602883424302     1.667309268591    -0.295304622469     1.007825032230
         H            0.175746424302     2.225830268591    -1.297531622469     1.007825032230
         H            0.544887424302     2.790826268591     0.335782377531     1.007825032230
         H            1.738866424302     2.989948268591    -0.944531622469     1.007825032230
         H            3.144205424302    -2.525454731409     0.540133377531     1.007825032230
         H            4.607018424302    -0.538376731409     0.198783377531     1.007825032230

  Basis Set: AUG-CC-PVTZ
    Blend: AUG-CC-PVTZ
  Basis Set: (AUG-CC-PVTZ AUX)
    Blend: AUG-CC-PVTZ-JKFIT
	 Reference Energy          =    -535.2822218850876652 [Eh]
	 Singles Energy            =      -0.0000000000000000 [Eh]
	 Same-Spin Energy          =      -0.5861724903393679 [Eh]
	 Opposite-Spin Energy      =      -1.9186284557015356 [Eh]
	 Correlation Energy        =      -2.5048009460409038 [Eh]
	 Total Energy              =    -537.7870228311285246 [Eh]

	 ================> DF-SCS-MP2 Energies <==================
	-----------------------------------------------------------
	 SCS Same-Spin Scale       =       0.3333333333333333 [-]
	 SCS Opposite-Spin Scale   =       1.2000000000000000 [-]
	 SCS Same-Spin Energy      =      -0.1953908301131226 [Eh]
	 SCS Opposite-Spin Energy  =      -2.3023541468418425 [Eh]
	 SCS Correlation Energy    =      -2.4977449769549649 [Eh]
	 SCS Total Energy          =    -537.7799668620426701 [Eh]
	-----------------------------------------------------------

  Dipole Moment: [D]
     X:   -12.1300      Y:    -0.8136      Z:     0.6848     Total:    12.1766

*** Psi4 exiting successfully. Buy a developer a beer!
