                               Psi4 1.4a3.dev225

  ==> Input File <==

--------------------------------------------------------------------------
#psi4
#
memory 32 gb

molecule  {
1 1
  N       -3.4197460    -0.1817000     0.1602720
  N       -0.6214370    -0.0078370    -0.1287630
  C       -2.7377630    -0.6049400    -1.1216890
  C       -2.6265040     0.8533270     0.9259500
  C       -1.3397990    -1.0900720    -0.7822260
  C       -1.2267490     0.3141230     1.1574790
  C        0.8998650    -0.1486463    -0.0442592
  C        1.6179690     0.9496740    -0.2359790
  C        1.3698700    -1.4337860     0.2499420
  C        3.0044760     0.7849240    -0.1342920
  C        1.0196790     2.2951990    -0.5492200
  C        2.7558540    -1.5738690     0.3292430
  C        3.5736970    -0.4590730     0.1432710
  H       -2.7010110     0.2771110    -1.7633110
  H       -3.3565410    -1.3799850    -1.5813290
  H       -3.1641810     1.0582560     1.8552750
  H       -2.5989570     1.7488760     0.3025170
  H       -1.4126900    -2.0099640    -0.1705650
  H       -0.8261290    -1.3544960    -1.7108330
  H       -0.6365290     1.0912410     1.6504410
  H       -1.2578930    -0.5558900     1.8421060
  H       -4.3648950     0.1725180    -0.0402120
  H       -3.5438220    -1.0118610     0.7575640
  H        0.7360800    -2.3037000     0.4086560
  H        3.6499200     1.6470780    -0.2894290
  H        0.2227830     2.2055990    -1.2916560
  H        0.5919240     2.7705950     0.3416580
  H        1.7859030     2.9697170    -0.9386560
  H        3.1912420    -2.5456860     0.5460090
  H        4.6540550    -0.5586080     0.2046590
units angstrom
no_reorient  #important for SAPT in psi4, default
symmetry c1  #important for SAPT in psi4, default
}

set PROPERTIES_ORIGIN ["COM"]
properties('MP2/aug-cc-pvtz', properties = ['dipole'])
--------------------------------------------------------------------------

    Molecular point group: c1
  Charge       = 1
  Multiplicity = 1
  Basis Set: AUG-CC-PVTZ
    Blend: AUG-CC-PVTZ
  Basis Set: (AUG-CC-PVTZ AUX)
    Blend: AUG-CC-PVTZ-JKFIT

    Orbital Energies [Eh]
    ---------------------

    Doubly Occupied:

       1A    -15.863957     2A    -15.697019     3A    -11.454074
       4A    -11.453657     5A    -11.414058     6A    -11.412899
       7A    -11.374705     8A    -11.342229     9A    -11.338379
      10A    -11.334850    11A    -11.333168    12A    -11.329899
      13A    -11.326178    14A     -1.494319    15A     -1.372795
      16A     -1.262362    17A     -1.218158    18A     -1.157173
      19A     -1.139955    20A     -1.088749    21A     -1.048582
      22A     -1.037877    23A     -0.990631    24A     -0.938431
      25A     -0.924167    26A     -0.904211    27A     -0.864737
      28A     -0.820592    29A     -0.805037    30A     -0.790631
      31A     -0.781852    32A     -0.756437    33A     -0.743645
      34A     -0.731007    35A     -0.715461    36A     -0.704915
      37A     -0.684821    38A     -0.678539    39A     -0.672676
      40A     -0.655733    41A     -0.651735    42A     -0.639620
      43A     -0.604310    44A     -0.597337    45A     -0.587401
      46A     -0.513695    47A     -0.437198    48A     -0.433276

  @DF-RHF Final Energy:  -535.29854875090825

   => Energetics <=

    Nuclear Repulsion Energy =            820.1242740559785034
    One-Electron Energy =               -2338.5993693169216385
    Two-Electron Energy =                 983.1765465100348820
    Total Energy =                       -535.2985487509082532
  Basis Set: (AUG-CC-PVTZ AUX)
    Blend: AUG-CC-PVTZ-RI
    Molecular point group: c1

    Geometry (in Angstrom), charge = 1, multiplicity = 1:

       Center              X                  Y                   Z               Mass
    ------------   -----------------  -----------------  -----------------  -----------------
         N           -3.476406242591    -0.171687571001     0.161267171695    14.003074004430
         N           -0.678097242591     0.002175428999    -0.127767828305    14.003074004430
         C           -2.794423242591    -0.594927571001    -1.120693828305    12.000000000000
         C           -2.683164242591     0.863339428999     0.926945171695    12.000000000000
         C           -1.396459242591    -1.080059571001    -0.781230828305    12.000000000000
         C           -1.283409242591     0.324135428999     1.158474171695    12.000000000000
         C            0.843204757409    -0.138633871001    -0.043264028305    12.000000000000
         C            1.561308757409     0.959686428999    -0.234983828305    12.000000000000
         C            1.313209757409    -1.423773571001     0.250937171695    12.000000000000
         C            2.947815757409     0.794936428999    -0.133296828305    12.000000000000
         C            0.963018757409     2.305211428999    -0.548224828305    12.000000000000
         C            2.699193757409    -1.563856571001     0.330238171695    12.000000000000
         C            3.517036757409    -0.449060571001     0.144266171695    12.000000000000
         H           -2.757671242591     0.287123428999    -1.762315828305     1.007825032230
         H           -3.413201242591    -1.369972571001    -1.580333828305     1.007825032230
         H           -3.220841242591     1.068268428999     1.856270171695     1.007825032230
         H           -2.655617242591     1.758888428999     0.303512171695     1.007825032230
         H           -1.469350242591    -1.999951571001    -0.169569828305     1.007825032230
         H           -0.882789242591    -1.344483571001    -1.709837828305     1.007825032230
         H           -0.693189242591     1.101253428999     1.651436171695     1.007825032230
         H           -1.314553242591    -0.545877571001     1.843101171695     1.007825032230
         H           -4.421555242591     0.182530428999    -0.039216828305     1.007825032230
         H           -3.600482242591    -1.001848571001     0.758559171695     1.007825032230
         H            0.679419757409    -2.293687571001     0.409651171695     1.007825032230
         H            3.593259757409     1.657090428999    -0.288433828305     1.007825032230
         H            0.166122757409     2.215611428999    -1.290660828305     1.007825032230
         H            0.535263757409     2.780607428999     0.342653171695     1.007825032230
         H            1.729242757409     2.979729428999    -0.937660828305     1.007825032230
         H            3.134581757409    -2.535673571001     0.547004171695     1.007825032230
         H            4.597394757409    -0.548595571001     0.205654171695     1.007825032230

  Basis Set: AUG-CC-PVTZ
    Blend: AUG-CC-PVTZ
  Basis Set: (AUG-CC-PVTZ AUX)
    Blend: AUG-CC-PVTZ-JKFIT
	 Reference Energy          =    -535.2985487509082532 [Eh]
	 Singles Energy            =      -0.0000000000000000 [Eh]
	 Same-Spin Energy          =      -0.5849476565211630 [Eh]
	 Opposite-Spin Energy      =      -1.9171086249341256 [Eh]
	 Correlation Energy        =      -2.5020562814552885 [Eh]
	 Total Energy              =    -537.8006050323635918 [Eh]

	 ================> DF-SCS-MP2 Energies <==================
	-----------------------------------------------------------
	 SCS Same-Spin Scale       =       0.3333333333333333 [-]
	 SCS Opposite-Spin Scale   =       1.2000000000000000 [-]
	 SCS Same-Spin Energy      =      -0.1949825521737210 [Eh]
	 SCS Opposite-Spin Energy  =      -2.3005303499209506 [Eh]
	 SCS Correlation Energy    =      -2.4955129020946716 [Eh]
	 SCS Total Energy          =    -537.7940616530029274 [Eh]
	-----------------------------------------------------------

  Dipole Moment: [D]
     X:   -11.7537      Y:    -0.6721      Z:     0.7080     Total:    11.7942

*** Psi4 exiting successfully. Buy a developer a beer!
