                               Psi4 1.4a3.dev225

  ==> Input File <==

--------------------------------------------------------------------------
#psi4
#
memory 32 gb

molecule  {
1 1
  N       -3.4197460    -0.1817000     0.1602720
  N       -0.6214370    -0.0078370    -0.1287630
  C       -2.7377630    -0.6049400    -1.1216890
  C       -2.6265040     0.8533270     0.9259500
  C       -1.3397990    -1.0900720    -0.7822260
  C       -1.2267490     0.3141230     1.1574790
  C        0.8091060    -0.1845140    -0.0397240
  C        1.6179690     0.9496740    -0.2359790
  C        1.3698700    -1.4337860     0.2499420
  C        3.0044760     0.7849240    -0.1342920
  C        1.0196790     2.2951990    -0.5492200
  C        2.7558540    -1.5738690     0.3292430
  C        3.5736970    -0.4590730     0.1432710
  H       -2.7010110     0.2771110    -1.7633110
  H       -3.3565410    -1.3799850    -1.5813290
  H       -3.1641810     1.0582560     1.8552750
  H       -2.5989570     1.7488760     0.3025170
  H       -1.4126900    -2.0099640    -0.1705650
  H       -0.8261290    -1.3544960    -1.7108330
  H       -0.6365290     1.0912410     1.6504410
  H       -1.2578930    -0.5558900     1.8421060
  H       -4.3648950     0.1725180    -0.0402120
  H       -3.5438220    -1.0118610     0.7575640
  H        0.7360800    -2.3037000     0.4086560
  H        3.6499200     1.6470780    -0.2894290
  H        0.2227830     2.2055990    -1.2916560
  H        0.5919240     2.7705950     0.3416580
  H        1.7859030     2.9697170    -0.9386560
  H        3.1912420    -2.5456860     0.5460090
  H        4.6043454    -0.5540282     0.2018344
units angstrom
no_reorient  #important for SAPT in psi4, default
symmetry c1  #important for SAPT in psi4, default
}

set PROPERTIES_ORIGIN ["COM"]
properties('MP2/aug-cc-pvtz', properties = ['dipole'])
--------------------------------------------------------------------------

    Molecular point group: c1
  Charge       = 1
  Multiplicity = 1
  Basis Set: AUG-CC-PVTZ
    Blend: AUG-CC-PVTZ
  Basis Set: (AUG-CC-PVTZ AUX)
    Blend: AUG-CC-PVTZ-JKFIT

    Orbital Energies [Eh]
    ---------------------

    Doubly Occupied:

       1A    -15.866605     2A    -15.703004     3A    -11.456777
       4A    -11.456745     5A    -11.417497     6A    -11.417232
       7A    -11.375102     8A    -11.344154     9A    -11.339952
      10A    -11.331400    11A    -11.329249    12A    -11.323451
      13A    -11.323357    14A     -1.497509    15A     -1.390201
      16A     -1.250002    17A     -1.221826    18A     -1.156184
      19A     -1.142486    20A     -1.089342    21A     -1.053458
      22A     -1.031899    23A     -0.996495    24A     -0.935881
      25A     -0.924939    26A     -0.904801    27A     -0.868201
      28A     -0.823697    29A     -0.810187    30A     -0.793697
      31A     -0.788458    32A     -0.761103    33A     -0.744778
      34A     -0.734578    35A     -0.714709    36A     -0.704548
      37A     -0.687821    38A     -0.675164    39A     -0.670241
      40A     -0.659927    41A     -0.656872    42A     -0.640970
      43A     -0.600887    44A     -0.593475    45A     -0.587879
      46A     -0.521579    47A     -0.433406    48A     -0.423352

  @DF-RHF Final Energy:  -535.30808702882564

   => Energetics <=

    Nuclear Repulsion Energy =            820.5694580277819341
    One-Electron Energy =               -2339.4049394348289752
    Two-Electron Energy =                 983.5273943782215156
    Total Energy =                       -535.3080870288256392
  Basis Set: (AUG-CC-PVTZ AUX)
    Blend: AUG-CC-PVTZ-RI
    Molecular point group: c1

    Geometry (in Angstrom), charge = 1, multiplicity = 1:

       Center              X                  Y                   Z               Mass
    ------------   -----------------  -----------------  -----------------  -----------------
         N           -3.469975103977    -0.169283829613     0.160976012510    14.003074004430
         N           -0.671666103977     0.004579170387    -0.128058987490    14.003074004430
         C           -2.787992103977    -0.592523829613    -1.120984987490    12.000000000000
         C           -2.676733103977     0.865743170387     0.926654012510    12.000000000000
         C           -1.390028103977    -1.077655829613    -0.781521987490    12.000000000000
         C           -1.276978103977     0.326539170387     1.158183012510    12.000000000000
         C            0.758876896023    -0.172097829613    -0.039019987490    12.000000000000
         C            1.567739896023     0.962090170387    -0.235274987490    12.000000000000
         C            1.319640896023    -1.421369829613     0.250646012510    12.000000000000
         C            2.954246896023     0.797340170387    -0.133587987490    12.000000000000
         C            0.969449896023     2.307615170387    -0.548515987490    12.000000000000
         C            2.705624896023    -1.561452829613     0.329947012510    12.000000000000
         C            3.523467896023    -0.446656829613     0.143975012510    12.000000000000
         H           -2.751240103977     0.289527170387    -1.762606987490     1.007825032230
         H           -3.406770103977    -1.367568829613    -1.580624987490     1.007825032230
         H           -3.214410103977     1.070672170387     1.855979012510     1.007825032230
         H           -2.649186103977     1.761292170387     0.303221012510     1.007825032230
         H           -1.462919103977    -1.997547829613    -0.169860987490     1.007825032230
         H           -0.876358103977    -1.342079829613    -1.710128987490     1.007825032230
         H           -0.686758103977     1.103657170387     1.651145012510     1.007825032230
         H           -1.308122103977    -0.543473829613     1.842810012510     1.007825032230
         H           -4.415124103977     0.184934170387    -0.039507987490     1.007825032230
         H           -3.594051103977    -0.999444829613     0.758268012510     1.007825032230
         H            0.685850896023    -2.291283829613     0.409360012510     1.007825032230
         H            3.599690896023     1.659494170387    -0.288724987490     1.007825032230
         H            0.172553896023     2.218015170387    -1.290951987490     1.007825032230
         H            0.541694896023     2.783011170387     0.342362012510     1.007825032230
         H            1.735673896023     2.982133170387    -0.937951987490     1.007825032230
         H            3.141012896023    -2.533269829613     0.546713012510     1.007825032230
         H            4.554116296023    -0.541612029613     0.202538412510     1.007825032230

  Basis Set: AUG-CC-PVTZ
    Blend: AUG-CC-PVTZ
  Basis Set: (AUG-CC-PVTZ AUX)
    Blend: AUG-CC-PVTZ-JKFIT
	 Reference Energy          =    -535.3080870288256392 [Eh]
	 Singles Energy            =      -0.0000000000000000 [Eh]
	 Same-Spin Energy          =      -0.5852098374725955 [Eh]
	 Opposite-Spin Energy      =      -1.9168136057199492 [Eh]
	 Correlation Energy        =      -2.5020234431925448 [Eh]
	 Total Energy              =    -537.8101104720182093 [Eh]

	 ================> DF-SCS-MP2 Energies <==================
	-----------------------------------------------------------
	 SCS Same-Spin Scale       =       0.3333333333333333 [-]
	 SCS Opposite-Spin Scale   =       1.2000000000000000 [-]
	 SCS Same-Spin Energy      =      -0.1950699458241985 [Eh]
	 SCS Opposite-Spin Energy  =      -2.3001763268639390 [Eh]
	 SCS Correlation Energy    =      -2.4952462726881377 [Eh]
	 SCS Total Energy          =    -537.8033333015138169 [Eh]
	-----------------------------------------------------------

  Dipole Moment: [D]
     X:   -12.0994      Y:    -0.6865      Z:     0.7331     Total:    12.1410

*** Psi4 exiting successfully. Buy a developer a beer!
