                               Psi4 1.4a3.dev225

  ==> Input File <==

--------------------------------------------------------------------------
#psi4
#
memory 32 gb

molecule  {
1 1
  N       -3.4197460    -0.1817000     0.1602720
  N       -0.6214370    -0.0078370    -0.1287630
  C       -2.7377630    -0.6049400    -1.1216890
  C       -2.6265040     0.8533270     0.9259500
  C       -1.3213828    -1.0964629    -0.7777540
  C       -1.2267490     0.3141230     1.1574790
  C        0.8091060    -0.1845140    -0.0397240
  C        1.6179690     0.9496740    -0.2359790
  C        1.3698700    -1.4337860     0.2499420
  C        3.0044760     0.7849240    -0.1342920
  C        1.0196790     2.2951990    -0.5492200
  C        2.7558540    -1.5738690     0.3292430
  C        3.5736970    -0.4590730     0.1432710
  H       -2.7010110     0.2771110    -1.7633110
  H       -3.3565410    -1.3799850    -1.5813290
  H       -3.1641810     1.0582560     1.8552750
  H       -2.5989570     1.7488760     0.3025170
  H       -1.4126900    -2.0099640    -0.1705650
  H       -0.8261290    -1.3544960    -1.7108330
  H       -0.6365290     1.0912410     1.6504410
  H       -1.2578930    -0.5558900     1.8421060
  H       -4.3648950     0.1725180    -0.0402120
  H       -3.5438220    -1.0118610     0.7575640
  H        0.7360800    -2.3037000     0.4086560
  H        3.6499200     1.6470780    -0.2894290
  H        0.2227830     2.2055990    -1.2916560
  H        0.5919240     2.7705950     0.3416580
  H        1.7859030     2.9697170    -0.9386560
  H        3.1912420    -2.5456860     0.5460090
  H        4.6540550    -0.5586080     0.2046590
units angstrom
no_reorient  #important for SAPT in psi4, default
symmetry c1  #important for SAPT in psi4, default
}

set PROPERTIES_ORIGIN ["COM"]
properties('MP2/aug-cc-pvtz', properties = ['dipole'])
--------------------------------------------------------------------------

    Molecular point group: c1
  Charge       = 1
  Multiplicity = 1
  Basis Set: AUG-CC-PVTZ
    Blend: AUG-CC-PVTZ
  Basis Set: (AUG-CC-PVTZ AUX)
    Blend: AUG-CC-PVTZ-JKFIT

    Orbital Energies [Eh]
    ---------------------

    Doubly Occupied:

       1A    -15.866417     2A    -15.703380     3A    -11.456758
       4A    -11.456538     5A    -11.417726     6A    -11.417491
       7A    -11.375103     8A    -11.344395     9A    -11.340268
      10A    -11.331916    11A    -11.329950    12A    -11.328665
      13A    -11.323686    14A     -1.496872    15A     -1.391838
      16A     -1.249908    17A     -1.219973    18A     -1.154755
      19A     -1.142275    20A     -1.087855    21A     -1.054668
      22A     -1.032090    23A     -0.996174    24A     -0.935406
      25A     -0.924172    26A     -0.903406    27A     -0.867587
      28A     -0.823127    29A     -0.810232    30A     -0.794625
      31A     -0.788775    32A     -0.755210    33A     -0.744521
      34A     -0.733119    35A     -0.713219    36A     -0.704787
      37A     -0.688520    38A     -0.675400    39A     -0.669406
      40A     -0.662153    41A     -0.653781    42A     -0.640681
      43A     -0.600194    44A     -0.591563    45A     -0.588207
      46A     -0.522539    47A     -0.433604    48A     -0.423528

  @DF-RHF Final Energy:  -535.30863699966358

   => Energetics <=

    Nuclear Repulsion Energy =            820.2885663709246273
    One-Electron Energy =               -2338.8614844895382703
    Two-Electron Energy =                 983.2642811189500662
    Total Energy =                       -535.3086369996635767
  Basis Set: (AUG-CC-PVTZ AUX)
    Blend: AUG-CC-PVTZ-RI
    Molecular point group: c1

    Geometry (in Angstrom), charge = 1, multiplicity = 1:

       Center              X                  Y                   Z               Mass
    ------------   -----------------  -----------------  -----------------  -----------------
         N           -3.471505499393    -0.168824832117     0.160656993846    14.003074004430
         N           -0.673196499393     0.005038167883    -0.128378006154    14.003074004430
         C           -2.789522499393    -0.592064832117    -1.121304006154    12.000000000000
         C           -2.678263499393     0.866202167883     0.926334993846    12.000000000000
         C           -1.373142299393    -1.083587732117    -0.777369006154    12.000000000000
         C           -1.278508499393     0.326998167883     1.157863993846    12.000000000000
         C            0.757346500607    -0.171638832117    -0.039339006154    12.000000000000
         C            1.566209500607     0.962549167883    -0.235594006154    12.000000000000
         C            1.318110500607    -1.420910832117     0.250326993846    12.000000000000
         C            2.952716500607     0.797799167883    -0.133907006154    12.000000000000
         C            0.967919500607     2.308074167883    -0.548835006154    12.000000000000
         C            2.704094500607    -1.560993832117     0.329627993846    12.000000000000
         C            3.521937500607    -0.446197832117     0.143655993846    12.000000000000
         H           -2.752770499393     0.289986167883    -1.762926006154     1.007825032230
         H           -3.408300499393    -1.367109832117    -1.580944006154     1.007825032230
         H           -3.215940499393     1.071131167883     1.855659993846     1.007825032230
         H           -2.650716499393     1.761751167883     0.302901993846     1.007825032230
         H           -1.464449499393    -1.997088832117    -0.170180006154     1.007825032230
         H           -0.877888499393    -1.341620832117    -1.710448006154     1.007825032230
         H           -0.688288499393     1.104116167883     1.650825993846     1.007825032230
         H           -1.309652499393    -0.543014832117     1.842490993846     1.007825032230
         H           -4.416654499393     0.185393167883    -0.039827006154     1.007825032230
         H           -3.595581499393    -0.998985832117     0.757948993846     1.007825032230
         H            0.684320500607    -2.290824832117     0.409040993846     1.007825032230
         H            3.598160500607     1.659953167883    -0.289044006154     1.007825032230
         H            0.171023500607     2.218474167883    -1.291271006154     1.007825032230
         H            0.540164500607     2.783470167883     0.342042993846     1.007825032230
         H            1.734143500607     2.982592167883    -0.938271006154     1.007825032230
         H            3.139482500607    -2.532810832117     0.546393993846     1.007825032230
         H            4.602295500607    -0.545732832117     0.205043993846     1.007825032230

  Basis Set: AUG-CC-PVTZ
    Blend: AUG-CC-PVTZ
  Basis Set: (AUG-CC-PVTZ AUX)
    Blend: AUG-CC-PVTZ-JKFIT
	 Reference Energy          =    -535.3086369996635767 [Eh]
	 Singles Energy            =      -0.0000000000000000 [Eh]
	 Same-Spin Energy          =      -0.5852125408162024 [Eh]
	 Opposite-Spin Energy      =      -1.9171133939493994 [Eh]
	 Correlation Energy        =      -2.5023259347656017 [Eh]
	 Total Energy              =    -537.8109629344291989 [Eh]

	 ================> DF-SCS-MP2 Energies <==================
	-----------------------------------------------------------
	 SCS Same-Spin Scale       =       0.3333333333333333 [-]
	 SCS Opposite-Spin Scale   =       1.2000000000000000 [-]
	 SCS Same-Spin Energy      =      -0.1950708469387341 [Eh]
	 SCS Opposite-Spin Energy  =      -2.3005360727392792 [Eh]
	 SCS Correlation Energy    =      -2.4956069196780133 [Eh]
	 SCS Total Energy          =    -537.8042439193416158 [Eh]
	-----------------------------------------------------------

  Dipole Moment: [D]
     X:   -12.0958      Y:    -0.6817      Z:     0.7493     Total:    12.1381

*** Psi4 exiting successfully. Buy a developer a beer!
