                               Psi4 1.4a3.dev225

  ==> Input File <==

--------------------------------------------------------------------------
#psi4
#
memory 32 gb

molecule  {
1 1
  N       -3.4197460    -0.1817000     0.1602720
  N       -0.6214370    -0.0078370    -0.1287630
  C       -2.7377630    -0.6049400    -1.1216890
  C       -2.6265040     0.8533270     0.9259500
  C       -1.3397990    -1.0900720    -0.7822260
  C       -1.2267490     0.3141230     1.1574790
  C        0.8091060    -0.1845140    -0.0397240
  C        1.6179690     0.9496740    -0.2359790
  C        1.3698700    -1.4337860     0.2499420
  C        3.0044760     0.7849240    -0.1342920
  C        1.0196790     2.2951990    -0.5492200
  C        2.7558540    -1.5738690     0.3292430
  C        3.5736970    -0.4590730     0.1432710
  H       -2.7010110     0.2771110    -1.7633110
  H       -3.3565410    -1.3799850    -1.5813290
  H       -3.1641810     1.0582560     1.8552750
  H       -2.5989570     1.7488760     0.3025170
  H       -1.4035674    -2.0197526    -0.1845043
  H       -0.8261290    -1.3544960    -1.7108330
  H       -0.6365290     1.0912410     1.6504410
  H       -1.2578930    -0.5558900     1.8421060
  H       -4.3648950     0.1725180    -0.0402120
  H       -3.5438220    -1.0118610     0.7575640
  H        0.7360800    -2.3037000     0.4086560
  H        3.6499200     1.6470780    -0.2894290
  H        0.2227830     2.2055990    -1.2916560
  H        0.5919240     2.7705950     0.3416580
  H        1.7859030     2.9697170    -0.9386560
  H        3.1912420    -2.5456860     0.5460090
  H        4.6540550    -0.5586080     0.2046590
units angstrom
no_reorient  #important for SAPT in psi4, default
symmetry c1  #important for SAPT in psi4, default
}

set PROPERTIES_ORIGIN ["COM"]
properties('MP2/aug-cc-pvtz', properties = ['dipole'])
--------------------------------------------------------------------------

    Molecular point group: c1
  Charge       = 1
  Multiplicity = 1
  Basis Set: AUG-CC-PVTZ
    Blend: AUG-CC-PVTZ
  Basis Set: (AUG-CC-PVTZ AUX)
    Blend: AUG-CC-PVTZ-JKFIT

    Orbital Energies [Eh]
    ---------------------

    Doubly Occupied:

       1A    -15.866601     2A    -15.703233     3A    -11.456948
       4A    -11.456765     5A    -11.417325     6A    -11.417247
       7A    -11.375212     8A    -11.344420     9A    -11.340230
      10A    -11.331840    11A    -11.329912    12A    -11.328640
      13A    -11.323598    14A     -1.497497    15A     -1.390234
      16A     -1.249930    17A     -1.221809    18A     -1.155602
      19A     -1.142663    20A     -1.088130    21A     -1.053603
      22A     -1.032012    23A     -0.996036    24A     -0.935536
      25A     -0.924455    26A     -0.903376    27A     -0.867461
      28A     -0.823670    29A     -0.810275    30A     -0.793311
      31A     -0.788386    32A     -0.755005    33A     -0.744752
      34A     -0.734517    35A     -0.714797    36A     -0.704371
      37A     -0.688088    38A     -0.675196    39A     -0.669583
      40A     -0.659318    41A     -0.655633    42A     -0.640483
      43A     -0.599965    44A     -0.591708    45A     -0.588102
      46A     -0.521791    47A     -0.433588    48A     -0.423517

  @DF-RHF Final Energy:  -535.30882855640448

   => Energetics <=

    Nuclear Repulsion Energy =            820.2650688568700161
    One-Electron Energy =               -2338.8150528692694934
    Two-Electron Energy =                 983.2411554559948854
    Total Energy =                       -535.3088285564044781
  Basis Set: (AUG-CC-PVTZ AUX)
    Blend: AUG-CC-PVTZ-RI
    Molecular point group: c1

    Geometry (in Angstrom), charge = 1, multiplicity = 1:

       Center              X                  Y                   Z               Mass
    ------------   -----------------  -----------------  -----------------  -----------------
         N           -3.470309827023    -0.169202081274     0.161039249076    14.003074004430
         N           -0.672000827023     0.004660918726    -0.127995750924    14.003074004430
         C           -2.788326827023    -0.592442081274    -1.120921750924    12.000000000000
         C           -2.677067827023     0.865824918726     0.926717249076    12.000000000000
         C           -1.390362827023    -1.077574081274    -0.781458750924    12.000000000000
         C           -1.277312827023     0.326620918726     1.158246249076    12.000000000000
         C            0.758542172977    -0.172016081274    -0.038956750924    12.000000000000
         C            1.567405172977     0.962171918726    -0.235211750924    12.000000000000
         C            1.319306172977    -1.421288081274     0.250709249076    12.000000000000
         C            2.953912172977     0.797421918726    -0.133524750924    12.000000000000
         C            0.969115172977     2.307696918726    -0.548452750924    12.000000000000
         C            2.705290172977    -1.561371081274     0.330010249076    12.000000000000
         C            3.523133172977    -0.446575081274     0.144038249076    12.000000000000
         H           -2.751574827023     0.289608918726    -1.762543750924     1.007825032230
         H           -3.407104827023    -1.367487081274    -1.580561750924     1.007825032230
         H           -3.214744827023     1.070753918726     1.856042249076     1.007825032230
         H           -2.649520827023     1.761373918726     0.303284249076     1.007825032230
         H           -1.454131227023    -2.007254681274    -0.183737050924     1.007825032230
         H           -0.876692827023    -1.341998081274    -1.710065750924     1.007825032230
         H           -0.687092827023     1.103738918726     1.651208249076     1.007825032230
         H           -1.308456827023    -0.543392081274     1.842873249076     1.007825032230
         H           -4.415458827023     0.185015918726    -0.039444750924     1.007825032230
         H           -3.594385827023    -0.999363081274     0.758331249076     1.007825032230
         H            0.685516172977    -2.291202081274     0.409423249076     1.007825032230
         H            3.599356172977     1.659575918726    -0.288661750924     1.007825032230
         H            0.172219172977     2.218096918726    -1.290888750924     1.007825032230
         H            0.541360172977     2.783092918726     0.342425249076     1.007825032230
         H            1.735339172977     2.982214918726    -0.937888750924     1.007825032230
         H            3.140678172977    -2.533188081274     0.546776249076     1.007825032230
         H            4.603491172977    -0.546110081274     0.205426249076     1.007825032230

  Basis Set: AUG-CC-PVTZ
    Blend: AUG-CC-PVTZ
  Basis Set: (AUG-CC-PVTZ AUX)
    Blend: AUG-CC-PVTZ-JKFIT
	 Reference Energy          =    -535.3088285564044781 [Eh]
	 Singles Energy            =      -0.0000000000000000 [Eh]
	 Same-Spin Energy          =      -0.5852882102613532 [Eh]
	 Opposite-Spin Energy      =      -1.9171356140135067 [Eh]
	 Correlation Energy        =      -2.5024238242748602 [Eh]
	 Total Energy              =    -537.8112523806793206 [Eh]

	 ================> DF-SCS-MP2 Energies <==================
	-----------------------------------------------------------
	 SCS Same-Spin Scale       =       0.3333333333333333 [-]
	 SCS Opposite-Spin Scale   =       1.2000000000000000 [-]
	 SCS Same-Spin Energy      =      -0.1950960700871177 [Eh]
	 SCS Opposite-Spin Energy  =      -2.3005627368162078 [Eh]
	 SCS Correlation Energy    =      -2.4956588069033256 [Eh]
	 SCS Total Energy          =    -537.8044873633077714 [Eh]
	-----------------------------------------------------------

  Dipole Moment: [D]
     X:   -12.1037      Y:    -0.6894      Z:     0.7328     Total:    12.1455

*** Psi4 exiting successfully. Buy a developer a beer!
