                               Psi4 1.4a3.dev225

  ==> Input File <==

--------------------------------------------------------------------------
#psi4
#
memory 32 gb

molecule  {
1 1
  N       -3.4197460    -0.1817000     0.1602720
  N       -0.6214370    -0.0078370    -0.1287630
  C       -2.7377630    -0.6049400    -1.1216890
  C       -2.6265040     0.8533270     0.9259500
  C       -1.3397990    -1.0900720    -0.7822260
  C       -1.2267490     0.3141230     1.1574790
  C        0.8091060    -0.1845140    -0.0397240
  C        1.6179690     0.9496740    -0.2359790
  C        1.3698700    -1.4337860     0.2499420
  C        3.0044760     0.7849240    -0.1342920
  C        1.0196790     2.2951990    -0.5492200
  C        2.7558540    -1.5738690     0.3292430
  C        3.5736970    -0.4590730     0.1432710
  H       -2.7010110     0.2771110    -1.7633110
  H       -3.3565410    -1.3799850    -1.5813290
  H       -3.1641810     1.0582560     1.8552750
  H       -2.5989570     1.7488760     0.3025170
  H       -1.4126900    -2.0099640    -0.1705650
  H       -0.8261290    -1.3544960    -1.7108330
  H       -0.6365290     1.0912410     1.6504410
  H       -1.2578930    -0.5558900     1.8421060
  H       -4.4567406     0.2069394    -0.0596942
  H       -3.5438220    -1.0118610     0.7575640
  H        0.7360800    -2.3037000     0.4086560
  H        3.6499200     1.6470780    -0.2894290
  H        0.2227830     2.2055990    -1.2916560
  H        0.5919240     2.7705950     0.3416580
  H        1.7859030     2.9697170    -0.9386560
  H        3.1912420    -2.5456860     0.5460090
  H        4.6540550    -0.5586080     0.2046590
units angstrom
no_reorient  #important for SAPT in psi4, default
symmetry c1  #important for SAPT in psi4, default
}

set PROPERTIES_ORIGIN ["COM"]
properties('MP2/aug-cc-pvtz', properties = ['dipole'])
--------------------------------------------------------------------------

    Molecular point group: c1
  Charge       = 1
  Multiplicity = 1
  Basis Set: AUG-CC-PVTZ
    Blend: AUG-CC-PVTZ
  Basis Set: (AUG-CC-PVTZ AUX)
    Blend: AUG-CC-PVTZ-JKFIT

    Orbital Energies [Eh]
    ---------------------

    Doubly Occupied:

       1A    -15.872872     2A    -15.702511     3A    -11.455815
       4A    -11.455781     5A    -11.416976     6A    -11.416709
       7A    -11.374814     8A    -11.344073     9A    -11.339858
      10A    -11.331525    11A    -11.329606    12A    -11.328332
      13A    -11.323292    14A     -1.486553    15A     -1.387980
      16A     -1.249162    17A     -1.220845    18A     -1.152446
      19A     -1.140784    20A     -1.085867    21A     -1.052325
      22A     -1.031509    23A     -0.993947    24A     -0.927718
      25A     -0.911919    26A     -0.898841    27A     -0.866113
      28A     -0.822482    29A     -0.808556    30A     -0.792691
      31A     -0.787197    32A     -0.753857    33A     -0.744001
      34A     -0.733670    35A     -0.712598    36A     -0.703841
      37A     -0.686849    38A     -0.674814    39A     -0.669023
      40A     -0.659263    41A     -0.653726    42A     -0.640183
      43A     -0.599626    44A     -0.591256    45A     -0.587762
      46A     -0.521098    47A     -0.433245    48A     -0.423178

  @DF-RHF Final Energy:  -535.29884744722449

   => Energetics <=

    Nuclear Repulsion Energy =            819.6943642556600480
    One-Electron Energy =               -2337.7922426423565412
    Two-Electron Energy =                 982.7990309394720043
    Total Energy =                       -535.2988474472244889
  Basis Set: (AUG-CC-PVTZ AUX)
    Blend: AUG-CC-PVTZ-RI
    Molecular point group: c1

    Geometry (in Angstrom), charge = 1, multiplicity = 1:

       Center              X                  Y                   Z               Mass
    ------------   -----------------  -----------------  -----------------  -----------------
         N           -3.469735373178    -0.169453611999     0.161070785146    14.003074004430
         N           -0.671426373178     0.004409388001    -0.127964214854    14.003074004430
         C           -2.787752373178    -0.592693611999    -1.120890214854    12.000000000000
         C           -2.676493373178     0.865573388001     0.926748785146    12.000000000000
         C           -1.389788373178    -1.077825611999    -0.781427214854    12.000000000000
         C           -1.276738373178     0.326369388001     1.158277785146    12.000000000000
         C            0.759116626822    -0.172267611999    -0.038925214854    12.000000000000
         C            1.567979626822     0.961920388001    -0.235180214854    12.000000000000
         C            1.319880626822    -1.421539611999     0.250740785146    12.000000000000
         C            2.954486626822     0.797170388001    -0.133493214854    12.000000000000
         C            0.969689626822     2.307445388001    -0.548421214854    12.000000000000
         C            2.705864626822    -1.561622611999     0.330041785146    12.000000000000
         C            3.523707626822    -0.446826611999     0.144069785146    12.000000000000
         H           -2.751000373178     0.289357388001    -1.762512214854     1.007825032230
         H           -3.406530373178    -1.367738611999    -1.580530214854     1.007825032230
         H           -3.214170373178     1.070502388001     1.856073785146     1.007825032230
         H           -2.648946373178     1.761122388001     0.303315785146     1.007825032230
         H           -1.462679373178    -1.997717611999    -0.169766214854     1.007825032230
         H           -0.876118373178    -1.342249611999    -1.710034214854     1.007825032230
         H           -0.686518373178     1.103487388001     1.651239785146     1.007825032230
         H           -1.307882373178    -0.543643611999     1.842904785146     1.007825032230
         H           -4.506729973178     0.219185788001    -0.058895414854     1.007825032230
         H           -3.593811373178    -0.999614611999     0.758362785146     1.007825032230
         H            0.686090626822    -2.291453611999     0.409454785146     1.007825032230
         H            3.599930626822     1.659324388001    -0.288630214854     1.007825032230
         H            0.172793626822     2.217845388001    -1.290857214854     1.007825032230
         H            0.541934626822     2.782841388001     0.342456785146     1.007825032230
         H            1.735913626822     2.981963388001    -0.937857214854     1.007825032230
         H            3.141252626822    -2.533439611999     0.546807785146     1.007825032230
         H            4.604065626822    -0.546361611999     0.205457785146     1.007825032230

  Basis Set: AUG-CC-PVTZ
    Blend: AUG-CC-PVTZ
  Basis Set: (AUG-CC-PVTZ AUX)
    Blend: AUG-CC-PVTZ-JKFIT
	 Reference Energy          =    -535.2988474472244889 [Eh]
	 Singles Energy            =      -0.0000000000000000 [Eh]
	 Same-Spin Energy          =      -0.5859882724207689 [Eh]
	 Opposite-Spin Energy      =      -1.9192156354512733 [Eh]
	 Correlation Energy        =      -2.5052039078720423 [Eh]
	 Total Energy              =    -537.8040513550964761 [Eh]

	 ================> DF-SCS-MP2 Energies <==================
	-----------------------------------------------------------
	 SCS Same-Spin Scale       =       0.3333333333333333 [-]
	 SCS Opposite-Spin Scale   =       1.2000000000000000 [-]
	 SCS Same-Spin Energy      =      -0.1953294241402563 [Eh]
	 SCS Opposite-Spin Energy  =      -2.3030587625415277 [Eh]
	 SCS Correlation Energy    =      -2.4983881866817841 [Eh]
	 SCS Total Energy          =    -537.7972356339063253 [Eh]
	-----------------------------------------------------------

  Dipole Moment: [D]
     X:   -12.2373      Y:    -0.6414      Z:     0.7076     Total:    12.2745

*** Psi4 exiting successfully. Buy a developer a beer!
