                               Psi4 1.4a3.dev225

  ==> Input File <==

--------------------------------------------------------------------------
#psi4
#
memory 32 gb

molecule  {
1 1
  N       -3.4197460    -0.1817000     0.1602720
  N       -0.6214370    -0.0078370    -0.1287630
  C       -2.7377630    -0.6049400    -1.1216890
  C       -2.6265040     0.8533270     0.9259500
  C       -1.3397990    -1.0900720    -0.7822260
  C       -1.2267490     0.3141230     1.1574790
  C        0.9336247    -0.2599072    -0.0174751
  C        1.6179690     0.9496740    -0.2359790
  C        1.3698700    -1.4337860     0.2499420
  C        3.0044760     0.7849240    -0.1342920
  C        1.0196790     2.2951990    -0.5492200
  C        2.7558540    -1.5738690     0.3292430
  C        3.5736970    -0.4590730     0.1432710
  H       -2.7010110     0.2771110    -1.7633110
  H       -3.3565410    -1.3799850    -1.5813290
  H       -3.1641810     1.0582560     1.8552750
  H       -2.5989570     1.7488760     0.3025170
  H       -1.4126900    -2.0099640    -0.1705650
  H       -0.8261290    -1.3544960    -1.7108330
  H       -0.6365290     1.0912410     1.6504410
  H       -1.2578930    -0.5558900     1.8421060
  H       -4.3648950     0.1725180    -0.0402120
  H       -3.5438220    -1.0118610     0.7575640
  H        0.7360800    -2.3037000     0.4086560
  H        3.6499200     1.6470780    -0.2894290
  H        0.2227830     2.2055990    -1.2916560
  H        0.5919240     2.7705950     0.3416580
  H        1.7859030     2.9697170    -0.9386560
  H        3.1912420    -2.5456860     0.5460090
  H        4.6540550    -0.5586080     0.2046590
units angstrom
no_reorient  #important for SAPT in psi4, default
symmetry c1  #important for SAPT in psi4, default
}

set PROPERTIES_ORIGIN ["COM"]
properties('MP2/aug-cc-pvtz', properties = ['dipole'])
--------------------------------------------------------------------------

    Molecular point group: c1
  Charge       = 1
  Multiplicity = 1
  Basis Set: AUG-CC-PVTZ
    Blend: AUG-CC-PVTZ
  Basis Set: (AUG-CC-PVTZ AUX)
    Blend: AUG-CC-PVTZ-JKFIT

    Orbital Energies [Eh]
    ---------------------

    Doubly Occupied:

       1A    -15.863126     2A    -15.695851     3A    -11.453208
       4A    -11.452779     5A    -11.411609     6A    -11.411275
       7A    -11.374458     8A    -11.348079     9A    -11.334964
      10A    -11.332163    11A    -11.331330    12A    -11.329760
      13A    -11.328234    14A     -1.493355    15A     -1.367256
      16A     -1.267165    17A     -1.216949    18A     -1.155111
      19A     -1.144033    20A     -1.095131    21A     -1.046998
      22A     -1.036436    23A     -0.988376    24A     -0.932127
      25A     -0.921449    26A     -0.909947    27A     -0.864060
      28A     -0.819709    29A     -0.808164    30A     -0.788683
      31A     -0.779783    32A     -0.750083    33A     -0.746672
      34A     -0.730201    35A     -0.718740    36A     -0.703365
      37A     -0.683444    38A     -0.677017    39A     -0.673656
      40A     -0.654534    41A     -0.649394    42A     -0.640308
      43A     -0.607679    44A     -0.604875    45A     -0.572716
      46A     -0.515961    47A     -0.451647    48A     -0.424016

  @DF-RHF Final Energy:  -535.28382081595271

   => Energetics <=

    Nuclear Repulsion Energy =            819.8657936076366468
    One-Electron Energy =               -2338.0874804700501954
    Two-Electron Energy =                 982.9378660464609538
    Total Energy =                       -535.2838208159527085
  Basis Set: (AUG-CC-PVTZ AUX)
    Blend: AUG-CC-PVTZ-RI
    Molecular point group: c1

    Geometry (in Angstrom), charge = 1, multiplicity = 1:

       Center              X                  Y                   Z               Mass
    ------------   -----------------  -----------------  -----------------  -----------------
         N           -3.478693237568    -0.164150385560     0.159452727191    14.003074004430
         N           -0.680384237568     0.009712614440    -0.129582272809    14.003074004430
         C           -2.796710237568    -0.587390385560    -1.122508272809    12.000000000000
         C           -2.685451237568     0.870876614440     0.925130727191    12.000000000000
         C           -1.398746237568    -1.072522385560    -0.783045272809    12.000000000000
         C           -1.285696237568     0.331672614440     1.156659727191    12.000000000000
         C            0.874677462432    -0.242357585560    -0.018294372809    12.000000000000
         C            1.559021762432     0.967223614440    -0.236798272809    12.000000000000
         C            1.310922762432    -1.416236385560     0.249122727191    12.000000000000
         C            2.945528762432     0.802473614440    -0.135111272809    12.000000000000
         C            0.960731762432     2.312748614440    -0.550039272809    12.000000000000
         C            2.696906762432    -1.556319385560     0.328423727191    12.000000000000
         C            3.514749762432    -0.441523385560     0.142451727191    12.000000000000
         H           -2.759958237568     0.294660614440    -1.764130272809     1.007825032230
         H           -3.415488237568    -1.362435385560    -1.582148272809     1.007825032230
         H           -3.223128237568     1.075805614440     1.854455727191     1.007825032230
         H           -2.657904237568     1.766425614440     0.301697727191     1.007825032230
         H           -1.471637237568    -1.992414385560    -0.171384272809     1.007825032230
         H           -0.885076237568    -1.336946385560    -1.711652272809     1.007825032230
         H           -0.695476237568     1.108790614440     1.649621727191     1.007825032230
         H           -1.316840237568    -0.538340385560     1.841286727191     1.007825032230
         H           -4.423842237568     0.190067614440    -0.041031272809     1.007825032230
         H           -3.602769237568    -0.994311385560     0.756744727191     1.007825032230
         H            0.677132762432    -2.286150385560     0.407836727191     1.007825032230
         H            3.590972762432     1.664627614440    -0.290248272809     1.007825032230
         H            0.163835762432     2.223148614440    -1.292475272809     1.007825032230
         H            0.532976762432     2.788144614440     0.340838727191     1.007825032230
         H            1.726955762432     2.987266614440    -0.939475272809     1.007825032230
         H            3.132294762432    -2.528136385560     0.545189727191     1.007825032230
         H            4.595107762432    -0.541058385560     0.203839727191     1.007825032230

  Basis Set: AUG-CC-PVTZ
    Blend: AUG-CC-PVTZ
  Basis Set: (AUG-CC-PVTZ AUX)
    Blend: AUG-CC-PVTZ-JKFIT
	 Reference Energy          =    -535.2838208159527085 [Eh]
	 Singles Energy            =      -0.0000000000000000 [Eh]
	 Same-Spin Energy          =      -0.5851394713654552 [Eh]
	 Opposite-Spin Energy      =      -1.9178386704691475 [Eh]
	 Correlation Energy        =      -2.5029781418346024 [Eh]
	 Total Energy              =    -537.7867989577872549 [Eh]

	 ================> DF-SCS-MP2 Energies <==================
	-----------------------------------------------------------
	 SCS Same-Spin Scale       =       0.3333333333333333 [-]
	 SCS Opposite-Spin Scale   =       1.2000000000000000 [-]
	 SCS Same-Spin Energy      =      -0.1950464904551517 [Eh]
	 SCS Opposite-Spin Energy  =      -2.3014064045629770 [Eh]
	 SCS Correlation Energy    =      -2.4964528950181286 [Eh]
	 SCS Total Energy          =    -537.7802737109708460 [Eh]
	-----------------------------------------------------------

  Dipole Moment: [D]
     X:   -11.6867      Y:    -0.6704      Z:     0.7278     Total:    11.7285

*** Psi4 exiting successfully. Buy a developer a beer!
