                               Psi4 1.4a3.dev225

  ==> Input File <==

--------------------------------------------------------------------------
#psi4
#
memory 32 gb

molecule  {
1 1
  N       -3.4197460    -0.1817000     0.1602720
  N       -0.6214370    -0.0078370    -0.1287630
  C       -2.7377630    -0.6049400    -1.1216890
  C       -2.6265040     0.8533270     0.9259500
  C       -1.3397990    -1.0900720    -0.7822260
  C       -1.2267490     0.3141230     1.1574790
  C        0.8091060    -0.1845140    -0.0397240
  C        1.6179690     0.9496740    -0.2359790
  C        1.3698700    -1.4337860     0.2499420
  C        3.0044760     0.7849240    -0.1342920
  C        1.0196790     2.2951990    -0.5492200
  C        2.7558540    -1.5738690     0.3292430
  C        3.5736970    -0.4590730     0.1432710
  H       -2.7010110     0.2771110    -1.7633110
  H       -3.3565410    -1.3799850    -1.5813290
  H       -3.1641810     1.0582560     1.8552750
  H       -2.5989570     1.7488760     0.3025170
  H       -1.4126900    -2.0099640    -0.1705650
  H       -0.8261290    -1.3544960    -1.7108330
  H       -0.6365290     1.0912410     1.6504410
  H       -1.2578930    -0.5558900     1.8421060
  H       -4.3189722     0.1553073    -0.0304709
  H       -3.5438220    -1.0118610     0.7575640
  H        0.7360800    -2.3037000     0.4086560
  H        3.6499200     1.6470780    -0.2894290
  H        0.2227830     2.2055990    -1.2916560
  H        0.5919240     2.7705950     0.3416580
  H        1.7859030     2.9697170    -0.9386560
  H        3.1912420    -2.5456860     0.5460090
  H        4.6540550    -0.5586080     0.2046590
units angstrom
no_reorient  #important for SAPT in psi4, default
symmetry c1  #important for SAPT in psi4, default
}

set PROPERTIES_ORIGIN ["COM"]
properties('MP2/aug-cc-pvtz', properties = ['dipole'])
--------------------------------------------------------------------------

    Molecular point group: c1
  Charge       = 1
  Multiplicity = 1
  Basis Set: AUG-CC-PVTZ
    Blend: AUG-CC-PVTZ
  Basis Set: (AUG-CC-PVTZ AUX)
    Blend: AUG-CC-PVTZ-JKFIT

    Orbital Energies [Eh]
    ---------------------

    Doubly Occupied:

       1A    -15.862902     2A    -15.703361     3A    -11.457335
       4A    -11.457301     5A    -11.417870     6A    -11.417594
       7A    -11.375367     8A    -11.344563     9A    -11.340371
      10A    -11.331965    11A    -11.330041    12A    -11.328771
      13A    -11.323735    14A     -1.504545    15A     -1.391514
      16A     -1.250380    17A     -1.222396    18A     -1.157963
      19A     -1.143498    20A     -1.089409    21A     -1.054115
      22A     -1.032273    23A     -0.997540    24A     -0.945368
      25A     -0.926036    26A     -0.904092    27A     -0.868121
      28A     -0.824400    29A     -0.810959    30A     -0.793991
      31A     -0.789178    32A     -0.755516    33A     -0.745173
      34A     -0.735021    35A     -0.715519    36A     -0.704875
      37A     -0.688207    38A     -0.675397    39A     -0.669814
      40A     -0.660352    41A     -0.656488    42A     -0.640673
      43A     -0.600120    44A     -0.591906    45A     -0.588247
      46A     -0.521954    47A     -0.433728    48A     -0.423663

  @DF-RHF Final Energy:  -535.30877109759058

   => Energetics <=

    Nuclear Repulsion Energy =            820.6187256586961212
    One-Electron Energy =               -2339.4477728371916783
    Two-Electron Energy =                 983.5202760809049778
    Total Energy =                       -535.3087710975905793
  Basis Set: (AUG-CC-PVTZ AUX)
    Blend: AUG-CC-PVTZ-RI
    Molecular point group: c1

    Geometry (in Angstrom), charge = 1, multiplicity = 1:

       Center              X                  Y                   Z               Mass
    ------------   -----------------  -----------------  -----------------  -----------------
         N           -3.470519200038    -0.169159853584     0.160904520549    14.003074004430
         N           -0.672210200038     0.004703146416    -0.128130479451    14.003074004430
         C           -2.788536200038    -0.592399853584    -1.121056479451    12.000000000000
         C           -2.677277200038     0.865867146416     0.926582520549    12.000000000000
         C           -1.390572200038    -1.077531853584    -0.781593479451    12.000000000000
         C           -1.277522200038     0.326663146416     1.158111520549    12.000000000000
         C            0.758332799962    -0.171973853584    -0.039091479451    12.000000000000
         C            1.567195799962     0.962214146416    -0.235346479451    12.000000000000
         C            1.319096799962    -1.421245853584     0.250574520549    12.000000000000
         C            2.953702799962     0.797464146416    -0.133659479451    12.000000000000
         C            0.968905799962     2.307739146416    -0.548587479451    12.000000000000
         C            2.705080799962    -1.561328853584     0.329875520549    12.000000000000
         C            3.522923799962    -0.446532853584     0.143903520549    12.000000000000
         H           -2.751784200038     0.289651146416    -1.762678479451     1.007825032230
         H           -3.407314200038    -1.367444853584    -1.580696479451     1.007825032230
         H           -3.214954200038     1.070796146416     1.855907520549     1.007825032230
         H           -2.649730200038     1.761416146416     0.303149520549     1.007825032230
         H           -1.463463200038    -1.997423853584    -0.169932479451     1.007825032230
         H           -0.876902200038    -1.341955853584    -1.710200479451     1.007825032230
         H           -0.687302200038     1.103781146416     1.651073520549     1.007825032230
         H           -1.308666200038    -0.543349853584     1.842738520549     1.007825032230
         H           -4.369745400038     0.167847446416    -0.029838379451     1.007825032230
         H           -3.594595200038    -0.999320853584     0.758196520549     1.007825032230
         H            0.685306799962    -2.291159853584     0.409288520549     1.007825032230
         H            3.599146799962     1.659618146416    -0.288796479451     1.007825032230
         H            0.172009799962     2.218139146416    -1.291023479451     1.007825032230
         H            0.541150799962     2.783135146416     0.342290520549     1.007825032230
         H            1.735129799962     2.982257146416    -0.938023479451     1.007825032230
         H            3.140468799962    -2.533145853584     0.546641520549     1.007825032230
         H            4.603281799962    -0.546067853584     0.205291520549     1.007825032230

  Basis Set: AUG-CC-PVTZ
    Blend: AUG-CC-PVTZ
  Basis Set: (AUG-CC-PVTZ AUX)
    Blend: AUG-CC-PVTZ-JKFIT
	 Reference Energy          =    -535.3087710975905793 [Eh]
	 Singles Energy            =      -0.0000000000000000 [Eh]
	 Same-Spin Energy          =      -0.5849697173226599 [Eh]
	 Opposite-Spin Energy      =      -1.9162226515655736 [Eh]
	 Correlation Energy        =      -2.5011923688882334 [Eh]
	 Total Energy              =    -537.8099634664788482 [Eh]

	 ================> DF-SCS-MP2 Energies <==================
	-----------------------------------------------------------
	 SCS Same-Spin Scale       =       0.3333333333333333 [-]
	 SCS Opposite-Spin Scale   =       1.2000000000000000 [-]
	 SCS Same-Spin Energy      =      -0.1949899057742200 [Eh]
	 SCS Opposite-Spin Energy  =      -2.2994671818786880 [Eh]
	 SCS Correlation Energy    =      -2.4944570876529082 [Eh]
	 SCS Total Energy          =    -537.8032281852434835 [Eh]
	-----------------------------------------------------------

  Dipole Moment: [D]
     X:   -12.0398      Y:    -0.7059      Z:     0.7443     Total:    12.0835

*** Psi4 exiting successfully. Buy a developer a beer!
