                               Psi4 1.4a3.dev225

  ==> Input File <==

--------------------------------------------------------------------------
#psi4
#
memory 32 gb

molecule  {
1 1
  N       -3.4197460    -0.1817000     0.1602720
  N       -0.6214370    -0.0078370    -0.1287630
  C       -2.7377630    -0.6049400    -1.1216890
  C       -2.6265040     0.8533270     0.9259500
  C       -1.3397990    -1.0900720    -0.7822260
  C       -1.2267490     0.3141230     1.1574790
  C        0.8091060    -0.1845140    -0.0397240
  C        1.6179690     0.9496740    -0.2359790
  C        1.3698700    -1.4337860     0.2499420
  C        3.0044760     0.7849240    -0.1342920
  C        1.0196790     2.2951990    -0.5492200
  C        2.7558540    -1.5738690     0.3292430
  C        3.5736970    -0.4590730     0.1432710
  H       -2.7010110     0.2771110    -1.7633110
  H       -3.3565410    -1.3799850    -1.5813290
  H       -3.1641810     1.0582560     1.8552750
  H       -2.5989570     1.7488760     0.3025170
  H       -1.4126900    -2.0099640    -0.1705650
  H       -0.8261290    -1.3544960    -1.7108330
  H       -0.6365290     1.0912410     1.6504410
  H       -1.2578930    -0.5558900     1.8421060
  H       -4.3648950     0.1725180    -0.0402120
  H       -3.5438220    -1.0118610     0.7575640
  H        0.7652078    -2.2637204     0.4013618
  H        3.6499200     1.6470780    -0.2894290
  H        0.2227830     2.2055990    -1.2916560
  H        0.5919240     2.7705950     0.3416580
  H        1.7859030     2.9697170    -0.9386560
  H        3.1912420    -2.5456860     0.5460090
  H        4.6540550    -0.5586080     0.2046590
units angstrom
no_reorient  #important for SAPT in psi4, default
symmetry c1  #important for SAPT in psi4, default
}

set PROPERTIES_ORIGIN ["COM"]
properties('MP2/aug-cc-pvtz', properties = ['dipole'])
--------------------------------------------------------------------------

    Molecular point group: c1
  Charge       = 1
  Multiplicity = 1
  Basis Set: AUG-CC-PVTZ
    Blend: AUG-CC-PVTZ
  Basis Set: (AUG-CC-PVTZ AUX)
    Blend: AUG-CC-PVTZ-JKFIT

    Orbital Energies [Eh]
    ---------------------

    Doubly Occupied:

       1A    -15.866740     2A    -15.703093     3A    -11.456968
       4A    -11.456853     5A    -11.417775     6A    -11.417365
       7A    -11.374706     8A    -11.344036     9A    -11.334294
      10A    -11.331285    11A    -11.329650    12A    -11.328301
      13A    -11.323398    14A     -1.497648    15A     -1.390362
      16A     -1.249932    17A     -1.221991    18A     -1.155527
      19A     -1.143533    20A     -1.089083    21A     -1.053626
      22A     -1.031888    23A     -0.996409    24A     -0.936952
      25A     -0.925329    26A     -0.904220    27A     -0.867685
      28A     -0.823863    29A     -0.810379    30A     -0.794576
      31A     -0.788588    32A     -0.759055    33A     -0.744706
      34A     -0.734638    35A     -0.716217    36A     -0.705863
      37A     -0.687950    38A     -0.675063    39A     -0.670553
      40A     -0.660167    41A     -0.655915    42A     -0.640365
      43A     -0.600148    44A     -0.592610    45A     -0.587875
      46A     -0.521703    47A     -0.433339    48A     -0.423197

  @DF-RHF Final Energy:  -535.30818878698869

   => Energetics <=

    Nuclear Repulsion Energy =            820.5485710327042170
    One-Electron Energy =               -2339.3626803310130526
    Two-Electron Energy =                 983.5059205113200278
    Total Energy =                       -535.3081887869886941
  Basis Set: (AUG-CC-PVTZ AUX)
    Blend: AUG-CC-PVTZ-RI
    Molecular point group: c1

    Geometry (in Angstrom), charge = 1, multiplicity = 1:

       Center              X                  Y                   Z               Mass
    ------------   -----------------  -----------------  -----------------  -----------------
         N           -3.470423645672    -0.169485235117     0.161001442090    14.003074004430
         N           -0.672114645672     0.004377764883    -0.128033557910    14.003074004430
         C           -2.788440645672    -0.592725235117    -1.120959557910    12.000000000000
         C           -2.677181645672     0.865541764883     0.926679442090    12.000000000000
         C           -1.390476645672    -1.077857235117    -0.781496557910    12.000000000000
         C           -1.277426645672     0.326337764883     1.158208442090    12.000000000000
         C            0.758428354328    -0.172299235117    -0.038994557910    12.000000000000
         C            1.567291354328     0.961888764883    -0.235249557910    12.000000000000
         C            1.319192354328    -1.421571235117     0.250671442090    12.000000000000
         C            2.953798354328     0.797138764883    -0.133562557910    12.000000000000
         C            0.969001354328     2.307413764883    -0.548490557910    12.000000000000
         C            2.705176354328    -1.561654235117     0.329972442090    12.000000000000
         C            3.523019354328    -0.446858235117     0.144000442090    12.000000000000
         H           -2.751688645672     0.289325764883    -1.762581557910     1.007825032230
         H           -3.407218645672    -1.367770235117    -1.580599557910     1.007825032230
         H           -3.214858645672     1.070470764883     1.856004442090     1.007825032230
         H           -2.649634645672     1.761090764883     0.303246442090     1.007825032230
         H           -1.463367645672    -1.997749235117    -0.169835557910     1.007825032230
         H           -0.876806645672    -1.342281235117    -1.710103557910     1.007825032230
         H           -0.687206645672     1.103455764883     1.651170442090     1.007825032230
         H           -1.308570645672    -0.543675235117     1.842835442090     1.007825032230
         H           -4.415572645672     0.184732764883    -0.039482557910     1.007825032230
         H           -3.594499645672    -0.999646235117     0.758293442090     1.007825032230
         H            0.714530154328    -2.251505635117     0.402091242090     1.007825032230
         H            3.599242354328     1.659292764883    -0.288699557910     1.007825032230
         H            0.172105354328     2.217813764883    -1.290926557910     1.007825032230
         H            0.541246354328     2.782809764883     0.342387442090     1.007825032230
         H            1.735225354328     2.981931764883    -0.937926557910     1.007825032230
         H            3.140564354328    -2.533471235117     0.546738442090     1.007825032230
         H            4.603377354328    -0.546393235117     0.205388442090     1.007825032230

  Basis Set: AUG-CC-PVTZ
    Blend: AUG-CC-PVTZ
  Basis Set: (AUG-CC-PVTZ AUX)
    Blend: AUG-CC-PVTZ-JKFIT
	 Reference Energy          =    -535.3081887869886941 [Eh]
	 Singles Energy            =      -0.0000000000000000 [Eh]
	 Same-Spin Energy          =      -0.5851570126620657 [Eh]
	 Opposite-Spin Energy      =      -1.9167948245482536 [Eh]
	 Correlation Energy        =      -2.5019518372103193 [Eh]
	 Total Energy              =    -537.8101406241989935 [Eh]

	 ================> DF-SCS-MP2 Energies <==================
	-----------------------------------------------------------
	 SCS Same-Spin Scale       =       0.3333333333333333 [-]
	 SCS Opposite-Spin Scale   =       1.2000000000000000 [-]
	 SCS Same-Spin Energy      =      -0.1950523375540219 [Eh]
	 SCS Opposite-Spin Energy  =      -2.3001537894579043 [Eh]
	 SCS Correlation Energy    =      -2.4952061270119263 [Eh]
	 SCS Total Energy          =    -537.8033949140005916 [Eh]
	-----------------------------------------------------------

  Dipole Moment: [D]
     X:   -12.1228      Y:    -0.6961      Z:     0.7336     Total:    12.1649

*** Psi4 exiting successfully. Buy a developer a beer!
