                               Psi4 1.4a3.dev225

  ==> Input File <==

--------------------------------------------------------------------------
#psi4
#
memory 32 gb

molecule  {
1 1
  N       -3.4197460    -0.1817000     0.1602720
  N       -0.6214370    -0.0078370    -0.1287630
  C       -2.7377630    -0.6049400    -1.1216890
  C       -2.6265040     0.8533270     0.9259500
  C       -1.3397990    -1.0900720    -0.7822260
  C       -1.2267490     0.3141230     1.1574790
  C        0.8091060    -0.1845140    -0.0397240
  C        1.5029778     0.7884332    -0.2080786
  C        1.3698700    -1.4337860     0.2499420
  C        3.0044760     0.7849240    -0.1342920
  C        1.0196790     2.2951990    -0.5492200
  C        2.7558540    -1.5738690     0.3292430
  C        3.5736970    -0.4590730     0.1432710
  H       -2.7010110     0.2771110    -1.7633110
  H       -3.3565410    -1.3799850    -1.5813290
  H       -3.1641810     1.0582560     1.8552750
  H       -2.5989570     1.7488760     0.3025170
  H       -1.4126900    -2.0099640    -0.1705650
  H       -0.8261290    -1.3544960    -1.7108330
  H       -0.6365290     1.0912410     1.6504410
  H       -1.2578930    -0.5558900     1.8421060
  H       -4.3648950     0.1725180    -0.0402120
  H       -3.5438220    -1.0118610     0.7575640
  H        0.7360800    -2.3037000     0.4086560
  H        3.6499200     1.6470780    -0.2894290
  H        0.2227830     2.2055990    -1.2916560
  H        0.5919240     2.7705950     0.3416580
  H        1.7859030     2.9697170    -0.9386560
  H        3.1912420    -2.5456860     0.5460090
  H        4.6540550    -0.5586080     0.2046590
units angstrom
no_reorient  #important for SAPT in psi4, default
symmetry c1  #important for SAPT in psi4, default
}

set PROPERTIES_ORIGIN ["COM"]
properties('MP2/aug-cc-pvtz', properties = ['dipole'])
--------------------------------------------------------------------------

    Molecular point group: c1
  Charge       = 1
  Multiplicity = 1
  Basis Set: AUG-CC-PVTZ
    Blend: AUG-CC-PVTZ
  Basis Set: (AUG-CC-PVTZ AUX)
    Blend: AUG-CC-PVTZ-JKFIT

    Orbital Energies [Eh]
    ---------------------

    Doubly Occupied:

       1A    -15.866249     2A    -15.700383     3A    -11.456495
       4A    -11.456379     5A    -11.417026     6A    -11.416496
       7A    -11.350279     8A    -11.340506     9A    -11.338702
      10A    -11.334111    11A    -11.332924    12A    -11.328078
      13A    -11.327922    14A     -1.497155    15A     -1.394360
      16A     -1.264017    17A     -1.221411    18A     -1.164148
      19A     -1.125172    20A     -1.094077    21A     -1.052979
      22A     -1.028890    23A     -0.995263    24A     -0.947989
      25A     -0.927655    26A     -0.901594    27A     -0.864115
      28A     -0.823347    29A     -0.810675    30A     -0.794805
      31A     -0.788460    32A     -0.757227    33A     -0.740705
      34A     -0.734545    35A     -0.717145    36A     -0.706797
      37A     -0.687336    38A     -0.672116    39A     -0.661547
      40A     -0.658670    41A     -0.653233    42A     -0.642366
      43A     -0.610999    44A     -0.600405    45A     -0.552833
      46A     -0.520581    47A     -0.455112    48A     -0.419244

  @DF-RHF Final Energy:  -535.25230381763799

   => Energetics <=

    Nuclear Repulsion Energy =            823.1437692194008378
    One-Electron Energy =               -2344.4871011480959169
    Two-Electron Energy =                 986.0910281110570850
    Total Energy =                       -535.2523038176379941
  Basis Set: (AUG-CC-PVTZ AUX)
    Blend: AUG-CC-PVTZ-RI
    Molecular point group: c1

    Geometry (in Angstrom), charge = 1, multiplicity = 1:

       Center              X                  Y                   Z               Mass
    ------------   -----------------  -----------------  -----------------  -----------------
         N           -3.462468035980    -0.158334782047     0.159069875681    14.003074004430
         N           -0.664159035980     0.015528217953    -0.129965124319    14.003074004430
         C           -2.780485035980    -0.581574782047    -1.122891124319    12.000000000000
         C           -2.669226035980     0.876692217953     0.924747875681    12.000000000000
         C           -1.382521035980    -1.066706782047    -0.783428124319    12.000000000000
         C           -1.269471035980     0.337488217953     1.156276875681    12.000000000000
         C            0.766383964020    -0.161148782047    -0.040926124319    12.000000000000
         C            1.460255764020     0.811798417953    -0.209280724319    12.000000000000
         C            1.327147964020    -1.410420782047     0.248739875681    12.000000000000
         C            2.961753964020     0.808289217953    -0.135494124319    12.000000000000
         C            0.976956964020     2.318564217953    -0.550422124319    12.000000000000
         C            2.713131964020    -1.550503782047     0.328040875681    12.000000000000
         C            3.530974964020    -0.435707782047     0.142068875681    12.000000000000
         H           -2.743733035980     0.300476217953    -1.764513124319     1.007825032230
         H           -3.399263035980    -1.356619782047    -1.582531124319     1.007825032230
         H           -3.206903035980     1.081621217953     1.854072875681     1.007825032230
         H           -2.641679035980     1.772241217953     0.301314875681     1.007825032230
         H           -1.455412035980    -1.986598782047    -0.171767124319     1.007825032230
         H           -0.868851035980    -1.331130782047    -1.712035124319     1.007825032230
         H           -0.679251035980     1.114606217953     1.649238875681     1.007825032230
         H           -1.300615035980    -0.532524782047     1.840903875681     1.007825032230
         H           -4.407617035980     0.195883217953    -0.041414124319     1.007825032230
         H           -3.586544035980    -0.988495782047     0.756361875681     1.007825032230
         H            0.693357964020    -2.280334782047     0.407453875681     1.007825032230
         H            3.607197964020     1.670443217953    -0.290631124319     1.007825032230
         H            0.180060964020     2.228964217953    -1.292858124319     1.007825032230
         H            0.549201964020     2.793960217953     0.340455875681     1.007825032230
         H            1.743180964020     2.993082217953    -0.939858124319     1.007825032230
         H            3.148519964020    -2.522320782047     0.544806875681     1.007825032230
         H            4.611332964020    -0.535242782047     0.203456875681     1.007825032230

  Basis Set: AUG-CC-PVTZ
    Blend: AUG-CC-PVTZ
  Basis Set: (AUG-CC-PVTZ AUX)
    Blend: AUG-CC-PVTZ-JKFIT
	 Reference Energy          =    -535.2523038176379941 [Eh]
	 Singles Energy            =      -0.0000000000000000 [Eh]
	 Same-Spin Energy          =      -0.5836610427290664 [Eh]
	 Opposite-Spin Energy      =      -1.9176774018786291 [Eh]
	 Correlation Energy        =      -2.5013384446076956 [Eh]
	 Total Energy              =    -537.7536422622456485 [Eh]

	 ================> DF-SCS-MP2 Energies <==================
	-----------------------------------------------------------
	 SCS Same-Spin Scale       =       0.3333333333333333 [-]
	 SCS Opposite-Spin Scale   =       1.2000000000000000 [-]
	 SCS Same-Spin Energy      =      -0.1945536809096888 [Eh]
	 SCS Opposite-Spin Energy  =      -2.3012128822543549 [Eh]
	 SCS Correlation Energy    =      -2.4957665631640435 [Eh]
	 SCS Total Energy          =    -537.7480703808020053 [Eh]
	-----------------------------------------------------------

  Dipole Moment: [D]
     X:   -11.9067      Y:    -0.6666      Z:     0.7317     Total:    11.9478

*** Psi4 exiting successfully. Buy a developer a beer!
