                               Psi4 1.4a3.dev225

  ==> Input File <==

--------------------------------------------------------------------------
#psi4
#
memory 32 gb

molecule  {
1 1
  N       -3.4197460    -0.1817000     0.1602720
  N       -0.6214370    -0.0078370    -0.1287630
  C       -2.7377630    -0.6049400    -1.1216890
  C       -2.6265040     0.8533270     0.9259500
  C       -1.3397990    -1.0900720    -0.7822260
  C       -1.2267490     0.3141230     1.1574790
  C        0.8091060    -0.1845140    -0.0397240
  C        1.6179690     0.9496740    -0.2359790
  C        1.3698700    -1.4337860     0.2499420
  C        3.0044760     0.7849240    -0.1342920
  C        1.0196790     2.2951990    -0.5492200
  C        2.7558540    -1.5738690     0.3292430
  C        3.5736970    -0.4590730     0.1432710
  H       -2.7010110     0.2771110    -1.7633110
  H       -3.3565410    -1.3799850    -1.5813290
  H       -3.1641810     1.0582560     1.8552750
  H       -2.5989570     1.7488760     0.3025170
  H       -1.4126900    -2.0099640    -0.1705650
  H       -0.8730971    -1.3303181    -1.6259246
  H       -0.6365290     1.0912410     1.6504410
  H       -1.2578930    -0.5558900     1.8421060
  H       -4.3648950     0.1725180    -0.0402120
  H       -3.5438220    -1.0118610     0.7575640
  H        0.7360800    -2.3037000     0.4086560
  H        3.6499200     1.6470780    -0.2894290
  H        0.2227830     2.2055990    -1.2916560
  H        0.5919240     2.7705950     0.3416580
  H        1.7859030     2.9697170    -0.9386560
  H        3.1912420    -2.5456860     0.5460090
  H        4.6540550    -0.5586080     0.2046590
units angstrom
no_reorient  #important for SAPT in psi4, default
symmetry c1  #important for SAPT in psi4, default
}

set PROPERTIES_ORIGIN ["COM"]
properties('MP2/aug-cc-pvtz', properties = ['dipole'])
--------------------------------------------------------------------------

    Molecular point group: c1
  Charge       = 1
  Multiplicity = 1
  Basis Set: AUG-CC-PVTZ
    Blend: AUG-CC-PVTZ
  Basis Set: (AUG-CC-PVTZ AUX)
    Blend: AUG-CC-PVTZ-JKFIT

    Orbital Energies [Eh]
    ---------------------

    Doubly Occupied:

       1A    -15.866563     2A    -15.702565     3A    -11.456657
       4A    -11.456602     5A    -11.416801     6A    -11.406568
       7A    -11.375245     8A    -11.344423     9A    -11.340301
      10A    -11.331895    11A    -11.329962    12A    -11.328686
      13A    -11.323586    14A     -1.497404    15A     -1.390769
      16A     -1.250213    17A     -1.224267    18A     -1.156201
      19A     -1.142790    20A     -1.088185    21A     -1.059541
      22A     -1.032107    23A     -0.997092    24A     -0.936775
      25A     -0.927779    26A     -0.903475    27A     -0.867655
      28A     -0.823786    29A     -0.810065    30A     -0.800462
      31A     -0.788811    32A     -0.756681    33A     -0.745597
      34A     -0.736166    35A     -0.714879    36A     -0.704889
      37A     -0.687577    38A     -0.675794    39A     -0.672584
      40A     -0.665689    41A     -0.655707    42A     -0.640707
      43A     -0.600065    44A     -0.591732    45A     -0.588092
      46A     -0.521582    47A     -0.433648    48A     -0.423502

  @DF-RHF Final Energy:  -535.30323667234950

   => Energetics <=

    Nuclear Repulsion Energy =            820.8506452233740447
    One-Electron Energy =               -2339.9235219473962388
    Two-Electron Energy =                 983.7696400516725816
    Total Energy =                       -535.3032366723494988
  Basis Set: (AUG-CC-PVTZ AUX)
    Blend: AUG-CC-PVTZ-RI
    Molecular point group: c1

    Geometry (in Angstrom), charge = 1, multiplicity = 1:

       Center              X                  Y                   Z               Mass
    ------------   -----------------  -----------------  -----------------  -----------------
         N           -3.469990701613    -0.169395332085     0.160476859716    14.003074004430
         N           -0.671681701613     0.004467667915    -0.128558140284    14.003074004430
         C           -2.788007701613    -0.592635332085    -1.121484140284    12.000000000000
         C           -2.676748701613     0.865631667915     0.926154859716    12.000000000000
         C           -1.390043701613    -1.077767332085    -0.782021140284    12.000000000000
         C           -1.276993701613     0.326427667915     1.157683859716    12.000000000000
         C            0.758861298387    -0.172209332085    -0.039519140284    12.000000000000
         C            1.567724298387     0.961978667915    -0.235774140284    12.000000000000
         C            1.319625298387    -1.421481332085     0.250146859716    12.000000000000
         C            2.954231298387     0.797228667915    -0.134087140284    12.000000000000
         C            0.969434298387     2.307503667915    -0.549015140284    12.000000000000
         C            2.705609298387    -1.561564332085     0.329447859716    12.000000000000
         C            3.523452298387    -0.446768332085     0.143475859716    12.000000000000
         H           -2.751255701613     0.289415667915    -1.763106140284     1.007825032230
         H           -3.406785701613    -1.367680332085    -1.581124140284     1.007825032230
         H           -3.214425701613     1.070560667915     1.855479859716     1.007825032230
         H           -2.649201701613     1.761180667915     0.302721859716     1.007825032230
         H           -1.462934701613    -1.997659332085    -0.170360140284     1.007825032230
         H           -0.923341801613    -1.318013432085    -1.625719740284     1.007825032230
         H           -0.686773701613     1.103545667915     1.650645859716     1.007825032230
         H           -1.308137701613    -0.543585332085     1.842310859716     1.007825032230
         H           -4.415139701613     0.184822667915    -0.040007140284     1.007825032230
         H           -3.594066701613    -0.999556332085     0.757768859716     1.007825032230
         H            0.685835298387    -2.291395332085     0.408860859716     1.007825032230
         H            3.599675298387     1.659382667915    -0.289224140284     1.007825032230
         H            0.172538298387     2.217903667915    -1.291451140284     1.007825032230
         H            0.541679298387     2.782899667915     0.341862859716     1.007825032230
         H            1.735658298387     2.982021667915    -0.938451140284     1.007825032230
         H            3.140997298387    -2.533381332085     0.546213859716     1.007825032230
         H            4.603810298387    -0.546303332085     0.204863859716     1.007825032230

  Basis Set: AUG-CC-PVTZ
    Blend: AUG-CC-PVTZ
  Basis Set: (AUG-CC-PVTZ AUX)
    Blend: AUG-CC-PVTZ-JKFIT
	 Reference Energy          =    -535.3032366723494988 [Eh]
	 Singles Energy            =      -0.0000000000000000 [Eh]
	 Same-Spin Energy          =      -0.5850991316073306 [Eh]
	 Opposite-Spin Energy      =      -1.9164543769636548 [Eh]
	 Correlation Energy        =      -2.5015535085709857 [Eh]
	 Total Energy              =    -537.8047901809204632 [Eh]

	 ================> DF-SCS-MP2 Energies <==================
	-----------------------------------------------------------
	 SCS Same-Spin Scale       =       0.3333333333333333 [-]
	 SCS Opposite-Spin Scale   =       1.2000000000000000 [-]
	 SCS Same-Spin Energy      =      -0.1950330438691102 [Eh]
	 SCS Opposite-Spin Energy  =      -2.2997452523563857 [Eh]
	 SCS Correlation Energy    =      -2.4947782962254959 [Eh]
	 SCS Total Energy          =    -537.7980149685749893 [Eh]
	-----------------------------------------------------------

  Dipole Moment: [D]
     X:   -12.1181      Y:    -0.6887      Z:     0.7343     Total:    12.1599

*** Psi4 exiting successfully. Buy a developer a beer!
