                               Psi4 1.4a3.dev225

  ==> Input File <==

--------------------------------------------------------------------------
#psi4
#
memory 32 gb

molecule  {
1 1
  N       -3.4197460    -0.1817000     0.1602720
  N       -0.6214370    -0.0078370    -0.1287630
  C       -2.7377630    -0.6049400    -1.1216890
  C       -2.6265040     0.8533270     0.9259500
  C       -1.3397990    -1.0900720    -0.7822260
  C       -1.2267490     0.3141230     1.1574790
  C        0.8091060    -0.1845140    -0.0397240
  C        1.6179690     0.9496740    -0.2359790
  C        1.3674190    -1.4575865     0.2544764
  C        3.0044760     0.7849240    -0.1342920
  C        1.0196790     2.2951990    -0.5492200
  C        2.7558540    -1.5738690     0.3292430
  C        3.5736970    -0.4590730     0.1432710
  H       -2.7010110     0.2771110    -1.7633110
  H       -3.3565410    -1.3799850    -1.5813290
  H       -3.1641810     1.0582560     1.8552750
  H       -2.5989570     1.7488760     0.3025170
  H       -1.4126900    -2.0099640    -0.1705650
  H       -0.8261290    -1.3544960    -1.7108330
  H       -0.6365290     1.0912410     1.6504410
  H       -1.2578930    -0.5558900     1.8421060
  H       -4.3648950     0.1725180    -0.0402120
  H       -3.5438220    -1.0118610     0.7575640
  H        0.7360800    -2.3037000     0.4086560
  H        3.6499200     1.6470780    -0.2894290
  H        0.2227830     2.2055990    -1.2916560
  H        0.5919240     2.7705950     0.3416580
  H        1.7859030     2.9697170    -0.9386560
  H        3.1912420    -2.5456860     0.5460090
  H        4.6540550    -0.5586080     0.2046590
units angstrom
no_reorient  #important for SAPT in psi4, default
symmetry c1  #important for SAPT in psi4, default
}

set PROPERTIES_ORIGIN ["COM"]
properties('MP2/aug-cc-pvtz', properties = ['dipole'])
--------------------------------------------------------------------------

    Molecular point group: c1
  Charge       = 1
  Multiplicity = 1
  Basis Set: AUG-CC-PVTZ
    Blend: AUG-CC-PVTZ
  Basis Set: (AUG-CC-PVTZ AUX)
    Blend: AUG-CC-PVTZ-JKFIT

    Orbital Energies [Eh]
    ---------------------

    Doubly Occupied:

       1A    -15.866637     2A    -15.702893     3A    -11.456847
       4A    -11.456728     5A    -11.417629     6A    -11.417200
       7A    -11.377310     8A    -11.344499     9A    -11.340575
      10A    -11.332201    11A    -11.330383    12A    -11.328834
      13A    -11.323724    14A     -1.497536    15A     -1.389884
      16A     -1.248226    17A     -1.221856    18A     -1.155462
      19A     -1.142509    20A     -1.087202    21A     -1.053486
      22A     -1.031596    23A     -0.996029    24A     -0.936324
      25A     -0.924934    26A     -0.902755    27A     -0.867053
      28A     -0.823736    29A     -0.809270    30A     -0.793720
      31A     -0.788354    32A     -0.757808    33A     -0.743831
      34A     -0.734282    35A     -0.714441    36A     -0.705642
      37A     -0.687725    38A     -0.675179    39A     -0.670341
      40A     -0.659963    41A     -0.655434    42A     -0.640517
      43A     -0.599279    44A     -0.594083    45A     -0.586600
      46A     -0.520716    47A     -0.432184    48A     -0.423565

  @DF-RHF Final Energy:  -535.30775841976765

   => Energetics <=

    Nuclear Repulsion Energy =            819.8474383022909251
    One-Electron Energy =               -2337.9764339122616548
    Two-Electron Energy =                 982.8212371902031919
    Total Energy =                       -535.3077584197676515
  Basis Set: (AUG-CC-PVTZ AUX)
    Blend: AUG-CC-PVTZ-RI
    Molecular point group: c1

    Geometry (in Angstrom), charge = 1, multiplicity = 1:

       Center              X                  Y                   Z               Mass
    ------------   -----------------  -----------------  -----------------  -----------------
         N           -3.470091885481    -0.167645447592     0.160652766661    14.003074004430
         N           -0.671782885481     0.006217552408    -0.128382233339    14.003074004430
         C           -2.788108885481    -0.590885447592    -1.121308233339    12.000000000000
         C           -2.676849885481     0.867381552408     0.926330766661    12.000000000000
         C           -1.390144885481    -1.076017447592    -0.781845233339    12.000000000000
         C           -1.277094885481     0.328177552408     1.157859766661    12.000000000000
         C            0.758760114519    -0.170459447592    -0.039343233339    12.000000000000
         C            1.567623114519     0.963728552408    -0.235598233339    12.000000000000
         C            1.317073114519    -1.443531947592     0.254857166661    12.000000000000
         C            2.954130114519     0.798978552408    -0.133911233339    12.000000000000
         C            0.969333114519     2.309253552408    -0.548839233339    12.000000000000
         C            2.705508114519    -1.559814447592     0.329623766661    12.000000000000
         C            3.523351114519    -0.445018447592     0.143651766661    12.000000000000
         H           -2.751356885481     0.291165552408    -1.762930233339     1.007825032230
         H           -3.406886885481    -1.365930447592    -1.580948233339     1.007825032230
         H           -3.214526885481     1.072310552408     1.855655766661     1.007825032230
         H           -2.649302885481     1.762930552408     0.302897766661     1.007825032230
         H           -1.463035885481    -1.995909447592    -0.170184233339     1.007825032230
         H           -0.876474885481    -1.340441447592    -1.710452233339     1.007825032230
         H           -0.686874885481     1.105295552408     1.650821766661     1.007825032230
         H           -1.308238885481    -0.541835447592     1.842486766661     1.007825032230
         H           -4.415240885481     0.186572552408    -0.039831233339     1.007825032230
         H           -3.594167885481    -0.997806447592     0.757944766661     1.007825032230
         H            0.685734114519    -2.289645447592     0.409036766661     1.007825032230
         H            3.599574114519     1.661132552408    -0.289048233339     1.007825032230
         H            0.172437114519     2.219653552408    -1.291275233339     1.007825032230
         H            0.541578114519     2.784649552408     0.342038766661     1.007825032230
         H            1.735557114519     2.983771552408    -0.938275233339     1.007825032230
         H            3.140896114519    -2.531631447592     0.546389766661     1.007825032230
         H            4.603709114519    -0.544553447592     0.205039766661     1.007825032230

  Basis Set: AUG-CC-PVTZ
    Blend: AUG-CC-PVTZ
  Basis Set: (AUG-CC-PVTZ AUX)
    Blend: AUG-CC-PVTZ-JKFIT
	 Reference Energy          =    -535.3077584197676515 [Eh]
	 Singles Energy            =      -0.0000000000000000 [Eh]
	 Same-Spin Energy          =      -0.5853215268554312 [Eh]
	 Opposite-Spin Energy      =      -1.9173590177166404 [Eh]
	 Correlation Energy        =      -2.5026805445720717 [Eh]
	 Total Energy              =    -537.8104389643397099 [Eh]

	 ================> DF-SCS-MP2 Energies <==================
	-----------------------------------------------------------
	 SCS Same-Spin Scale       =       0.3333333333333333 [-]
	 SCS Opposite-Spin Scale   =       1.2000000000000000 [-]
	 SCS Same-Spin Energy      =      -0.1951071756184770 [Eh]
	 SCS Opposite-Spin Energy  =      -2.3008308212599684 [Eh]
	 SCS Correlation Energy    =      -2.4959379968784456 [Eh]
	 SCS Total Energy          =    -537.8036964166460621 [Eh]
	-----------------------------------------------------------

  Dipole Moment: [D]
     X:   -12.1084      Y:    -0.6687      Z:     0.7274     Total:    12.1487

*** Psi4 exiting successfully. Buy a developer a beer!
