                               Psi4 1.4a3.dev225

  ==> Input File <==

--------------------------------------------------------------------------
#psi4
#
memory 32 gb

molecule  {
1 1
  N       -3.4197460    -0.1817000     0.1602720
  N       -0.6214370    -0.0078370    -0.1287630
  C       -2.7377630    -0.6049400    -1.1216890
  C       -2.6265040     0.8533270     0.9259500
  C       -1.3397990    -1.0900720    -0.7822260
  C       -1.2267490     0.3141230     1.1574790
  C        0.8091060    -0.1845140    -0.0397240
  C        1.6179690     0.9496740    -0.2359790
  C        1.3698700    -1.4337860     0.2499420
  C        3.0044760     0.7849240    -0.1342920
  C        1.0196790     2.2951990    -0.5492200
  C        2.7757205    -1.5758769     0.3303797
  C        3.5736970    -0.4590730     0.1432710
  H       -2.7010110     0.2771110    -1.7633110
  H       -3.3565410    -1.3799850    -1.5813290
  H       -3.1641810     1.0582560     1.8552750
  H       -2.5989570     1.7488760     0.3025170
  H       -1.4126900    -2.0099640    -0.1705650
  H       -0.8261290    -1.3544960    -1.7108330
  H       -0.6365290     1.0912410     1.6504410
  H       -1.2578930    -0.5558900     1.8421060
  H       -4.3648950     0.1725180    -0.0402120
  H       -3.5438220    -1.0118610     0.7575640
  H        0.7360800    -2.3037000     0.4086560
  H        3.6499200     1.6470780    -0.2894290
  H        0.2227830     2.2055990    -1.2916560
  H        0.5919240     2.7705950     0.3416580
  H        1.7859030     2.9697170    -0.9386560
  H        3.1912420    -2.5456860     0.5460090
  H        4.6540550    -0.5586080     0.2046590
units angstrom
no_reorient  #important for SAPT in psi4, default
symmetry c1  #important for SAPT in psi4, default
}

set PROPERTIES_ORIGIN ["COM"]
properties('MP2/aug-cc-pvtz', properties = ['dipole'])
--------------------------------------------------------------------------

    Molecular point group: c1
  Charge       = 1
  Multiplicity = 1
  Basis Set: AUG-CC-PVTZ
    Blend: AUG-CC-PVTZ
  Basis Set: (AUG-CC-PVTZ AUX)
    Blend: AUG-CC-PVTZ-JKFIT

    Orbital Energies [Eh]
    ---------------------

    Doubly Occupied:

       1A    -15.866660     2A    -15.703147     3A    -11.456824
       4A    -11.456812     5A    -11.417560     6A    -11.417336
       7A    -11.375463     8A    -11.344470     9A    -11.342217
      10A    -11.332065    11A    -11.329830    12A    -11.327797
      13A    -11.323613    14A     -1.497568    15A     -1.390308
      16A     -1.249120    17A     -1.221891    18A     -1.156018
      19A     -1.141511    20A     -1.087670    21A     -1.053525
      22A     -1.032166    23A     -0.996418    24A     -0.935705
      25A     -0.924226    26A     -0.903555    27A     -0.867266
      28A     -0.823757    29A     -0.810622    30A     -0.793596
      31A     -0.788544    32A     -0.754508    33A     -0.744351
      34A     -0.734550    35A     -0.715313    36A     -0.705654
      37A     -0.687756    38A     -0.675553    39A     -0.668181
      40A     -0.660052    41A     -0.656119    42A     -0.640243
      43A     -0.601467    44A     -0.590475    45A     -0.587468
      46A     -0.521915    47A     -0.432749    48A     -0.423777

  @DF-RHF Final Energy:  -535.30834325094895

   => Energetics <=

    Nuclear Repulsion Energy =            820.0068104904989923
    One-Electron Energy =               -2338.2955262830982974
    Two-Electron Energy =                 982.9803725416503539
    Total Energy =                       -535.3083432509489512
  Basis Set: (AUG-CC-PVTZ AUX)
    Blend: AUG-CC-PVTZ-RI
    Molecular point group: c1

    Geometry (in Angstrom), charge = 1, multiplicity = 1:

       Center              X                  Y                   Z               Mass
    ------------   -----------------  -----------------  -----------------  -----------------
         N           -3.471603747565    -0.169121751195     0.160882938222    14.003074004430
         N           -0.673294747565     0.004741248805    -0.128152061778    14.003074004430
         C           -2.789620747565    -0.592361751195    -1.121078061778    12.000000000000
         C           -2.678361747565     0.865905248805     0.926560938222    12.000000000000
         C           -1.391656747565    -1.077493751195    -0.781615061778    12.000000000000
         C           -1.278606747565     0.326701248805     1.158089938222    12.000000000000
         C            0.757248252435    -0.171935751195    -0.039113061778    12.000000000000
         C            1.566111252435     0.962252248805    -0.235368061778    12.000000000000
         C            1.318012252435    -1.421207751195     0.250552938222    12.000000000000
         C            2.952618252435     0.797502248805    -0.133681061778    12.000000000000
         C            0.967821252435     2.307777248805    -0.548609061778    12.000000000000
         C            2.723862752435    -1.563298651195     0.330990638222    12.000000000000
         C            3.521839252435    -0.446494751195     0.143881938222    12.000000000000
         H           -2.752868747565     0.289689248805    -1.762700061778     1.007825032230
         H           -3.408398747565    -1.367406751195    -1.580718061778     1.007825032230
         H           -3.216038747565     1.070834248805     1.855885938222     1.007825032230
         H           -2.650814747565     1.761454248805     0.303127938222     1.007825032230
         H           -1.464547747565    -1.997385751195    -0.169954061778     1.007825032230
         H           -0.877986747565    -1.341917751195    -1.710222061778     1.007825032230
         H           -0.688386747565     1.103819248805     1.651051938222     1.007825032230
         H           -1.309750747565    -0.543311751195     1.842716938222     1.007825032230
         H           -4.416752747565     0.185096248805    -0.039601061778     1.007825032230
         H           -3.595679747565    -0.999282751195     0.758174938222     1.007825032230
         H            0.684222252435    -2.291121751195     0.409266938222     1.007825032230
         H            3.598062252435     1.659656248805    -0.288818061778     1.007825032230
         H            0.170925252435     2.218177248805    -1.291045061778     1.007825032230
         H            0.540066252435     2.783173248805     0.342268938222     1.007825032230
         H            1.734045252435     2.982295248805    -0.938045061778     1.007825032230
         H            3.139384252435    -2.533107751195     0.546619938222     1.007825032230
         H            4.602197252435    -0.546029751195     0.205269938222     1.007825032230

  Basis Set: AUG-CC-PVTZ
    Blend: AUG-CC-PVTZ
  Basis Set: (AUG-CC-PVTZ AUX)
    Blend: AUG-CC-PVTZ-JKFIT
	 Reference Energy          =    -535.3083432509489512 [Eh]
	 Singles Energy            =      -0.0000000000000000 [Eh]
	 Same-Spin Energy          =      -0.5852604875672041 [Eh]
	 Opposite-Spin Energy      =      -1.9171993497040525 [Eh]
	 Correlation Energy        =      -2.5024598372712568 [Eh]
	 Total Energy              =    -537.8108030882201547 [Eh]

	 ================> DF-SCS-MP2 Energies <==================
	-----------------------------------------------------------
	 SCS Same-Spin Scale       =       0.3333333333333333 [-]
	 SCS Opposite-Spin Scale   =       1.2000000000000000 [-]
	 SCS Same-Spin Energy      =      -0.1950868291890680 [Eh]
	 SCS Opposite-Spin Energy  =      -2.3006392196448631 [Eh]
	 SCS Correlation Energy    =      -2.4957260488339310 [Eh]
	 SCS Total Energy          =    -537.8040692997828955 [Eh]
	-----------------------------------------------------------

  Dipole Moment: [D]
     X:   -12.1154      Y:    -0.6879      Z:     0.7330     Total:    12.1570

*** Psi4 exiting successfully. Buy a developer a beer!
