                               Psi4 1.4a3.dev225

  ==> Input File <==

--------------------------------------------------------------------------
#psi4
#
memory 32 gb

molecule  {
1 1
  N       -3.4197460    -0.1817000     0.1602720
  N       -0.6214370    -0.0078370    -0.1287630
  C       -2.7377630    -0.6049400    -1.1216890
  C       -2.6265040     0.8533270     0.9259500
  C       -1.3397990    -1.0900720    -0.7822260
  C       -1.2267490     0.3141230     1.1574790
  C        0.8091060    -0.1845140    -0.0397240
  C        1.6179690     0.9496740    -0.2359790
  C        1.3698700    -1.4337860     0.2499420
  C        3.0044760     0.7849240    -0.1342920
  C        1.0196790     2.2951990    -0.5492200
  C        2.7558540    -1.5738690     0.3292430
  C        3.5736970    -0.4590730     0.1432710
  H       -2.7010110     0.2771110    -1.7633110
  H       -3.3565410    -1.3799850    -1.5813290
  H       -3.1641810     1.0582560     1.8552750
  H       -2.5989570     1.7488760     0.3025170
  H       -1.4126900    -2.0099640    -0.1705650
  H       -0.8261290    -1.3544960    -1.7108330
  H       -0.6365290     1.0912410     1.6504410
  H       -1.2578930    -0.5558900     1.8421060
  H       -4.3648950     0.1725180    -0.0402120
  H       -3.5438220    -1.0118610     0.7575640
  H        0.6195689    -2.4636183     0.4378328
  H        3.6499200     1.6470780    -0.2894290
  H        0.2227830     2.2055990    -1.2916560
  H        0.5919240     2.7705950     0.3416580
  H        1.7859030     2.9697170    -0.9386560
  H        3.1912420    -2.5456860     0.5460090
  H        4.6540550    -0.5586080     0.2046590
units angstrom
no_reorient  #important for SAPT in psi4, default
symmetry c1  #important for SAPT in psi4, default
}

set PROPERTIES_ORIGIN ["COM"]
properties('MP2/aug-cc-pvtz', properties = ['dipole'])
--------------------------------------------------------------------------

    Molecular point group: c1
  Charge       = 1
  Multiplicity = 1
  Basis Set: AUG-CC-PVTZ
    Blend: AUG-CC-PVTZ
  Basis Set: (AUG-CC-PVTZ AUX)
    Blend: AUG-CC-PVTZ-JKFIT

    Orbital Energies [Eh]
    ---------------------

    Doubly Occupied:

       1A    -15.866220     2A    -15.703113     3A    -11.456536
       4A    -11.456138     5A    -11.416971     6A    -11.416488
       7A    -11.377773     8A    -11.361890     9A    -11.346216
      10A    -11.334319    11A    -11.331423    12A    -11.330202
      13A    -11.324581    14A     -1.497118    15A     -1.390058
      16A     -1.250843    17A     -1.221358    18A     -1.156300
      19A     -1.141084    20A     -1.086092    21A     -1.053015
      22A     -1.032929    23A     -0.995322    24A     -0.932826
      25A     -0.921459    26A     -0.900798    27A     -0.866963
      28A     -0.823231    29A     -0.809987    30A     -0.791465
      31A     -0.788192    32A     -0.747186    33A     -0.743566
      34A     -0.734314    35A     -0.711125    36A     -0.696419
      37A     -0.686886    38A     -0.676023    39A     -0.664219
      40A     -0.659206    41A     -0.651581    42A     -0.641164
      43A     -0.600182    44A     -0.590350    45A     -0.582716
      46A     -0.521400    47A     -0.435061    48A     -0.425050

  @DF-RHF Final Energy:  -535.28635980514991

   => Energetics <=

    Nuclear Repulsion Energy =            819.3871202150183990
    One-Electron Energy =               -2337.0522419452986469
    Two-Electron Energy =                 982.3787619251302203
    Total Energy =                       -535.2863598051499139
  Basis Set: (AUG-CC-PVTZ AUX)
    Blend: AUG-CC-PVTZ-RI
    Molecular point group: c1

    Geometry (in Angstrom), charge = 1, multiplicity = 1:

       Center              X                  Y                   Z               Mass
    ------------   -----------------  -----------------  -----------------  -----------------
         N           -3.469595039971    -0.168347925377     0.160793942044    14.003074004430
         N           -0.671286039971     0.005515074623    -0.128241057956    14.003074004430
         C           -2.787612039971    -0.591587925377    -1.121167057956    12.000000000000
         C           -2.676353039971     0.866679074623     0.926471942044    12.000000000000
         C           -1.389648039971    -1.076719925377    -0.781704057956    12.000000000000
         C           -1.276598039971     0.327475074623     1.158000942044    12.000000000000
         C            0.759256960029    -0.171161925377    -0.039202057956    12.000000000000
         C            1.568119960029     0.963026074623    -0.235457057956    12.000000000000
         C            1.320020960029    -1.420433925377     0.250463942044    12.000000000000
         C            2.954626960029     0.798276074623    -0.133770057956    12.000000000000
         C            0.969829960029     2.308551074623    -0.548698057956    12.000000000000
         C            2.706004960029    -1.560516925377     0.329764942044    12.000000000000
         C            3.523847960029    -0.445720925377     0.143792942044    12.000000000000
         H           -2.750860039971     0.290463074623    -1.762789057956     1.007825032230
         H           -3.406390039971    -1.366632925377    -1.580807057956     1.007825032230
         H           -3.214030039971     1.071608074623     1.855796942044     1.007825032230
         H           -2.648806039971     1.762228074623     0.303038942044     1.007825032230
         H           -1.462539039971    -1.996611925377    -0.170043057956     1.007825032230
         H           -0.875978039971    -1.341143925377    -1.710311057956     1.007825032230
         H           -0.686378039971     1.104593074623     1.650962942044     1.007825032230
         H           -1.307742039971    -0.542537925377     1.842627942044     1.007825032230
         H           -4.414744039971     0.185870074623    -0.039690057956     1.007825032230
         H           -3.593671039971    -0.998508925377     0.758085942044     1.007825032230
         H            0.569719860029    -2.450266225377     0.438354742044     1.007825032230
         H            3.600070960029     1.660430074623    -0.288907057956     1.007825032230
         H            0.172933960029     2.218951074623    -1.291134057956     1.007825032230
         H            0.542074960029     2.783947074623     0.342179942044     1.007825032230
         H            1.736053960029     2.983069074623    -0.938134057956     1.007825032230
         H            3.141392960029    -2.532333925377     0.546530942044     1.007825032230
         H            4.604205960029    -0.545255925377     0.205180942044     1.007825032230

  Basis Set: AUG-CC-PVTZ
    Blend: AUG-CC-PVTZ
  Basis Set: (AUG-CC-PVTZ AUX)
    Blend: AUG-CC-PVTZ-JKFIT
	 Reference Energy          =    -535.2863598051499139 [Eh]
	 Singles Energy            =      -0.0000000000000000 [Eh]
	 Same-Spin Energy          =      -0.5860184501477719 [Eh]
	 Opposite-Spin Energy      =      -1.9195679305325737 [Eh]
	 Correlation Energy        =      -2.5055863806803456 [Eh]
	 Total Energy              =    -537.7919461858302839 [Eh]

	 ================> DF-SCS-MP2 Energies <==================
	-----------------------------------------------------------
	 SCS Same-Spin Scale       =       0.3333333333333333 [-]
	 SCS Opposite-Spin Scale   =       1.2000000000000000 [-]
	 SCS Same-Spin Energy      =      -0.1953394833825906 [Eh]
	 SCS Opposite-Spin Energy  =      -2.3034815166390885 [Eh]
	 SCS Correlation Energy    =      -2.4988210000216791 [Eh]
	 SCS Total Energy          =    -537.7851808051716489 [Eh]
	-----------------------------------------------------------

  Dipole Moment: [D]
     X:   -12.0212      Y:    -0.6121      Z:     0.7227     Total:    12.0585

*** Psi4 exiting successfully. Buy a developer a beer!
