                               Psi4 1.4a3.dev225

  ==> Input File <==

--------------------------------------------------------------------------
#psi4
#
memory 32 gb

molecule  {
1 1
  N       -3.4197460    -0.1817000     0.1602720
  N       -0.6214370    -0.0078370    -0.1287630
  C       -2.7377630    -0.6049400    -1.1216890
  C       -2.6265040     0.8533270     0.9259500
  C       -1.3397990    -1.0900720    -0.7822260
  C       -1.2267490     0.3141230     1.1574790
  C        0.8091060    -0.1845140    -0.0397240
  C        1.6179690     0.9496740    -0.2359790
  C        1.3698700    -1.4337860     0.2499420
  C        3.0044760     0.7849240    -0.1342920
  C        1.0196790     2.2951990    -0.5492200
  C        2.7558540    -1.5738690     0.3292430
  C        3.5736970    -0.4590730     0.1432710
  H       -2.7010110     0.2771110    -1.7633110
  H       -3.3565410    -1.3799850    -1.5813290
  H       -3.1641810     1.0582560     1.8552750
  H       -2.5989570     1.7488760     0.3025170
  H       -1.4126900    -2.0099640    -0.1705650
  H       -0.8261290    -1.3544960    -1.7108330
  H       -0.6365290     1.0912410     1.6504410
  H       -1.2578930    -0.5558900     1.8421060
  H       -4.3465259     0.1656337    -0.0363156
  H       -3.5438220    -1.0118610     0.7575640
  H        0.7360800    -2.3037000     0.4086560
  H        3.6499200     1.6470780    -0.2894290
  H        0.2227830     2.2055990    -1.2916560
  H        0.5919240     2.7705950     0.3416580
  H        1.7859030     2.9697170    -0.9386560
  H        3.1912420    -2.5456860     0.5460090
  H        4.6540550    -0.5586080     0.2046590
units angstrom
no_reorient  #important for SAPT in psi4, default
symmetry c1  #important for SAPT in psi4, default
}

set PROPERTIES_ORIGIN ["COM"]
properties('MP2/aug-cc-pvtz', properties = ['dipole'])
--------------------------------------------------------------------------

    Molecular point group: c1
  Charge       = 1
  Multiplicity = 1
  Basis Set: AUG-CC-PVTZ
    Blend: AUG-CC-PVTZ
  Basis Set: (AUG-CC-PVTZ AUX)
    Blend: AUG-CC-PVTZ-JKFIT

    Orbital Energies [Eh]
    ---------------------

    Doubly Occupied:

       1A    -15.865199     2A    -15.703187     3A    -11.457028
       4A    -11.456994     5A    -11.417680     6A    -11.417406
       7A    -11.375254     8A    -11.344463     9A    -11.340266
      10A    -11.331875    11A    -11.329952    12A    -11.328682
      13A    -11.323646    14A     -1.500213    15A     -1.390761
      16A     -1.250105    17A     -1.222084    18A     -1.156489
      19A     -1.143002    20A     -1.088620    21A     -1.053754
      22A     -1.032113    23A     -0.996647    24A     -0.939214
      25A     -0.925205    26A     -0.903695    27A     -0.867741
      28A     -0.824005    29A     -0.810514    30A     -0.793745
      31A     -0.788774    32A     -0.755208    33A     -0.744942
      34A     -0.734755    35A     -0.714984    36A     -0.704670
      37A     -0.687939    38A     -0.675279    39A     -0.669655
      40A     -0.660126    41A     -0.655992    42A     -0.640575
      43A     -0.600019    44A     -0.591777    45A     -0.588148
      46A     -0.521780    47A     -0.433629    48A     -0.423564

  @DF-RHF Final Energy:  -535.30935410831694

   => Energetics <=

    Nuclear Repulsion Energy =            820.4200156951092140
    One-Electron Energy =               -2339.0960319460041319
    Two-Electron Energy =                 983.3666621425779795
    Total Energy =                       -535.3093541083169384
  Basis Set: (AUG-CC-PVTZ AUX)
    Blend: AUG-CC-PVTZ-RI
    Molecular point group: c1

    Geometry (in Angstrom), charge = 1, multiplicity = 1:

       Center              X                  Y                   Z               Mass
    ------------   -----------------  -----------------  -----------------  -----------------
         N           -3.470362434552    -0.169218605153     0.160937773696    14.003074004430
         N           -0.672053434552     0.004644394847    -0.128097226304    14.003074004430
         C           -2.788379434552    -0.592458605153    -1.121023226304    12.000000000000
         C           -2.677120434552     0.865808394847     0.926615773696    12.000000000000
         C           -1.390415434552    -1.077590605153    -0.781560226304    12.000000000000
         C           -1.277365434552     0.326604394847     1.158144773696    12.000000000000
         C            0.758489565448    -0.172032605153    -0.039058226304    12.000000000000
         C            1.567352565448     0.962155394847    -0.235313226304    12.000000000000
         C            1.319253565448    -1.421304605153     0.250607773696    12.000000000000
         C            2.953859565448     0.797405394847    -0.133626226304    12.000000000000
         C            0.969062565448     2.307680394847    -0.548554226304    12.000000000000
         C            2.705237565448    -1.561387605153     0.329908773696    12.000000000000
         C            3.523080565448    -0.446591605153     0.143936773696    12.000000000000
         H           -2.751627434552     0.289592394847    -1.762645226304     1.007825032230
         H           -3.407157434552    -1.367503605153    -1.580663226304     1.007825032230
         H           -3.214797434552     1.070737394847     1.855940773696     1.007825032230
         H           -2.649573434552     1.761357394847     0.303182773696     1.007825032230
         H           -1.463306434552    -1.997482605153    -0.169899226304     1.007825032230
         H           -0.876745434552    -1.342014605153    -1.710167226304     1.007825032230
         H           -0.687145434552     1.103722394847     1.651106773696     1.007825032230
         H           -1.308509434552    -0.543408605153     1.842771773696     1.007825032230
         H           -4.397142334552     0.178115094847    -0.035649826304     1.007825032230
         H           -3.594438434552    -0.999379605153     0.758229773696     1.007825032230
         H            0.685463565448    -2.291218605153     0.409321773696     1.007825032230
         H            3.599303565448     1.659559394847    -0.288763226304     1.007825032230
         H            0.172166565448     2.218080394847    -1.290990226304     1.007825032230
         H            0.541307565448     2.783076394847     0.342323773696     1.007825032230
         H            1.735286565448     2.982198394847    -0.937990226304     1.007825032230
         H            3.140625565448    -2.533204605153     0.546674773696     1.007825032230
         H            4.603438565448    -0.546126605153     0.205324773696     1.007825032230

  Basis Set: AUG-CC-PVTZ
    Blend: AUG-CC-PVTZ
  Basis Set: (AUG-CC-PVTZ AUX)
    Blend: AUG-CC-PVTZ-JKFIT
	 Reference Energy          =    -535.3093541083169384 [Eh]
	 Singles Energy            =      -0.0000000000000000 [Eh]
	 Same-Spin Energy          =      -0.5851630230447027 [Eh]
	 Opposite-Spin Energy      =      -1.9167690821859125 [Eh]
	 Correlation Energy        =      -2.5019321052306154 [Eh]
	 Total Energy              =    -537.8112862135475325 [Eh]

	 ================> DF-SCS-MP2 Energies <==================
	-----------------------------------------------------------
	 SCS Same-Spin Scale       =       0.3333333333333333 [-]
	 SCS Opposite-Spin Scale   =       1.2000000000000000 [-]
	 SCS Same-Spin Energy      =      -0.1950543410149009 [Eh]
	 SCS Opposite-Spin Energy  =      -2.3001228986230950 [Eh]
	 SCS Correlation Energy    =      -2.4951772396379961 [Eh]
	 SCS Total Energy          =    -537.8045313479549350 [Eh]
	-----------------------------------------------------------

  Dipole Moment: [D]
     X:   -12.0798      Y:    -0.6933      Z:     0.7372     Total:    12.1221

*** Psi4 exiting successfully. Buy a developer a beer!
