                               Psi4 1.4a3.dev225

  ==> Input File <==

--------------------------------------------------------------------------
#psi4
#
memory 32 gb

molecule  {
1 1
  N       -3.4197460    -0.1817000     0.1602720
  N       -0.6214370    -0.0078370    -0.1287630
  C       -2.7377630    -0.6049400    -1.1216890
  C       -2.6265040     0.8533270     0.9259500
  C       -1.3397990    -1.0900720    -0.7822260
  C       -1.2267490     0.3141230     1.1574790
  C        0.8091060    -0.1845140    -0.0397240
  C        1.6179690     0.9496740    -0.2359790
  C        1.3698700    -1.4337860     0.2499420
  C        3.0044760     0.7849240    -0.1342920
  C        0.9401980     2.4739478    -0.5908331
  C        2.7558540    -1.5738690     0.3292430
  C        3.5736970    -0.4590730     0.1432710
  H       -2.7010110     0.2771110    -1.7633110
  H       -3.3565410    -1.3799850    -1.5813290
  H       -3.1641810     1.0582560     1.8552750
  H       -2.5989570     1.7488760     0.3025170
  H       -1.4126900    -2.0099640    -0.1705650
  H       -0.8261290    -1.3544960    -1.7108330
  H       -0.6365290     1.0912410     1.6504410
  H       -1.2578930    -0.5558900     1.8421060
  H       -4.3648950     0.1725180    -0.0402120
  H       -3.5438220    -1.0118610     0.7575640
  H        0.7360800    -2.3037000     0.4086560
  H        3.6499200     1.6470780    -0.2894290
  H        0.2227830     2.2055990    -1.2916560
  H        0.5919240     2.7705950     0.3416580
  H        1.7859030     2.9697170    -0.9386560
  H        3.1912420    -2.5456860     0.5460090
  H        4.6540550    -0.5586080     0.2046590
units angstrom
no_reorient  #important for SAPT in psi4, default
symmetry c1  #important for SAPT in psi4, default
}

set PROPERTIES_ORIGIN ["COM"]
properties('MP2/aug-cc-pvtz', properties = ['dipole'])
--------------------------------------------------------------------------

    Molecular point group: c1
  Charge       = 1
  Multiplicity = 1
  Basis Set: AUG-CC-PVTZ
    Blend: AUG-CC-PVTZ
  Basis Set: (AUG-CC-PVTZ AUX)
    Blend: AUG-CC-PVTZ-JKFIT

    Orbital Energies [Eh]
    ---------------------

    Doubly Occupied:

       1A    -15.866731     2A    -15.702776     3A    -11.456967
       4A    -11.456851     5A    -11.417352     6A    -11.417328
       7A    -11.374639     8A    -11.349398     9A    -11.339325
      10A    -11.330953    11A    -11.329426    12A    -11.327997
      13A    -11.324809    14A     -1.497619    15A     -1.389516
      16A     -1.245045    17A     -1.221920    18A     -1.153368
      19A     -1.128514    20A     -1.086445    21A     -1.053423
      22A     -1.039494    23A     -0.996220    24A     -0.934490
      25A     -0.923044    26A     -0.904219    27A     -0.866987
      28A     -0.823870    29A     -0.808689    30A     -0.793303
      31A     -0.788164    32A     -0.749221    33A     -0.743069
      34A     -0.734614    35A     -0.714244    36A     -0.704015
      37A     -0.697673    38A     -0.686750    39A     -0.676116
      40A     -0.660744    41A     -0.657750    42A     -0.644311
      43A     -0.595143    44A     -0.594426    45A     -0.557197
      46A     -0.519514    47A     -0.433181    48A     -0.424784

  @DF-RHF Final Energy:  -535.28203667125752

   => Energetics <=

    Nuclear Repulsion Energy =            816.8281207530103529
    One-Electron Energy =               -2331.9370479683566373
    Two-Electron Energy =                 979.8268905440887693
    Total Energy =                       -535.2820366712575151
  Basis Set: (AUG-CC-PVTZ AUX)
    Blend: AUG-CC-PVTZ-RI
    Molecular point group: c1

    Geometry (in Angstrom), charge = 1, multiplicity = 1:

       Center              X                  Y                   Z               Mass
    ------------   -----------------  -----------------  -----------------  -----------------
         N           -3.464873615680    -0.181366814534     0.163778952636    14.003074004430
         N           -0.666564615680    -0.007503814534    -0.125256047364    14.003074004430
         C           -2.782890615680    -0.604606814534    -1.118182047364    12.000000000000
         C           -2.671631615680     0.853660185466     0.929456952636    12.000000000000
         C           -1.384926615680    -1.089738814534    -0.778719047364    12.000000000000
         C           -1.271876615680     0.314456185466     1.160985952636    12.000000000000
         C            0.763978384320    -0.184180814534    -0.036217047364    12.000000000000
         C            1.572841384320     0.950007185466    -0.232472047364    12.000000000000
         C            1.324742384320    -1.433452814534     0.253448952636    12.000000000000
         C            2.959348384320     0.785257185466    -0.130785047364    12.000000000000
         C            0.895070384320     2.474280985466    -0.587326147364    12.000000000000
         C            2.710726384320    -1.573535814534     0.332749952636    12.000000000000
         C            3.528569384320    -0.458739814534     0.146777952636    12.000000000000
         H           -2.746138615680     0.277444185466    -1.759804047364     1.007825032230
         H           -3.401668615680    -1.379651814534    -1.577822047364     1.007825032230
         H           -3.209308615680     1.058589185466     1.858781952636     1.007825032230
         H           -2.644084615680     1.749209185466     0.306023952636     1.007825032230
         H           -1.457817615680    -2.009630814534    -0.167058047364     1.007825032230
         H           -0.871256615680    -1.354162814534    -1.707326047364     1.007825032230
         H           -0.681656615680     1.091574185466     1.653947952636     1.007825032230
         H           -1.303020615680    -0.555556814534     1.845612952636     1.007825032230
         H           -4.410022615680     0.172851185466    -0.036705047364     1.007825032230
         H           -3.588949615680    -1.011527814534     0.761070952636     1.007825032230
         H            0.690952384320    -2.303366814534     0.412162952636     1.007825032230
         H            3.604792384320     1.647411185466    -0.285922047364     1.007825032230
         H            0.177655384320     2.205932185466    -1.288149047364     1.007825032230
         H            0.546796384320     2.770928185466     0.345164952636     1.007825032230
         H            1.740775384320     2.970050185466    -0.935149047364     1.007825032230
         H            3.146114384320    -2.545352814534     0.549515952636     1.007825032230
         H            4.608927384320    -0.558274814534     0.208165952636     1.007825032230

  Basis Set: AUG-CC-PVTZ
    Blend: AUG-CC-PVTZ
  Basis Set: (AUG-CC-PVTZ AUX)
    Blend: AUG-CC-PVTZ-JKFIT
	 Reference Energy          =    -535.2820366712575151 [Eh]
	 Singles Energy            =      -0.0000000000000000 [Eh]
	 Same-Spin Energy          =      -0.5849187091772254 [Eh]
	 Opposite-Spin Energy      =      -1.9181510732801781 [Eh]
	 Correlation Energy        =      -2.5030697824574037 [Eh]
	 Total Energy              =    -537.7851064537148886 [Eh]

	 ================> DF-SCS-MP2 Energies <==================
	-----------------------------------------------------------
	 SCS Same-Spin Scale       =       0.3333333333333333 [-]
	 SCS Opposite-Spin Scale   =       1.2000000000000000 [-]
	 SCS Same-Spin Energy      =      -0.1949729030590751 [Eh]
	 SCS Opposite-Spin Energy  =      -2.3017812879362136 [Eh]
	 SCS Correlation Energy    =      -2.4967541909952886 [Eh]
	 SCS Total Energy          =    -537.7787908622527766 [Eh]
	-----------------------------------------------------------

  Dipole Moment: [D]
     X:   -12.0624      Y:    -0.7770      Z:     0.7610     Total:    12.1113

*** Psi4 exiting successfully. Buy a developer a beer!
