                               Psi4 1.4a3.dev225

  ==> Input File <==

--------------------------------------------------------------------------
#psi4
#
memory 32 gb

molecule  {
1 1
  N       -3.4197460    -0.1817000     0.1602720
  N       -0.6214370    -0.0078370    -0.1287630
  C       -2.7377630    -0.6049400    -1.1216890
  C       -2.6265040     0.8533270     0.9259500
  C       -1.3397990    -1.0900720    -0.7822260
  C       -1.2267490     0.3141230     1.1574790
  C        0.9461313    -0.1330505    -0.0459904
  C        1.6179690     0.9496740    -0.2359790
  C        1.3698700    -1.4337860     0.2499420
  C        3.0044760     0.7849240    -0.1342920
  C        1.0196790     2.2951990    -0.5492200
  C        2.7558540    -1.5738690     0.3292430
  C        3.5736970    -0.4590730     0.1432710
  H       -2.7010110     0.2771110    -1.7633110
  H       -3.3565410    -1.3799850    -1.5813290
  H       -3.1641810     1.0582560     1.8552750
  H       -2.5989570     1.7488760     0.3025170
  H       -1.4126900    -2.0099640    -0.1705650
  H       -0.8261290    -1.3544960    -1.7108330
  H       -0.6365290     1.0912410     1.6504410
  H       -1.2578930    -0.5558900     1.8421060
  H       -4.3648950     0.1725180    -0.0402120
  H       -3.5438220    -1.0118610     0.7575640
  H        0.7360800    -2.3037000     0.4086560
  H        3.6499200     1.6470780    -0.2894290
  H        0.2227830     2.2055990    -1.2916560
  H        0.5919240     2.7705950     0.3416580
  H        1.7859030     2.9697170    -0.9386560
  H        3.1912420    -2.5456860     0.5460090
  H        4.6540550    -0.5586080     0.2046590
units angstrom
no_reorient  #important for SAPT in psi4, default
symmetry c1  #important for SAPT in psi4, default
}

set PROPERTIES_ORIGIN ["COM"]
properties('MP2/aug-cc-pvtz', properties = ['dipole'])
--------------------------------------------------------------------------

    Molecular point group: c1
  Charge       = 1
  Multiplicity = 1
  Basis Set: AUG-CC-PVTZ
    Blend: AUG-CC-PVTZ
  Basis Set: (AUG-CC-PVTZ AUX)
    Blend: AUG-CC-PVTZ-JKFIT

    Orbital Energies [Eh]
    ---------------------

    Doubly Occupied:

       1A    -15.862456     2A    -15.692966     3A    -11.452476
       4A    -11.451928     5A    -11.412024     6A    -11.410566
       7A    -11.375065     8A    -11.343670     9A    -11.336605
      10A    -11.335893    11A    -11.334717    12A    -11.330549
      13A    -11.327792    14A     -1.492587    15A     -1.365252
      16A     -1.269533    17A     -1.216134    18A     -1.160688
      19A     -1.136919    20A     -1.088824    21A     -1.046052
      22A     -1.041533    23A     -0.987807    24A     -0.942026
      25A     -0.923268    26A     -0.903332    27A     -0.863020
      28A     -0.818884    29A     -0.803880    30A     -0.789270
      31A     -0.778611    32A     -0.757707    33A     -0.742211
      34A     -0.729080    35A     -0.715716    36A     -0.704727
      37A     -0.684595    38A     -0.679283    39A     -0.674943
      40A     -0.654262    41A     -0.650431    42A     -0.638105
      43A     -0.607998    44A     -0.601862    45A     -0.581995
      46A     -0.508264    47A     -0.443757    48A     -0.433887

  @DF-RHF Final Energy:  -535.28469893490899

   => Energetics <=

    Nuclear Repulsion Energy =            820.0948156767738055
    One-Electron Energy =               -2338.5527252334709374
    Two-Electron Energy =                 983.1732106217881437
    Total Energy =                       -535.2846989349089881
  Basis Set: (AUG-CC-PVTZ AUX)
    Blend: AUG-CC-PVTZ-RI
    Molecular point group: c1

    Geometry (in Angstrom), charge = 1, multiplicity = 1:

       Center              X                  Y                   Z               Mass
    ------------   -----------------  -----------------  -----------------  -----------------
         N           -3.479540476476    -0.172744082648     0.161384448973    14.003074004430
         N           -0.681231476476     0.001118917352    -0.127650551027    14.003074004430
         C           -2.797557476476    -0.595984082648    -1.120576551027    12.000000000000
         C           -2.686298476476     0.862282917352     0.927062448973    12.000000000000
         C           -1.399593476476    -1.081116082648    -0.781113551027    12.000000000000
         C           -1.286543476476     0.323078917352     1.158591448973    12.000000000000
         C            0.886336823524    -0.124094582648    -0.044877951027    12.000000000000
         C            1.558174523524     0.958629917352    -0.234866551027    12.000000000000
         C            1.310075523524    -1.424830082648     0.251054448973    12.000000000000
         C            2.944681523524     0.793879917352    -0.133179551027    12.000000000000
         C            0.959884523524     2.304154917352    -0.548107551027    12.000000000000
         C            2.696059523524    -1.564913082648     0.330355448973    12.000000000000
         C            3.513902523524    -0.450117082648     0.144383448973    12.000000000000
         H           -2.760805476476     0.286066917352    -1.762198551027     1.007825032230
         H           -3.416335476476    -1.371029082648    -1.580216551027     1.007825032230
         H           -3.223975476476     1.067211917352     1.856387448973     1.007825032230
         H           -2.658751476476     1.757831917352     0.303629448973     1.007825032230
         H           -1.472484476476    -2.001008082648    -0.169452551027     1.007825032230
         H           -0.885923476476    -1.345540082648    -1.709720551027     1.007825032230
         H           -0.696323476476     1.100196917352     1.651553448973     1.007825032230
         H           -1.317687476476    -0.546934082648     1.843218448973     1.007825032230
         H           -4.424689476476     0.181473917352    -0.039099551027     1.007825032230
         H           -3.603616476476    -1.002905082648     0.758676448973     1.007825032230
         H            0.676285523524    -2.294744082648     0.409768448973     1.007825032230
         H            3.590125523524     1.656033917352    -0.288316551027     1.007825032230
         H            0.162988523524     2.214554917352    -1.290543551027     1.007825032230
         H            0.532129523524     2.779550917352     0.342770448973     1.007825032230
         H            1.726108523524     2.978672917352    -0.937543551027     1.007825032230
         H            3.131447523524    -2.536730082648     0.547121448973     1.007825032230
         H            4.594260523524    -0.549652082648     0.205771448973     1.007825032230

  Basis Set: AUG-CC-PVTZ
    Blend: AUG-CC-PVTZ
  Basis Set: (AUG-CC-PVTZ AUX)
    Blend: AUG-CC-PVTZ-JKFIT
	 Reference Energy          =    -535.2846989349089881 [Eh]
	 Singles Energy            =      -0.0000000000000000 [Eh]
	 Same-Spin Energy          =      -0.5850389143621428 [Eh]
	 Opposite-Spin Energy      =      -1.9176459546437195 [Eh]
	 Correlation Energy        =      -2.5026848690058623 [Eh]
	 Total Energy              =    -537.7873838039148495 [Eh]

	 ================> DF-SCS-MP2 Energies <==================
	-----------------------------------------------------------
	 SCS Same-Spin Scale       =       0.3333333333333333 [-]
	 SCS Opposite-Spin Scale   =       1.2000000000000000 [-]
	 SCS Same-Spin Energy      =      -0.1950129714540476 [Eh]
	 SCS Opposite-Spin Energy  =      -2.3011751455724632 [Eh]
	 SCS Correlation Energy    =      -2.4961881170265108 [Eh]
	 SCS Total Energy          =    -537.7808870519354514 [Eh]
	-----------------------------------------------------------

  Dipole Moment: [D]
     X:   -11.5624      Y:    -0.6585      Z:     0.6958     Total:    11.6020

*** Psi4 exiting successfully. Buy a developer a beer!
