                               Psi4 1.4a3.dev225

  ==> Input File <==

--------------------------------------------------------------------------
#psi4
#
memory 32 gb

molecule  {
1 1
  N       -3.4197460    -0.1817000     0.1602720
  N       -0.6214370    -0.0078370    -0.1287630
  C       -2.7377630    -0.6049400    -1.1216890
  C       -2.6265040     0.8533270     0.9259500
  C       -1.3397990    -1.0900720    -0.7822260
  C       -1.2267490     0.3141230     1.1574790
  C        0.8091060    -0.1845140    -0.0397240
  C        1.6179690     0.9496740    -0.2359790
  C        1.3698700    -1.4337860     0.2499420
  C        3.0044760     0.7849240    -0.1342920
  C        1.0196790     2.2951990    -0.5492200
  C        2.7558540    -1.5738690     0.3292430
  C        3.5736970    -0.4590730     0.1432710
  H       -2.7010110     0.2771110    -1.7633110
  H       -3.3565410    -1.3799850    -1.5813290
  H       -3.1641810     1.0582560     1.8552750
  H       -2.5989570     1.7488760     0.3025170
  H       -1.4126900    -2.0099640    -0.1705650
  H       -0.8261290    -1.3544960    -1.7108330
  H       -0.6365290     1.0912410     1.6504410
  H       -1.2578930    -0.5558900     1.8421060
  H       -4.3648950     0.1725180    -0.0402120
  H       -3.5438220    -1.0118610     0.7575640
  H        0.7360800    -2.3037000     0.4086560
  H        3.6499200     1.6470780    -0.2894290
  H        0.2227830     2.2055990    -1.2916560
  H        0.5919240     2.7705950     0.3416580
  H        1.7859030     2.9697170    -0.9386560
  H        3.1912420    -2.5456860     0.5460090
  H        4.8528935    -0.5769273     0.2159574
units angstrom
no_reorient  #important for SAPT in psi4, default
symmetry c1  #important for SAPT in psi4, default
}

set PROPERTIES_ORIGIN ["COM"]
properties('MP2/aug-cc-pvtz', properties = ['dipole'])
--------------------------------------------------------------------------

    Molecular point group: c1
  Charge       = 1
  Multiplicity = 1
  Basis Set: AUG-CC-PVTZ
    Blend: AUG-CC-PVTZ
  Basis Set: (AUG-CC-PVTZ AUX)
    Blend: AUG-CC-PVTZ-JKFIT

    Orbital Energies [Eh]
    ---------------------

    Doubly Occupied:

       1A    -15.866950     2A    -15.703576     3A    -11.457157
       4A    -11.457117     5A    -11.417978     6A    -11.417681
       7A    -11.375888     8A    -11.349732     9A    -11.345698
      10A    -11.341512    11A    -11.333501    12A    -11.331318
      13A    -11.324338    14A     -1.497871    15A     -1.390785
      16A     -1.250466    17A     -1.222235    18A     -1.154750
      19A     -1.143615    20A     -1.085421    21A     -1.053910
      22A     -1.032773    23A     -0.995450    24A     -0.935183
      25A     -0.923268    26A     -0.899710    27A     -0.865657
      28A     -0.824087    29A     -0.810616    30A     -0.793715
      31A     -0.788905    32A     -0.746247    33A     -0.737755
      34A     -0.733454    35A     -0.714008    36A     -0.704629
      37A     -0.687783    38A     -0.675771    39A     -0.668242
      40A     -0.660401    41A     -0.650773    42A     -0.637420
      43A     -0.599449    44A     -0.589309    45A     -0.575054
      46A     -0.522245    47A     -0.434611    48A     -0.424487

  @DF-RHF Final Energy:  -535.28653694361356

   => Energetics <=

    Nuclear Repulsion Energy =            819.3206527115415838
    One-Electron Energy =               -2336.9093772242654268
    Two-Electron Energy =                 982.3021875691101741
    Total Energy =                       -535.2865369436135552
  Basis Set: (AUG-CC-PVTZ AUX)
    Blend: AUG-CC-PVTZ-RI
    Molecular point group: c1

    Geometry (in Angstrom), charge = 1, multiplicity = 1:

       Center              X                  Y                   Z               Mass
    ------------   -----------------  -----------------  -----------------  -----------------
         N           -3.471389206752    -0.169153546256     0.160895660363    14.003074004430
         N           -0.673080206752     0.004709453744    -0.128139339637    14.003074004430
         C           -2.789406206752    -0.592393546256    -1.121065339637    12.000000000000
         C           -2.678147206752     0.865873453744     0.926573660363    12.000000000000
         C           -1.391442206752    -1.077525546256    -0.781602339637    12.000000000000
         C           -1.278392206752     0.326669453744     1.158102660363    12.000000000000
         C            0.757462793248    -0.171967546256    -0.039100339637    12.000000000000
         C            1.566325793248     0.962220453744    -0.235355339637    12.000000000000
         C            1.318226793248    -1.421239546256     0.250565660363    12.000000000000
         C            2.952832793248     0.797470453744    -0.133668339637    12.000000000000
         C            0.968035793248     2.307745453744    -0.548596339637    12.000000000000
         C            2.704210793248    -1.561322546256     0.329866660363    12.000000000000
         C            3.522053793248    -0.446526546256     0.143894660363    12.000000000000
         H           -2.752654206752     0.289657453744    -1.762687339637     1.007825032230
         H           -3.408184206752    -1.367438546256    -1.580705339637     1.007825032230
         H           -3.215824206752     1.070802453744     1.855898660363     1.007825032230
         H           -2.650600206752     1.761422453744     0.303140660363     1.007825032230
         H           -1.464333206752    -1.997417546256    -0.169941339637     1.007825032230
         H           -0.877772206752    -1.341949546256    -1.710209339637     1.007825032230
         H           -0.688172206752     1.103787453744     1.651064660363     1.007825032230
         H           -1.309536206752    -0.543343546256     1.842729660363     1.007825032230
         H           -4.416538206752     0.185064453744    -0.039588339637     1.007825032230
         H           -3.595465206752    -0.999314546256     0.758187660363     1.007825032230
         H            0.684436793248    -2.291153546256     0.409279660363     1.007825032230
         H            3.598276793248     1.659624453744    -0.288805339637     1.007825032230
         H            0.171139793248     2.218145453744    -1.291032339637     1.007825032230
         H            0.540280793248     2.783141453744     0.342281660363     1.007825032230
         H            1.734259793248     2.982263453744    -0.938032339637     1.007825032230
         H            3.139598793248    -2.533139546256     0.546632660363     1.007825032230
         H            4.801250293248    -0.564380846256     0.216581060363     1.007825032230

  Basis Set: AUG-CC-PVTZ
    Blend: AUG-CC-PVTZ
  Basis Set: (AUG-CC-PVTZ AUX)
    Blend: AUG-CC-PVTZ-JKFIT
	 Reference Energy          =    -535.2865369436135552 [Eh]
	 Singles Energy            =      -0.0000000000000000 [Eh]
	 Same-Spin Energy          =      -0.5857976288954984 [Eh]
	 Opposite-Spin Energy      =      -1.9194194488318690 [Eh]
	 Correlation Energy        =      -2.5052170777273672 [Eh]
	 Total Energy              =    -537.7917540213409211 [Eh]

	 ================> DF-SCS-MP2 Energies <==================
	-----------------------------------------------------------
	 SCS Same-Spin Scale       =       0.3333333333333333 [-]
	 SCS Opposite-Spin Scale   =       1.2000000000000000 [-]
	 SCS Same-Spin Energy      =      -0.1952658762984995 [Eh]
	 SCS Opposite-Spin Energy  =      -2.3033033385982429 [Eh]
	 SCS Correlation Energy    =      -2.4985692148967424 [Eh]
	 SCS Total Energy          =    -537.7851061585103025 [Eh]
	-----------------------------------------------------------

  Dipole Moment: [D]
     X:   -12.1702      Y:    -0.6730      Z:     0.7273     Total:    12.2104

*** Psi4 exiting successfully. Buy a developer a beer!
