                               Psi4 1.4a3.dev225

  ==> Input File <==

--------------------------------------------------------------------------
#psi4
#
memory 32 gb

molecule  {
1 1
  N       -3.4197460    -0.1817000     0.1602720
  N       -0.6214370    -0.0078370    -0.1287630
  C       -2.7377630    -0.6049400    -1.1216890
  C       -2.6265040     0.8533270     0.9259500
  C       -1.3397990    -1.0900720    -0.7822260
  C       -1.2267490     0.3141230     1.1574790
  C        0.8091060    -0.1845140    -0.0397240
  C        1.6179690     0.9496740    -0.2359790
  C        1.3698700    -1.4337860     0.2499420
  C        3.0044760     0.7849240    -0.1342920
  C        1.0196790     2.2951990    -0.5492200
  C        2.7061879    -1.5688492     0.3264013
  C        3.5736970    -0.4590730     0.1432710
  H       -2.7010110     0.2771110    -1.7633110
  H       -3.3565410    -1.3799850    -1.5813290
  H       -3.1641810     1.0582560     1.8552750
  H       -2.5989570     1.7488760     0.3025170
  H       -1.4126900    -2.0099640    -0.1705650
  H       -0.8261290    -1.3544960    -1.7108330
  H       -0.6365290     1.0912410     1.6504410
  H       -1.2578930    -0.5558900     1.8421060
  H       -4.3648950     0.1725180    -0.0402120
  H       -3.5438220    -1.0118610     0.7575640
  H        0.7360800    -2.3037000     0.4086560
  H        3.6499200     1.6470780    -0.2894290
  H        0.2227830     2.2055990    -1.2916560
  H        0.5919240     2.7705950     0.3416580
  H        1.7859030     2.9697170    -0.9386560
  H        3.1912420    -2.5456860     0.5460090
  H        4.6540550    -0.5586080     0.2046590
units angstrom
no_reorient  #important for SAPT in psi4, default
symmetry c1  #important for SAPT in psi4, default
}

set PROPERTIES_ORIGIN ["COM"]
properties('MP2/aug-cc-pvtz', properties = ['dipole'])
--------------------------------------------------------------------------

    Molecular point group: c1
  Charge       = 1
  Multiplicity = 1
  Basis Set: AUG-CC-PVTZ
    Blend: AUG-CC-PVTZ
  Basis Set: (AUG-CC-PVTZ AUX)
    Blend: AUG-CC-PVTZ-JKFIT

    Orbital Energies [Eh]
    ---------------------

    Doubly Occupied:

       1A    -15.866614     2A    -15.702872     3A    -11.456826
       4A    -11.456726     5A    -11.417541     6A    -11.417147
       7A    -11.374437     8A    -11.344292     9A    -11.334671
      10A    -11.332173    11A    -11.330476    12A    -11.329000
      13A    -11.323551    14A     -1.497511    15A     -1.390179
      16A     -1.252386    17A     -1.221833    18A     -1.155255
      19A     -1.145776    20A     -1.089034    21A     -1.053479
      22A     -1.031772    23A     -0.995219    24A     -0.934972
      25A     -0.924526    26A     -0.902612    27A     -0.868143
      28A     -0.823710    29A     -0.809187    30A     -0.793645
      31A     -0.788382    32A     -0.756211    33A     -0.746021
      34A     -0.734636    35A     -0.713382    36A     -0.702125
      37A     -0.687743    38A     -0.675060    39A     -0.672887
      40A     -0.659973    41A     -0.653486    42A     -0.640816
      43A     -0.599256    44A     -0.592778    45A     -0.586902
      46A     -0.520807    47A     -0.438199    48A     -0.420875

  @DF-RHF Final Energy:  -535.30568793103544

   => Energetics <=

    Nuclear Repulsion Energy =            821.0304216463993043
    One-Electron Energy =               -2340.3420142872132601
    Two-Electron Energy =                 984.0059047097786333
    Total Energy =                       -535.3056879310354361
  Basis Set: (AUG-CC-PVTZ AUX)
    Blend: AUG-CC-PVTZ-RI
    Molecular point group: c1

    Geometry (in Angstrom), charge = 1, multiplicity = 1:

       Center              X                  Y                   Z               Mass
    ------------   -----------------  -----------------  -----------------  -----------------
         N           -3.466893376712    -0.169597831094     0.161152448342    14.003074004430
         N           -0.668584376712     0.004265168906    -0.127882551658    14.003074004430
         C           -2.784910376712    -0.592837831094    -1.120808551658    12.000000000000
         C           -2.673651376712     0.865429168906     0.926830448342    12.000000000000
         C           -1.386946376712    -1.077969831094    -0.781345551658    12.000000000000
         C           -1.273896376712     0.326225168906     1.158359448342    12.000000000000
         C            0.761958623288    -0.172411831094    -0.038843551658    12.000000000000
         C            1.570821623288     0.961776168906    -0.235098551658    12.000000000000
         C            1.322722623288    -1.421683831094     0.250822448342    12.000000000000
         C            2.957328623288     0.797026168906    -0.133411551658    12.000000000000
         C            0.972531623288     2.307301168906    -0.548339551658    12.000000000000
         C            2.659040523288    -1.556747031094     0.327281748342    12.000000000000
         C            3.526549623288    -0.446970831094     0.144151448342    12.000000000000
         H           -2.748158376712     0.289213168906    -1.762430551658     1.007825032230
         H           -3.403688376712    -1.367882831094    -1.580448551658     1.007825032230
         H           -3.211328376712     1.070358168906     1.856155448342     1.007825032230
         H           -2.646104376712     1.760978168906     0.303397448342     1.007825032230
         H           -1.459837376712    -1.997861831094    -0.169684551658     1.007825032230
         H           -0.873276376712    -1.342393831094    -1.709952551658     1.007825032230
         H           -0.683676376712     1.103343168906     1.651321448342     1.007825032230
         H           -1.305040376712    -0.543787831094     1.842986448342     1.007825032230
         H           -4.412042376712     0.184620168906    -0.039331551658     1.007825032230
         H           -3.590969376712    -0.999758831094     0.758444448342     1.007825032230
         H            0.688932623288    -2.291597831094     0.409536448342     1.007825032230
         H            3.602772623288     1.659180168906    -0.288548551658     1.007825032230
         H            0.175635623288     2.217701168906    -1.290775551658     1.007825032230
         H            0.544776623288     2.782697168906     0.342538448342     1.007825032230
         H            1.738755623288     2.981819168906    -0.937775551658     1.007825032230
         H            3.144094623288    -2.533583831094     0.546889448342     1.007825032230
         H            4.606907623288    -0.546505831094     0.205539448342     1.007825032230

  Basis Set: AUG-CC-PVTZ
    Blend: AUG-CC-PVTZ
  Basis Set: (AUG-CC-PVTZ AUX)
    Blend: AUG-CC-PVTZ-JKFIT
	 Reference Energy          =    -535.3056879310354361 [Eh]
	 Singles Energy            =      -0.0000000000000000 [Eh]
	 Same-Spin Energy          =      -0.5853267515151431 [Eh]
	 Opposite-Spin Energy      =      -1.9172288376616995 [Eh]
	 Correlation Energy        =      -2.5025555891768425 [Eh]
	 Total Energy              =    -537.8082435202122724 [Eh]

	 ================> DF-SCS-MP2 Energies <==================
	-----------------------------------------------------------
	 SCS Same-Spin Scale       =       0.3333333333333333 [-]
	 SCS Opposite-Spin Scale   =       1.2000000000000000 [-]
	 SCS Same-Spin Energy      =      -0.1951089171717144 [Eh]
	 SCS Opposite-Spin Energy  =      -2.3006746051940392 [Eh]
	 SCS Correlation Energy    =      -2.4957835223657536 [Eh]
	 SCS Total Energy          =    -537.8014714534011773 [Eh]
	-----------------------------------------------------------

  Dipole Moment: [D]
     X:   -12.0846      Y:    -0.6756      Z:     0.7306     Total:    12.1255

*** Psi4 exiting successfully. Buy a developer a beer!
