                               Psi4 1.4a3.dev225

  ==> Input File <==

--------------------------------------------------------------------------
#psi4
#
memory 32 gb

molecule  {
1 1
  N       -3.4197460    -0.1817000     0.1602720
  N       -0.6214370    -0.0078370    -0.1287630
  C       -2.7377630    -0.6049400    -1.1216890
  C       -2.6265040     0.8533270     0.9259500
  C       -1.3397990    -1.0900720    -0.7822260
  C       -1.2267490     0.3141230     1.1574790
  C        0.8091060    -0.1845140    -0.0397240
  C        1.6179690     0.9496740    -0.2359790
  C        1.3698700    -1.4337860     0.2499420
  C        3.0044760     0.7849240    -0.1342920
  C        1.0196790     2.2951990    -0.5492200
  C        2.7558540    -1.5738690     0.3292430
  C        3.5736970    -0.4590730     0.1432710
  H       -2.7010110     0.2771110    -1.7633110
  H       -3.3565410    -1.3799850    -1.5813290
  H       -3.1641810     1.0582560     1.8552750
  H       -2.5989570     1.7488760     0.3025170
  H       -1.4126900    -2.0099640    -0.1705650
  H       -0.8261290    -1.3544960    -1.7108330
  H       -0.6365290     1.0912410     1.6504410
  H       -1.2578930    -0.5558900     1.8421060
  H       -4.3648950     0.1725180    -0.0402120
  H       -3.5438220    -1.0118610     0.7575640
  H        0.6778244    -2.3836592     0.4232444
  H        3.6499200     1.6470780    -0.2894290
  H        0.2227830     2.2055990    -1.2916560
  H        0.5919240     2.7705950     0.3416580
  H        1.7859030     2.9697170    -0.9386560
  H        3.1912420    -2.5456860     0.5460090
  H        4.6540550    -0.5586080     0.2046590
units angstrom
no_reorient  #important for SAPT in psi4, default
symmetry c1  #important for SAPT in psi4, default
}

set PROPERTIES_ORIGIN ["COM"]
properties('MP2/aug-cc-pvtz', properties = ['dipole'])
--------------------------------------------------------------------------

    Molecular point group: c1
  Charge       = 1
  Multiplicity = 1
  Basis Set: AUG-CC-PVTZ
    Blend: AUG-CC-PVTZ
  Basis Set: (AUG-CC-PVTZ AUX)
    Blend: AUG-CC-PVTZ-JKFIT

    Orbital Energies [Eh]
    ---------------------

    Doubly Occupied:

       1A    -15.866444     2A    -15.703066     3A    -11.456664
       4A    -11.456500     5A    -11.417125     6A    -11.417060
       7A    -11.376342     8A    -11.351524     9A    -11.345231
      10A    -11.332948    11A    -11.330544    12A    -11.329353
      13A    -11.324035    14A     -1.497345    15A     -1.390133
      16A     -1.250225    17A     -1.221627    18A     -1.155907
      19A     -1.141552    20A     -1.086779    21A     -1.053274
      22A     -1.032385    23A     -0.995656    24A     -0.933770
      25A     -0.922544    26A     -0.901851    27A     -0.867165
      28A     -0.823496    29A     -0.810030    30A     -0.792245
      31A     -0.788346    32A     -0.749153    33A     -0.744738
      34A     -0.734448    35A     -0.712282    36A     -0.700543
      37A     -0.687328    38A     -0.675562    39A     -0.666893
      40A     -0.659562    41A     -0.654460    42A     -0.640843
      43A     -0.599876    44A     -0.589907    45A     -0.587417
      46A     -0.521567    47A     -0.434195    48A     -0.424204

  @DF-RHF Final Energy:  -535.30133158640717

   => Energetics <=

    Nuclear Repulsion Energy =            819.8176982294809250
    One-Electron Energy =               -2337.9297733201524352
    Two-Electron Energy =                 982.8107435042644511
    Total Energy =                       -535.3013315864071728
  Basis Set: (AUG-CC-PVTZ AUX)
    Blend: AUG-CC-PVTZ-RI
    Molecular point group: c1

    Geometry (in Angstrom), charge = 1, multiplicity = 1:

       Center              X                  Y                   Z               Mass
    ------------   -----------------  -----------------  -----------------  -----------------
         N           -3.469926481910    -0.168802848932     0.160876942062    14.003074004430
         N           -0.671617481910     0.005060151068    -0.128158057938    14.003074004430
         C           -2.787943481910    -0.592042848932    -1.121084057938    12.000000000000
         C           -2.676684481910     0.866224151068     0.926554942062    12.000000000000
         C           -1.389979481910    -1.077174848932    -0.781621057938    12.000000000000
         C           -1.276929481910     0.327020151068     1.158083942062    12.000000000000
         C            0.758925518090    -0.171616848932    -0.039119057938    12.000000000000
         C            1.567788518090     0.962571151068    -0.235374057938    12.000000000000
         C            1.319689518090    -1.420888848932     0.250546942062    12.000000000000
         C            2.954295518090     0.797821151068    -0.133687057938    12.000000000000
         C            0.969498518090     2.308096151068    -0.548615057938    12.000000000000
         C            2.705673518090    -1.560971848932     0.329847942062    12.000000000000
         C            3.523516518090    -0.446175848932     0.143875942062    12.000000000000
         H           -2.751191481910     0.290008151068    -1.762706057938     1.007825032230
         H           -3.406721481910    -1.367087848932    -1.580724057938     1.007825032230
         H           -3.214361481910     1.071153151068     1.855879942062     1.007825032230
         H           -2.649137481910     1.761773151068     0.303121942062     1.007825032230
         H           -1.462870481910    -1.997066848932    -0.169960057938     1.007825032230
         H           -0.876309481910    -1.341598848932    -1.710228057938     1.007825032230
         H           -0.686709481910     1.104138151068     1.651045942062     1.007825032230
         H           -1.308073481910    -0.542992848932     1.842710942062     1.007825032230
         H           -4.415075481910     0.185415151068    -0.039607057938     1.007825032230
         H           -3.594002481910    -0.998963848932     0.758168942062     1.007825032230
         H            0.627643918090    -2.370762048932     0.423849342062     1.007825032230
         H            3.599739518090     1.659975151068    -0.288824057938     1.007825032230
         H            0.172602518090     2.218496151068    -1.291051057938     1.007825032230
         H            0.541743518090     2.783492151068     0.342262942062     1.007825032230
         H            1.735722518090     2.982614151068    -0.938051057938     1.007825032230
         H            3.141061518090    -2.532788848932     0.546613942062     1.007825032230
         H            4.603874518090    -0.545710848932     0.205263942062     1.007825032230

  Basis Set: AUG-CC-PVTZ
    Blend: AUG-CC-PVTZ
  Basis Set: (AUG-CC-PVTZ AUX)
    Blend: AUG-CC-PVTZ-JKFIT
	 Reference Energy          =    -535.3013315864071728 [Eh]
	 Singles Energy            =      -0.0000000000000000 [Eh]
	 Same-Spin Energy          =      -0.5856297604173683 [Eh]
	 Opposite-Spin Energy      =      -1.9181871189044786 [Eh]
	 Correlation Energy        =      -2.5038168793218469 [Eh]
	 Total Energy              =    -537.8051484657290757 [Eh]

	 ================> DF-SCS-MP2 Energies <==================
	-----------------------------------------------------------
	 SCS Same-Spin Scale       =       0.3333333333333333 [-]
	 SCS Opposite-Spin Scale   =       1.2000000000000000 [-]
	 SCS Same-Spin Energy      =      -0.1952099201391228 [Eh]
	 SCS Opposite-Spin Energy  =      -2.3018245426853743 [Eh]
	 SCS Correlation Energy    =      -2.4970344628244971 [Eh]
	 SCS Total Energy          =    -537.7983660492316176 [Eh]
	-----------------------------------------------------------

  Dipole Moment: [D]
     X:   -12.0675      Y:    -0.6538      Z:     0.7285     Total:    12.1071

*** Psi4 exiting successfully. Buy a developer a beer!
