                               Psi4 1.4a3.dev225

  ==> Input File <==

--------------------------------------------------------------------------
#psi4
#
memory 32 gb

molecule  {
1 1
  N       -3.4197460    -0.1817000     0.1602720
  N       -0.6214370    -0.0078370    -0.1287630
  C       -2.7377630    -0.6049400    -1.1216890
  C       -2.6265040     0.8533270     0.9259500
  C       -1.3397990    -1.0900720    -0.7822260
  C       -1.2267490     0.3141230     1.1574790
  C        0.8091060    -0.1845140    -0.0397240
  C        1.6179690     0.9496740    -0.2359790
  C        1.3698700    -1.4337860     0.2499420
  C        3.0044760     0.7849240    -0.1342920
  C        1.0196790     2.2951990    -0.5492200
  C        2.7558540    -1.5738690     0.3292430
  C        3.5736970    -0.4590730     0.1432710
  H       -2.7010110     0.2771110    -1.7633110
  H       -3.3565410    -1.3799850    -1.5813290
  H       -3.1740192     1.0620057     1.8722794
  H       -2.5989570     1.7488760     0.3025170
  H       -1.4126900    -2.0099640    -0.1705650
  H       -0.8261290    -1.3544960    -1.7108330
  H       -0.6365290     1.0912410     1.6504410
  H       -1.2578930    -0.5558900     1.8421060
  H       -4.3648950     0.1725180    -0.0402120
  H       -3.5438220    -1.0118610     0.7575640
  H        0.7360800    -2.3037000     0.4086560
  H        3.6499200     1.6470780    -0.2894290
  H        0.2227830     2.2055990    -1.2916560
  H        0.5919240     2.7705950     0.3416580
  H        1.7859030     2.9697170    -0.9386560
  H        3.1912420    -2.5456860     0.5460090
  H        4.6540550    -0.5586080     0.2046590
units angstrom
no_reorient  #important for SAPT in psi4, default
symmetry c1  #important for SAPT in psi4, default
}

set PROPERTIES_ORIGIN ["COM"]
properties('MP2/aug-cc-pvtz', properties = ['dipole'])
--------------------------------------------------------------------------

    Molecular point group: c1
  Charge       = 1
  Multiplicity = 1
  Basis Set: AUG-CC-PVTZ
    Blend: AUG-CC-PVTZ
  Basis Set: (AUG-CC-PVTZ AUX)
    Blend: AUG-CC-PVTZ-JKFIT

    Orbital Energies [Eh]
    ---------------------

    Doubly Occupied:

       1A    -15.866731     2A    -15.703155     3A    -11.458895
       4A    -11.456866     5A    -11.417597     6A    -11.417361
       7A    -11.375226     8A    -11.344430     9A    -11.340233
      10A    -11.331842    11A    -11.329919    12A    -11.328650
      13A    -11.323609    14A     -1.497506    15A     -1.390337
      16A     -1.249961    17A     -1.221209    18A     -1.155447
      19A     -1.142636    20A     -1.087854    21A     -1.052917
      22A     -1.031976    23A     -0.996096    24A     -0.935507
      25A     -0.923884    26A     -0.903209    27A     -0.866481
      28A     -0.823772    29A     -0.810169    30A     -0.792771
      31A     -0.788365    32A     -0.755036    33A     -0.743921
      34A     -0.733929    35A     -0.714652    36A     -0.704249
      37A     -0.687575    38A     -0.675219    39A     -0.669531
      40A     -0.659730    41A     -0.655509    42A     -0.640508
      43A     -0.599982    44A     -0.591707    45A     -0.588101
      46A     -0.521723    47A     -0.433594    48A     -0.423528

  @DF-RHF Final Energy:  -535.30827537218863

   => Energetics <=

    Nuclear Repulsion Energy =            820.1818349429898944
    One-Electron Energy =               -2338.6540077502531858
    Two-Electron Energy =                 983.1638974350745457
    Total Energy =                       -535.3082753721886320
  Basis Set: (AUG-CC-PVTZ AUX)
    Blend: AUG-CC-PVTZ-RI
    Molecular point group: c1

    Geometry (in Angstrom), charge = 1, multiplicity = 1:

       Center              X                  Y                   Z               Mass
    ------------   -----------------  -----------------  -----------------  -----------------
         N           -3.470201950440    -0.169279106798     0.160863196344    14.003074004430
         N           -0.671892950440     0.004583893202    -0.128171803656    14.003074004430
         C           -2.788218950440    -0.592519106798    -1.121097803656    12.000000000000
         C           -2.676959950440     0.865747893202     0.926541196344    12.000000000000
         C           -1.390254950440    -1.077651106798    -0.781634803656    12.000000000000
         C           -1.277204950440     0.326543893202     1.158070196344    12.000000000000
         C            0.758650049560    -0.172093106798    -0.039132803656    12.000000000000
         C            1.567513049560     0.962094893202    -0.235387803656    12.000000000000
         C            1.319414049560    -1.421365106798     0.250533196344    12.000000000000
         C            2.954020049560     0.797344893202    -0.133700803656    12.000000000000
         C            0.969223049560     2.307619893202    -0.548628803656    12.000000000000
         C            2.705398049560    -1.561448106798     0.329834196344    12.000000000000
         C            3.523241049560    -0.446652106798     0.143862196344    12.000000000000
         H           -2.751466950440     0.289531893202    -1.762719803656     1.007825032230
         H           -3.406996950440    -1.367564106798    -1.580737803656     1.007825032230
         H           -3.224475150440     1.074426593202     1.872870596344     1.007825032230
         H           -2.649412950440     1.761296893202     0.303108196344     1.007825032230
         H           -1.463145950440    -1.997543106798    -0.169973803656     1.007825032230
         H           -0.876584950440    -1.342075106798    -1.710241803656     1.007825032230
         H           -0.686984950440     1.103661893202     1.651032196344     1.007825032230
         H           -1.308348950440    -0.543469106798     1.842697196344     1.007825032230
         H           -4.415350950440     0.184938893202    -0.039620803656     1.007825032230
         H           -3.594277950440    -0.999440106798     0.758155196344     1.007825032230
         H            0.685624049560    -2.291279106798     0.409247196344     1.007825032230
         H            3.599464049560     1.659498893202    -0.288837803656     1.007825032230
         H            0.172327049560     2.218019893202    -1.291064803656     1.007825032230
         H            0.541468049560     2.783015893202     0.342249196344     1.007825032230
         H            1.735447049560     2.982137893202    -0.938064803656     1.007825032230
         H            3.140786049560    -2.533265106798     0.546600196344     1.007825032230
         H            4.603599049560    -0.546187106798     0.205250196344     1.007825032230

  Basis Set: AUG-CC-PVTZ
    Blend: AUG-CC-PVTZ
  Basis Set: (AUG-CC-PVTZ AUX)
    Blend: AUG-CC-PVTZ-JKFIT
	 Reference Energy          =    -535.3082753721886320 [Eh]
	 Singles Energy            =      -0.0000000000000000 [Eh]
	 Same-Spin Energy          =      -0.5853281558854357 [Eh]
	 Opposite-Spin Energy      =      -1.9173173024846319 [Eh]
	 Correlation Energy        =      -2.5026454583700675 [Eh]
	 Total Energy              =    -537.8109208305586435 [Eh]

	 ================> DF-SCS-MP2 Energies <==================
	-----------------------------------------------------------
	 SCS Same-Spin Scale       =       0.3333333333333333 [-]
	 SCS Opposite-Spin Scale   =       1.2000000000000000 [-]
	 SCS Same-Spin Energy      =      -0.1951093852951452 [Eh]
	 SCS Opposite-Spin Energy  =      -2.3007807629815584 [Eh]
	 SCS Correlation Energy    =      -2.4958901482767035 [Eh]
	 SCS Total Energy          =    -537.8041655204652898 [Eh]
	-----------------------------------------------------------

  Dipole Moment: [D]
     X:   -12.1031      Y:    -0.6861      Z:     0.7321     Total:    12.1447

*** Psi4 exiting successfully. Buy a developer a beer!
