                               Psi4 1.4a3.dev225

  ==> Input File <==

--------------------------------------------------------------------------
#psi4
#
memory 32 gb

molecule  {
1 1
  N       -3.4197460    -0.1817000     0.1602720
  N       -0.6214370    -0.0078370    -0.1287630
  C       -2.7377630    -0.6049400    -1.1216890
  C       -2.6265040     0.8533270     0.9259500
  C       -1.3397990    -1.0900720    -0.7822260
  C       -1.2267490     0.3141230     1.1574790
  C        0.6782245    -0.2496647    -0.0302840
  C        1.6179690     0.9496740    -0.2359790
  C        1.3698700    -1.4337860     0.2499420
  C        3.0044760     0.7849240    -0.1342920
  C        1.0196790     2.2951990    -0.5492200
  C        2.7558540    -1.5738690     0.3292430
  C        3.5736970    -0.4590730     0.1432710
  H       -2.7010110     0.2771110    -1.7633110
  H       -3.3565410    -1.3799850    -1.5813290
  H       -3.1641810     1.0582560     1.8552750
  H       -2.5989570     1.7488760     0.3025170
  H       -1.4126900    -2.0099640    -0.1705650
  H       -0.8261290    -1.3544960    -1.7108330
  H       -0.6365290     1.0912410     1.6504410
  H       -1.2578930    -0.5558900     1.8421060
  H       -4.3648950     0.1725180    -0.0402120
  H       -3.5438220    -1.0118610     0.7575640
  H        0.7360800    -2.3037000     0.4086560
  H        3.6499200     1.6470780    -0.2894290
  H        0.2227830     2.2055990    -1.2916560
  H        0.5919240     2.7705950     0.3416580
  H        1.7859030     2.9697170    -0.9386560
  H        3.1912420    -2.5456860     0.5460090
  H        4.6540550    -0.5586080     0.2046590
units angstrom
no_reorient  #important for SAPT in psi4, default
symmetry c1  #important for SAPT in psi4, default
}

set PROPERTIES_ORIGIN ["COM"]
properties('MP2/aug-cc-pvtz', properties = ['dipole'])
--------------------------------------------------------------------------

    Molecular point group: c1
  Charge       = 1
  Multiplicity = 1
  Basis Set: AUG-CC-PVTZ
    Blend: AUG-CC-PVTZ
  Basis Set: (AUG-CC-PVTZ AUX)
    Blend: AUG-CC-PVTZ-JKFIT

    Orbital Energies [Eh]
    ---------------------

    Doubly Occupied:

       1A    -15.870446     2A    -15.709293     3A    -11.461282
       4A    -11.460505     5A    -11.423996     6A    -11.422406
       7A    -11.378069     8A    -11.350662     9A    -11.338787
      10A    -11.328374    11A    -11.327159    12A    -11.324506
      13A    -11.320747    14A     -1.502722    15A     -1.423269
      16A     -1.235623    17A     -1.227369    18A     -1.166895
      19A     -1.137078    20A     -1.086416    21A     -1.061242
      22A     -1.027498    23A     -1.003204    24A     -0.938789
      25A     -0.927257    26A     -0.895561    27A     -0.867831
      28A     -0.828387    29A     -0.821663    30A     -0.799925
      31A     -0.799136    32A     -0.756811    33A     -0.743796
      34A     -0.738889    35A     -0.712116    36A     -0.702613
      37A     -0.692821    38A     -0.672320    39A     -0.670706
      40A     -0.665046    41A     -0.661643    42A     -0.636167
      43A     -0.601662    44A     -0.589347    45A     -0.574855
      46A     -0.519626    47A     -0.433772    48A     -0.405163

  @DF-RHF Final Energy:  -535.28109630437666

   => Energetics <=

    Nuclear Repulsion Energy =            820.8060263323683330
    One-Electron Energy =               -2339.6873443127510654
    Two-Electron Energy =                 983.6002216760061856
    Total Energy =                       -535.2810963043766606
  Basis Set: (AUG-CC-PVTZ AUX)
    Blend: AUG-CC-PVTZ-RI
    Molecular point group: c1

    Geometry (in Angstrom), charge = 1, multiplicity = 1:

       Center              X                  Y                   Z               Mass
    ------------   -----------------  -----------------  -----------------  -----------------
         N           -3.461391573918    -0.164844246762     0.160320444912    14.003074004430
         N           -0.663082573918     0.009018753238    -0.128714555088    14.003074004430
         C           -2.779408573918    -0.588084246762    -1.121640555088    12.000000000000
         C           -2.668149573918     0.870182753238     0.925998444912    12.000000000000
         C           -1.381444573918    -1.073216246762    -0.782177555088    12.000000000000
         C           -1.268394573918     0.330978753238     1.157527444912    12.000000000000
         C            0.636578926082    -0.232808946762    -0.030235555088    12.000000000000
         C            1.576323426082     0.966529753238    -0.235930555088    12.000000000000
         C            1.328224426082    -1.416930246762     0.249990444912    12.000000000000
         C            2.962830426082     0.801779753238    -0.134243555088    12.000000000000
         C            0.978033426082     2.312054753238    -0.549171555088    12.000000000000
         C            2.714208426082    -1.557013246762     0.329291444912    12.000000000000
         C            3.532051426082    -0.442217246762     0.143319444912    12.000000000000
         H           -2.742656573918     0.293966753238    -1.763262555088     1.007825032230
         H           -3.398186573918    -1.363129246762    -1.581280555088     1.007825032230
         H           -3.205826573918     1.075111753238     1.855323444912     1.007825032230
         H           -2.640602573918     1.765731753238     0.302565444912     1.007825032230
         H           -1.454335573918    -1.993108246762    -0.170516555088     1.007825032230
         H           -0.867774573918    -1.337640246762    -1.710784555088     1.007825032230
         H           -0.678174573918     1.108096753238     1.650489444912     1.007825032230
         H           -1.299538573918    -0.539034246762     1.842154444912     1.007825032230
         H           -4.406540573918     0.189373753238    -0.040163555088     1.007825032230
         H           -3.585467573918    -0.995005246762     0.757612444912     1.007825032230
         H            0.694434426082    -2.286844246762     0.408704444912     1.007825032230
         H            3.608274426082     1.663933753238    -0.289380555088     1.007825032230
         H            0.181137426082     2.222454753238    -1.291607555088     1.007825032230
         H            0.550278426082     2.787450753238     0.341706444912     1.007825032230
         H            1.744257426082     2.986572753238    -0.938607555088     1.007825032230
         H            3.149596426082    -2.528830246762     0.546057444912     1.007825032230
         H            4.612409426082    -0.541752246762     0.204707444912     1.007825032230

  Basis Set: AUG-CC-PVTZ
    Blend: AUG-CC-PVTZ
  Basis Set: (AUG-CC-PVTZ AUX)
    Blend: AUG-CC-PVTZ-JKFIT
	 Reference Energy          =    -535.2810963043766606 [Eh]
	 Singles Energy            =      -0.0000000000000000 [Eh]
	 Same-Spin Energy          =      -0.5870682598231460 [Eh]
	 Opposite-Spin Energy      =      -1.9200829992790081 [Eh]
	 Correlation Energy        =      -2.5071512591021543 [Eh]
	 Total Energy              =    -537.7882475634787625 [Eh]

	 ================> DF-SCS-MP2 Energies <==================
	-----------------------------------------------------------
	 SCS Same-Spin Scale       =       0.3333333333333333 [-]
	 SCS Opposite-Spin Scale   =       1.2000000000000000 [-]
	 SCS Same-Spin Energy      =      -0.1956894199410487 [Eh]
	 SCS Opposite-Spin Energy  =      -2.3040995991348097 [Eh]
	 SCS Correlation Energy    =      -2.4997890190758585 [Eh]
	 SCS Total Energy          =    -537.7808853234524804 [Eh]
	-----------------------------------------------------------

  Dipole Moment: [D]
     X:   -12.6251      Y:    -0.6824      Z:     0.7700     Total:    12.6670

*** Psi4 exiting successfully. Buy a developer a beer!
