                               Psi4 1.4a3.dev225

  ==> Input File <==

--------------------------------------------------------------------------
#psi4
#
memory 32 gb

molecule  {
1 1
  N       -3.4359482    -0.0729474     0.0464091
  N       -0.6214370    -0.0078370    -0.1287630
  C       -2.7377630    -0.6049400    -1.1216890
  C       -2.6265040     0.8533270     0.9259500
  C       -1.3397990    -1.0900720    -0.7822260
  C       -1.2267490     0.3141230     1.1574790
  C        0.8091060    -0.1845140    -0.0397240
  C        1.6179690     0.9496740    -0.2359790
  C        1.3698700    -1.4337860     0.2499420
  C        3.0044760     0.7849240    -0.1342920
  C        1.0196790     2.2951990    -0.5492200
  C        2.7558540    -1.5738690     0.3292430
  C        3.5736970    -0.4590730     0.1432710
  H       -2.7010110     0.2771110    -1.7633110
  H       -3.3565410    -1.3799850    -1.5813290
  H       -3.1641810     1.0582560     1.8552750
  H       -2.5989570     1.7488760     0.3025170
  H       -1.4126900    -2.0099640    -0.1705650
  H       -0.8261290    -1.3544960    -1.7108330
  H       -0.6365290     1.0912410     1.6504410
  H       -1.2578930    -0.5558900     1.8421060
  H       -4.3648950     0.1725180    -0.0402120
  H       -3.5438220    -1.0118610     0.7575640
  H        0.7360800    -2.3037000     0.4086560
  H        3.6499200     1.6470780    -0.2894290
  H        0.2227830     2.2055990    -1.2916560
  H        0.5919240     2.7705950     0.3416580
  H        1.7859030     2.9697170    -0.9386560
  H        3.1912420    -2.5456860     0.5460090
  H        4.6540550    -0.5586080     0.2046590
units angstrom
no_reorient  #important for SAPT in psi4, default
symmetry c1  #important for SAPT in psi4, default
}

set PROPERTIES_ORIGIN ["COM"]
properties('MP2/aug-cc-pvtz', properties = ['dipole'])
--------------------------------------------------------------------------

    Molecular point group: c1
  Charge       = 1
  Multiplicity = 1
  Basis Set: AUG-CC-PVTZ
    Blend: AUG-CC-PVTZ
  Basis Set: (AUG-CC-PVTZ AUX)
    Blend: AUG-CC-PVTZ-JKFIT

    Orbital Energies [Eh]
    ---------------------

    Doubly Occupied:

       1A    -15.872269     2A    -15.704073     3A    -11.458462
       4A    -11.452912     5A    -11.419896     6A    -11.419377
       7A    -11.375635     8A    -11.344808     9A    -11.340678
      10A    -11.332193    11A    -11.330256    12A    -11.329009
      13A    -11.323674    14A     -1.501823    15A     -1.391637
      16A     -1.250505    17A     -1.225420    18A     -1.157241
      19A     -1.143435    20A     -1.088821    21A     -1.061540
      22A     -1.031826    23A     -0.984830    24A     -0.944699
      25A     -0.925515    26A     -0.903819    27A     -0.860422
      28A     -0.816139    29A     -0.808317    30A     -0.801824
      31A     -0.791394    32A     -0.757558    33A     -0.742961
      34A     -0.731401    35A     -0.713487    36A     -0.691325
      37A     -0.685983    38A     -0.675264    39A     -0.670738
      40A     -0.661602    41A     -0.657730    42A     -0.640703
      43A     -0.600296    44A     -0.592291    45A     -0.588477
      46A     -0.522431    47A     -0.434015    48A     -0.423923

  @DF-RHF Final Energy:  -535.27830612647449

   => Energetics <=

    Nuclear Repulsion Energy =            820.4212649589591138
    One-Electron Energy =               -2339.0338666986558565
    Two-Electron Energy =                 983.3342956132223662
    Total Energy =                       -535.2783061264744902
  Basis Set: (AUG-CC-PVTZ AUX)
    Blend: AUG-CC-PVTZ-RI
    Molecular point group: c1

    Geometry (in Angstrom), charge = 1, multiplicity = 1:

       Center              X                  Y                   Z               Mass
    ------------   -----------------  -----------------  -----------------  -----------------
         N           -3.485179320172    -0.069102202585     0.056098047240    14.003074004430
         N           -0.670668120172    -0.003991802585    -0.119074052760    14.003074004430
         C           -2.786994120172    -0.601094802585    -1.112000052760    12.000000000000
         C           -2.675735120172     0.857172197415     0.935638947240    12.000000000000
         C           -1.389030120172    -1.086226802585    -0.772537052760    12.000000000000
         C           -1.275980120172     0.317968197415     1.167167947240    12.000000000000
         C            0.759874879828    -0.180668802585    -0.030035052760    12.000000000000
         C            1.568737879828     0.953519197415    -0.226290052760    12.000000000000
         C            1.320638879828    -1.429940802585     0.259630947240    12.000000000000
         C            2.955244879828     0.788769197415    -0.124603052760    12.000000000000
         C            0.970447879828     2.299044197415    -0.539531052760    12.000000000000
         C            2.706622879828    -1.570023802585     0.338931947240    12.000000000000
         C            3.524465879828    -0.455227802585     0.152959947240    12.000000000000
         H           -2.750242120172     0.280956197415    -1.753622052760     1.007825032230
         H           -3.405772120172    -1.376139802585    -1.571640052760     1.007825032230
         H           -3.213412120172     1.062101197415     1.864963947240     1.007825032230
         H           -2.648188120172     1.752721197415     0.312205947240     1.007825032230
         H           -1.461921120172    -2.006118802585    -0.160876052760     1.007825032230
         H           -0.875360120172    -1.350650802585    -1.701144052760     1.007825032230
         H           -0.685760120172     1.095086197415     1.660129947240     1.007825032230
         H           -1.307124120172    -0.552044802585     1.851794947240     1.007825032230
         H           -4.414126120172     0.176363197415    -0.030523052760     1.007825032230
         H           -3.593053120172    -1.008015802585     0.767252947240     1.007825032230
         H            0.686848879828    -2.299854802585     0.418344947240     1.007825032230
         H            3.600688879828     1.650923197415    -0.279740052760     1.007825032230
         H            0.173551879828     2.209444197415    -1.281967052760     1.007825032230
         H            0.542692879828     2.774440197415     0.351346947240     1.007825032230
         H            1.736671879828     2.973562197415    -0.928967052760     1.007825032230
         H            3.142010879828    -2.541840802585     0.555697947240     1.007825032230
         H            4.604823879828    -0.554762802585     0.214347947240     1.007825032230

  Basis Set: AUG-CC-PVTZ
    Blend: AUG-CC-PVTZ
  Basis Set: (AUG-CC-PVTZ AUX)
    Blend: AUG-CC-PVTZ-JKFIT
	 Reference Energy          =    -535.2783061264744902 [Eh]
	 Singles Energy            =      -0.0000000000000000 [Eh]
	 Same-Spin Energy          =      -0.5867295283293896 [Eh]
	 Opposite-Spin Energy      =      -1.9200277698782546 [Eh]
	 Correlation Energy        =      -2.5067572982076443 [Eh]
	 Total Energy              =    -537.7850634246821073 [Eh]

	 ================> DF-SCS-MP2 Energies <==================
	-----------------------------------------------------------
	 SCS Same-Spin Scale       =       0.3333333333333333 [-]
	 SCS Opposite-Spin Scale   =       1.2000000000000000 [-]
	 SCS Same-Spin Energy      =      -0.1955765094431299 [Eh]
	 SCS Opposite-Spin Energy  =      -2.3040333238539055 [Eh]
	 SCS Correlation Energy    =      -2.4996098332970353 [Eh]
	 SCS Total Energy          =    -537.7779159597715761 [Eh]
	-----------------------------------------------------------

  Dipole Moment: [D]
     X:   -12.0251      Y:    -0.7311      Z:     0.8372     Total:    12.0764

*** Psi4 exiting successfully. Buy a developer a beer!
