                               Psi4 1.4a3.dev225

  ==> Input File <==

--------------------------------------------------------------------------
#psi4
#
memory 32 gb

molecule  {
1 1
  N       -3.4197460    -0.1817000     0.1602720
  N       -0.6214370    -0.0078370    -0.1287630
  C       -2.7377630    -0.6049400    -1.1216890
  C       -2.6265040     0.8533270     0.9259500
  C       -1.3397990    -1.0900720    -0.7822260
  C       -1.2267490     0.3141230     1.1574790
  C        0.8091060    -0.1845140    -0.0397240
  C        1.6179690     0.9496740    -0.2359790
  C        1.3698700    -1.4337860     0.2499420
  C        3.0044760     0.7849240    -0.1342920
  C        1.0196790     2.2951990    -0.5492200
  C        2.7558540    -1.5738690     0.3292430
  C        3.5736970    -0.4590730     0.1432710
  H       -2.7010110     0.2771110    -1.7633110
  H       -3.3565410    -1.3799850    -1.5813290
  H       -3.1641810     1.0582560     1.8552750
  H       -2.5989570     1.7488760     0.3025170
  H       -1.4126900    -2.0099640    -0.1705650
  H       -0.8261290    -1.3544960    -1.7108330
  H       -0.6365290     1.0912410     1.6504410
  H       -1.2578930    -0.5558900     1.8421060
  H       -4.3648950     0.1725180    -0.0402120
  H       -3.5438220    -1.0118610     0.7575640
  H        0.7360800    -2.3037000     0.4086560
  H        3.6499200     1.6470780    -0.2894290
  H        0.2227830     2.2055990    -1.2916560
  H        0.5919240     2.7705950     0.3416580
  H        1.7859030     2.9697170    -0.9386560
  H        3.1912420    -2.5456860     0.5460090
  H        4.5546357    -0.5494484     0.1990098
units angstrom
no_reorient  #important for SAPT in psi4, default
symmetry c1  #important for SAPT in psi4, default
}

set PROPERTIES_ORIGIN ["COM"]
properties('MP2/aug-cc-pvtz', properties = ['dipole'])
--------------------------------------------------------------------------

    Molecular point group: c1
  Charge       = 1
  Multiplicity = 1
  Basis Set: AUG-CC-PVTZ
    Blend: AUG-CC-PVTZ
  Basis Set: (AUG-CC-PVTZ AUX)
    Blend: AUG-CC-PVTZ-JKFIT

    Orbital Energies [Eh]
    ---------------------

    Doubly Occupied:

       1A    -15.866575     2A    -15.702959     3A    -11.456744
       4A    -11.456714     5A    -11.417455     6A    -11.417198
       7A    -11.375064     8A    -11.343945     9A    -11.339740
      10A    -11.331133    11A    -11.328973    12A    -11.323338
      13A    -11.317577    14A     -1.497478    15A     -1.390154
      16A     -1.250178    17A     -1.221792    18A     -1.156941
      19A     -1.142346    20A     -1.090859    21A     -1.053420
      22A     -1.031824    23A     -0.996996    24A     -0.936529
      25A     -0.925825    26A     -0.906411    27A     -0.869010
      28A     -0.823664    29A     -0.810207    30A     -0.793936
      31A     -0.788432    32A     -0.767646    33A     -0.744741
      34A     -0.734575    35A     -0.714788    36A     -0.704579
      37A     -0.687908    38A     -0.675194    39A     -0.671021
      40A     -0.659904    41A     -0.657895    42A     -0.641337
      43A     -0.602139    44A     -0.594471    45A     -0.587714
      46A     -0.521518    47A     -0.433291    48A     -0.423245

  @DF-RHF Final Energy:  -535.30298423458180

   => Energetics <=

    Nuclear Repulsion Energy =            820.8646810853223315
    One-Electron Energy =               -2339.9645681766269263
    Two-Electron Energy =                 983.7969028567226815
    Total Energy =                       -535.3029842345817997
  Basis Set: (AUG-CC-PVTZ AUX)
    Blend: AUG-CC-PVTZ-RI
    Molecular point group: c1

    Geometry (in Angstrom), charge = 1, multiplicity = 1:

       Center              X                  Y                   Z               Mass
    ------------   -----------------  -----------------  -----------------  -----------------
         N           -3.469692282967    -0.169309886171     0.160992082940    14.003074004430
         N           -0.671383282967     0.004553113829    -0.128042917060    14.003074004430
         C           -2.787709282967    -0.592549886171    -1.120968917060    12.000000000000
         C           -2.676450282967     0.865717113829     0.926670082940    12.000000000000
         C           -1.389745282967    -1.077681886171    -0.781505917060    12.000000000000
         C           -1.276695282967     0.326513113829     1.158199082940    12.000000000000
         C            0.759159717033    -0.172123886171    -0.039003917060    12.000000000000
         C            1.568022717033     0.962064113829    -0.235258917060    12.000000000000
         C            1.319923717033    -1.421395886171     0.250662082940    12.000000000000
         C            2.954529717033     0.797314113829    -0.133571917060    12.000000000000
         C            0.969732717033     2.307589113829    -0.548499917060    12.000000000000
         C            2.705907717033    -1.561478886171     0.329963082940    12.000000000000
         C            3.523750717033    -0.446682886171     0.143991082940    12.000000000000
         H           -2.750957282967     0.289501113829    -1.762590917060     1.007825032230
         H           -3.406487282967    -1.367594886171    -1.580608917060     1.007825032230
         H           -3.214127282967     1.070646113829     1.855995082940     1.007825032230
         H           -2.648903282967     1.761266113829     0.303237082940     1.007825032230
         H           -1.462636282967    -1.997573886171    -0.169844917060     1.007825032230
         H           -0.876075282967    -1.342105886171    -1.710112917060     1.007825032230
         H           -0.686475282967     1.103631113829     1.651161082940     1.007825032230
         H           -1.307839282967    -0.543499886171     1.842826082940     1.007825032230
         H           -4.414841282967     0.184908113829    -0.039491917060     1.007825032230
         H           -3.593768282967    -0.999470886171     0.758284082940     1.007825032230
         H            0.686133717033    -2.291309886171     0.409376082940     1.007825032230
         H            3.599973717033     1.659468113829    -0.288708917060     1.007825032230
         H            0.172836717033     2.217989113829    -1.290935917060     1.007825032230
         H            0.541977717033     2.782985113829     0.342378082940     1.007825032230
         H            1.735956717033     2.982107113829    -0.937935917060     1.007825032230
         H            3.141295717033    -2.533295886171     0.546729082940     1.007825032230
         H            4.504689417033    -0.537058286171     0.199729882940     1.007825032230

  Basis Set: AUG-CC-PVTZ
    Blend: AUG-CC-PVTZ
  Basis Set: (AUG-CC-PVTZ AUX)
    Blend: AUG-CC-PVTZ-JKFIT
	 Reference Energy          =    -535.3029842345817997 [Eh]
	 Singles Energy            =      -0.0000000000000000 [Eh]
	 Same-Spin Energy          =      -0.5851484677014360 [Eh]
	 Opposite-Spin Energy      =      -1.9165997668900561 [Eh]
	 Correlation Energy        =      -2.5017482345914921 [Eh]
	 Total Energy              =    -537.8047324691732456 [Eh]

	 ================> DF-SCS-MP2 Energies <==================
	-----------------------------------------------------------
	 SCS Same-Spin Scale       =       0.3333333333333333 [-]
	 SCS Opposite-Spin Scale   =       1.2000000000000000 [-]
	 SCS Same-Spin Energy      =      -0.1950494892338120 [Eh]
	 SCS Opposite-Spin Energy  =      -2.2999197202680670 [Eh]
	 SCS Correlation Energy    =      -2.4949692095018792 [Eh]
	 SCS Total Energy          =    -537.7979534440836460 [Eh]
	-----------------------------------------------------------

  Dipole Moment: [D]
     X:   -12.0961      Y:    -0.6878      Z:     0.7336     Total:    12.1378

*** Psi4 exiting successfully. Buy a developer a beer!
