                               Psi4 1.4a3.dev225

  ==> Input File <==

--------------------------------------------------------------------------
#psi4
#
memory 32 gb

molecule  {
1 1
  N       -3.4197460    -0.1817000     0.1602720
  N       -0.6214370    -0.0078370    -0.1287630
  C       -2.7377630    -0.6049400    -1.1216890
  C       -2.6265040     0.8533270     0.9259500
  C       -1.3397990    -1.0900720    -0.7822260
  C       -1.2267490     0.3141230     1.1574790
  C        0.8091060    -0.1845140    -0.0397240
  C        1.6179690     0.9496740    -0.2359790
  C        1.3698700    -1.4337860     0.2499420
  C        3.0044760     0.7849240    -0.1342920
  C        1.0196790     2.2951990    -0.5492200
  C        2.7558540    -1.5738690     0.3292430
  C        3.5736970    -0.4590730     0.1432710
  H       -2.7010110     0.2771110    -1.7633110
  H       -3.3565410    -1.3799850    -1.5813290
  H       -3.1641810     1.0582560     1.8552750
  H       -2.5989570     1.7488760     0.3025170
  H       -1.4126900    -2.0099640    -0.1705650
  H       -0.8261290    -1.3544960    -1.7108330
  H       -0.6365290     1.0912410     1.6504410
  H       -1.2578930    -0.5558900     1.8421060
  H       -4.3648950     0.1725180    -0.0402120
  H       -3.5438220    -1.0118610     0.7575640
  H        0.7360800    -2.3037000     0.4086560
  H        3.6499200     1.6470780    -0.2894290
  H        0.2227830     2.2055990    -1.2916560
  H        0.5919240     2.7705950     0.3416580
  H        1.7859030     2.9697170    -0.9386560
  H        3.1832292    -2.5278008     0.5420197
  H        4.6540550    -0.5586080     0.2046590
units angstrom
no_reorient  #important for SAPT in psi4, default
symmetry c1  #important for SAPT in psi4, default
}

set PROPERTIES_ORIGIN ["COM"]
properties('MP2/aug-cc-pvtz', properties = ['dipole'])
--------------------------------------------------------------------------

    Molecular point group: c1
  Charge       = 1
  Multiplicity = 1
  Basis Set: AUG-CC-PVTZ
    Blend: AUG-CC-PVTZ
  Basis Set: (AUG-CC-PVTZ AUX)
    Blend: AUG-CC-PVTZ-JKFIT

    Orbital Energies [Eh]
    ---------------------

    Doubly Occupied:

       1A    -15.866627     2A    -15.703012     3A    -11.456801
       4A    -11.456765     5A    -11.417527     6A    -11.417252
       7A    -11.375082     8A    -11.344360     9A    -11.340052
      10A    -11.330088    11A    -11.329402    12A    -11.328329
      13A    -11.323554    14A     -1.497530    15A     -1.390222
      16A     -1.249949    17A     -1.221849    18A     -1.155816
      19A     -1.142784    20A     -1.088038    21A     -1.053497
      22A     -1.032526    23A     -0.996156    24A     -0.935506
      25A     -0.924246    26A     -0.904064    27A     -0.867765
      28A     -0.823727    29A     -0.811312    30A     -0.793666
      31A     -0.788552    32A     -0.754982    33A     -0.744784
      34A     -0.734559    35A     -0.715044    36A     -0.705124
      37A     -0.687813    38A     -0.675377    39A     -0.670701
      40A     -0.660030    41A     -0.655761    42A     -0.640456
      43A     -0.600700    44A     -0.591595    45A     -0.588090
      46A     -0.521700    47A     -0.433479    48A     -0.423448

  @DF-RHF Final Energy:  -535.30900672382120

   => Energetics <=

    Nuclear Repulsion Energy =            820.4007240294970416
    One-Electron Energy =               -2339.0800611464073882
    Two-Electron Energy =                 983.3703303930891479
    Total Energy =                       -535.3090067238211986
  Basis Set: (AUG-CC-PVTZ AUX)
    Blend: AUG-CC-PVTZ-RI
    Molecular point group: c1

    Geometry (in Angstrom), charge = 1, multiplicity = 1:

       Center              X                  Y                   Z               Mass
    ------------   -----------------  -----------------  -----------------  -----------------
         N           -3.470212335968    -0.169359530063     0.160982639017    14.003074004430
         N           -0.671903335968     0.004503469937    -0.128052360983    14.003074004430
         C           -2.788229335968    -0.592599530063    -1.120978360983    12.000000000000
         C           -2.676970335968     0.865667469937     0.926660639017    12.000000000000
         C           -1.390265335968    -1.077731530063    -0.781515360983    12.000000000000
         C           -1.277215335968     0.326463469937     1.158189639017    12.000000000000
         C            0.758639664032    -0.172173530063    -0.039013360983    12.000000000000
         C            1.567502664032     0.962014469937    -0.235268360983    12.000000000000
         C            1.319403664032    -1.421445530063     0.250652639017    12.000000000000
         C            2.954009664032     0.797264469937    -0.133581360983    12.000000000000
         C            0.969212664032     2.307539469937    -0.548509360983    12.000000000000
         C            2.705387664032    -1.561528530063     0.329953639017    12.000000000000
         C            3.523230664032    -0.446732530063     0.143981639017    12.000000000000
         H           -2.751477335968     0.289451469937    -1.762600360983     1.007825032230
         H           -3.407007335968    -1.367644530063    -1.580618360983     1.007825032230
         H           -3.214647335968     1.070596469937     1.855985639017     1.007825032230
         H           -2.649423335968     1.761216469937     0.303227639017     1.007825032230
         H           -1.463156335968    -1.997623530063    -0.169854360983     1.007825032230
         H           -0.876595335968    -1.342155530063    -1.710122360983     1.007825032230
         H           -0.686995335968     1.103581469937     1.651151639017     1.007825032230
         H           -1.308359335968    -0.543549530063     1.842816639017     1.007825032230
         H           -4.415361335968     0.184858469937    -0.039501360983     1.007825032230
         H           -3.594288335968    -0.999520530063     0.758274639017     1.007825032230
         H            0.685613664032    -2.291359530063     0.409366639017     1.007825032230
         H            3.599453664032     1.659418469937    -0.288718360983     1.007825032230
         H            0.172316664032     2.217939469937    -1.290945360983     1.007825032230
         H            0.541457664032     2.782935469937     0.342368639017     1.007825032230
         H            1.735436664032     2.982057469937    -0.937945360983     1.007825032230
         H            3.132762864032    -2.515460330063     0.542730339017     1.007825032230
         H            4.603588664032    -0.546267530063     0.205369639017     1.007825032230

  Basis Set: AUG-CC-PVTZ
    Blend: AUG-CC-PVTZ
  Basis Set: (AUG-CC-PVTZ AUX)
    Blend: AUG-CC-PVTZ-JKFIT
	 Reference Energy          =    -535.3090067238211986 [Eh]
	 Singles Energy            =      -0.0000000000000000 [Eh]
	 Same-Spin Energy          =      -0.5852582580072573 [Eh]
	 Opposite-Spin Energy      =      -1.9170072310097770 [Eh]
	 Correlation Energy        =      -2.5022654890170344 [Eh]
	 Total Energy              =    -537.8112722128382757 [Eh]

	 ================> DF-SCS-MP2 Energies <==================
	-----------------------------------------------------------
	 SCS Same-Spin Scale       =       0.3333333333333333 [-]
	 SCS Opposite-Spin Scale   =       1.2000000000000000 [-]
	 SCS Same-Spin Energy      =      -0.1950860860024191 [Eh]
	 SCS Opposite-Spin Energy  =      -2.3004086772117325 [Eh]
	 SCS Correlation Energy    =      -2.4954947632141518 [Eh]
	 SCS Total Energy          =    -537.8045014870353953 [Eh]
	-----------------------------------------------------------

  Dipole Moment: [D]
     X:   -12.1040      Y:    -0.6878      Z:     0.7330     Total:    12.1457

*** Psi4 exiting successfully. Buy a developer a beer!
