                               Psi4 1.4a3.dev225

  ==> Input File <==

--------------------------------------------------------------------------
#psi4
#
memory 32 gb

molecule  {
1 1
  N       -3.4161945    -0.1987534     0.1800999
  N       -0.6214370    -0.0078370    -0.1287630
  C       -2.7377630    -0.6049400    -1.1216890
  C       -2.6265040     0.8533270     0.9259500
  C       -1.3397990    -1.0900720    -0.7822260
  C       -1.2267490     0.3141230     1.1574790
  C        0.8091060    -0.1845140    -0.0397240
  C        1.6179690     0.9496740    -0.2359790
  C        1.3698700    -1.4337860     0.2499420
  C        3.0044760     0.7849240    -0.1342920
  C        1.0196790     2.2951990    -0.5492200
  C        2.7558540    -1.5738690     0.3292430
  C        3.5736970    -0.4590730     0.1432710
  H       -2.7010110     0.2771110    -1.7633110
  H       -3.3565410    -1.3799850    -1.5813290
  H       -3.1641810     1.0582560     1.8552750
  H       -2.5989570     1.7488760     0.3025170
  H       -1.4126900    -2.0099640    -0.1705650
  H       -0.8261290    -1.3544960    -1.7108330
  H       -0.6365290     1.0912410     1.6504410
  H       -1.2578930    -0.5558900     1.8421060
  H       -4.3648950     0.1725180    -0.0402120
  H       -3.5438220    -1.0118610     0.7575640
  H        0.7360800    -2.3037000     0.4086560
  H        3.6499200     1.6470780    -0.2894290
  H        0.2227830     2.2055990    -1.2916560
  H        0.5919240     2.7705950     0.3416580
  H        1.7859030     2.9697170    -0.9386560
  H        3.1912420    -2.5456860     0.5460090
  H        4.6540550    -0.5586080     0.2046590
units angstrom
no_reorient  #important for SAPT in psi4, default
symmetry c1  #important for SAPT in psi4, default
}

set PROPERTIES_ORIGIN ["COM"]
properties('MP2/aug-cc-pvtz', properties = ['dipole'])
--------------------------------------------------------------------------

    Molecular point group: c1
  Charge       = 1
  Multiplicity = 1
  Basis Set: AUG-CC-PVTZ
    Blend: AUG-CC-PVTZ
  Basis Set: (AUG-CC-PVTZ AUX)
    Blend: AUG-CC-PVTZ-JKFIT

    Orbital Energies [Eh]
    ---------------------

    Doubly Occupied:

       1A    -15.865472     2A    -15.702958     3A    -11.457903
       4A    -11.456704     5A    -11.417348     6A    -11.416851
       7A    -11.375131     8A    -11.344351     9A    -11.340141
      10A    -11.331773    11A    -11.329853    12A    -11.328578
      13A    -11.323593    14A     -1.497129    15A     -1.390157
      16A     -1.249893    17A     -1.221299    18A     -1.155803
      19A     -1.142730    20A     -1.088572    21A     -1.052189
      22A     -1.032337    23A     -0.998933    24A     -0.934222
      25A     -0.921958    26A     -0.903204    27A     -0.869054
      28A     -0.824912    29A     -0.811080    30A     -0.793209
      31A     -0.786495    32A     -0.754628    33A     -0.745363
      34A     -0.735077    35A     -0.715138    36A     -0.705571
      37A     -0.687305    38A     -0.675188    39A     -0.669348
      40A     -0.659552    41A     -0.654985    42A     -0.640481
      43A     -0.599917    44A     -0.591605    45A     -0.588039
      46A     -0.521580    47A     -0.433512    48A     -0.423450

  @DF-RHF Final Energy:  -535.30823471848828

   => Energetics <=

    Nuclear Repulsion Energy =            820.2606492639246198
    One-Electron Energy =               -2338.8086204066858045
    Two-Electron Energy =                 983.2397364242727917
    Total Energy =                       -535.3082347184882792
  Basis Set: (AUG-CC-PVTZ AUX)
    Blend: AUG-CC-PVTZ-RI
    Molecular point group: c1

    Geometry (in Angstrom), charge = 1, multiplicity = 1:

       Center              X                  Y                   Z               Mass
    ------------   -----------------  -----------------  -----------------  -----------------
         N           -3.466987174951    -0.184963080381     0.179220421699    14.003074004430
         N           -0.672229674951     0.005953319619    -0.129642478301    14.003074004430
         C           -2.788555674951    -0.591149680381    -1.122568478301    12.000000000000
         C           -2.677296674951     0.867117319619     0.925070521699    12.000000000000
         C           -1.390591674951    -1.076281680381    -0.783105478301    12.000000000000
         C           -1.277541674951     0.327913319619     1.156599521699    12.000000000000
         C            0.758313325049    -0.170723680381    -0.040603478301    12.000000000000
         C            1.567176325049     0.963464319619    -0.236858478301    12.000000000000
         C            1.319077325049    -1.419995680381     0.249062521699    12.000000000000
         C            2.953683325049     0.798714319619    -0.135171478301    12.000000000000
         C            0.968886325049     2.308989319619    -0.550099478301    12.000000000000
         C            2.705061325049    -1.560078680381     0.328363521699    12.000000000000
         C            3.522904325049    -0.445282680381     0.142391521699    12.000000000000
         H           -2.751803674951     0.290901319619    -1.764190478301     1.007825032230
         H           -3.407333674951    -1.366194680381    -1.582208478301     1.007825032230
         H           -3.214973674951     1.072046319619     1.854395521699     1.007825032230
         H           -2.649749674951     1.762666319619     0.301637521699     1.007825032230
         H           -1.463482674951    -1.996173680381    -0.171444478301     1.007825032230
         H           -0.876921674951    -1.340705680381    -1.711712478301     1.007825032230
         H           -0.687321674951     1.105031319619     1.649561521699     1.007825032230
         H           -1.308685674951    -0.542099680381     1.841226521699     1.007825032230
         H           -4.415687674951     0.186308319619    -0.041091478301     1.007825032230
         H           -3.594614674951    -0.998070680381     0.756684521699     1.007825032230
         H            0.685287325049    -2.289909680381     0.407776521699     1.007825032230
         H            3.599127325049     1.660868319619    -0.290308478301     1.007825032230
         H            0.171990325049     2.219389319619    -1.292535478301     1.007825032230
         H            0.541131325049     2.784385319619     0.340778521699     1.007825032230
         H            1.735110325049     2.983507319619    -0.939535478301     1.007825032230
         H            3.140449325049    -2.531895680381     0.545129521699     1.007825032230
         H            4.603262325049    -0.544817680381     0.203779521699     1.007825032230

  Basis Set: AUG-CC-PVTZ
    Blend: AUG-CC-PVTZ
  Basis Set: (AUG-CC-PVTZ AUX)
    Blend: AUG-CC-PVTZ-JKFIT
	 Reference Energy          =    -535.3082347184882792 [Eh]
	 Singles Energy            =      -0.0000000000000000 [Eh]
	 Same-Spin Energy          =      -0.5851875712621162 [Eh]
	 Opposite-Spin Energy      =      -1.9170631103224234 [Eh]
	 Correlation Energy        =      -2.5022506815845396 [Eh]
	 Total Energy              =    -537.8104854000728210 [Eh]

	 ================> DF-SCS-MP2 Energies <==================
	-----------------------------------------------------------
	 SCS Same-Spin Scale       =       0.3333333333333333 [-]
	 SCS Opposite-Spin Scale   =       1.2000000000000000 [-]
	 SCS Same-Spin Energy      =      -0.1950625237540387 [Eh]
	 SCS Opposite-Spin Energy  =      -2.3004757323869081 [Eh]
	 SCS Correlation Energy    =      -2.4955382561409469 [Eh]
	 SCS Total Energy          =    -537.8037729746292825 [Eh]
	-----------------------------------------------------------

  Dipole Moment: [D]
     X:   -12.1134      Y:    -0.6740      Z:     0.7081     Total:    12.1528

*** Psi4 exiting successfully. Buy a developer a beer!
