                               Psi4 1.4a3.dev225

  ==> Input File <==

--------------------------------------------------------------------------
#psi4
#
memory 32 gb

molecule  {
1 1
  N       -3.4197460    -0.1817000     0.1602720
  N       -0.6214370    -0.0078370    -0.1287630
  C       -2.7377630    -0.6049400    -1.1216890
  C       -2.6265040     0.8533270     0.9259500
  C       -1.3397990    -1.0900720    -0.7822260
  C       -1.2267490     0.3141230     1.1574790
  C        0.8091060    -0.1845140    -0.0397240
  C        1.6179690     0.9496740    -0.2359790
  C        1.3698700    -1.4337860     0.2499420
  C        3.0044760     0.7849240    -0.1342920
  C        1.0196790     2.2951990    -0.5492200
  C        2.7558540    -1.5738690     0.3292430
  C        3.5736970    -0.4590730     0.1432710
  H       -2.7010110     0.2771110    -1.7633110
  H       -3.3565410    -1.3799850    -1.5813290
  H       -3.1641810     1.0582560     1.8552750
  H       -2.5989570     1.7488760     0.3025170
  H       -1.4126900    -2.0099640    -0.1705650
  H       -0.8261290    -1.3544960    -1.7108330
  H       -0.6365290     1.0912410     1.6504410
  H       -1.2578930    -0.5558900     1.8421060
  H       -4.3648950     0.1725180    -0.0402120
  H       -3.5438220    -1.0118610     0.7575640
  H        0.7360800    -2.3037000     0.4086560
  H        3.6499200     1.6470780    -0.2894290
  H        0.2835805     2.2773608    -1.3567615
  H        0.5919240     2.7705950     0.3416580
  H        1.7859030     2.9697170    -0.9386560
  H        3.1912420    -2.5456860     0.5460090
  H        4.6540550    -0.5586080     0.2046590
units angstrom
no_reorient  #important for SAPT in psi4, default
symmetry c1  #important for SAPT in psi4, default
}

set PROPERTIES_ORIGIN ["COM"]
properties('MP2/aug-cc-pvtz', properties = ['dipole'])
--------------------------------------------------------------------------

    Molecular point group: c1
  Charge       = 1
  Multiplicity = 1
  Basis Set: AUG-CC-PVTZ
    Blend: AUG-CC-PVTZ
  Basis Set: (AUG-CC-PVTZ AUX)
    Blend: AUG-CC-PVTZ-JKFIT

    Orbital Energies [Eh]
    ---------------------

    Doubly Occupied:

       1A    -15.866359     2A    -15.702625     3A    -11.456507
       4A    -11.456446     5A    -11.417273     6A    -11.416996
       7A    -11.375376     8A    -11.344781     9A    -11.340138
      10A    -11.332155    11A    -11.330210    12A    -11.328771
      13A    -11.323375    14A     -1.497245    15A     -1.389871
      16A     -1.249943    17A     -1.221540    18A     -1.155334
      19A     -1.142456    20A     -1.088012    21A     -1.053197
      22A     -1.032256    23A     -0.995766    24A     -0.935296
      25A     -0.924049    26A     -0.903977    27A     -0.867299
      28A     -0.823403    29A     -0.810053    30A     -0.793320
      31A     -0.788165    32A     -0.755351    33A     -0.743771
      34A     -0.734157    35A     -0.714531    36A     -0.704483
      37A     -0.687461    38A     -0.679921    39A     -0.670377
      40A     -0.659902    41A     -0.656314    42A     -0.631733
      43A     -0.600056    44A     -0.590191    45A     -0.589565
      46A     -0.521461    47A     -0.433771    48A     -0.424043

  @DF-RHF Final Energy:  -535.30791486973669

   => Energetics <=

    Nuclear Repulsion Energy =            820.0208948100056432
    One-Electron Energy =               -2338.3390565126264846
    Two-Electron Energy =                 983.0102468328840359
    Total Energy =                       -535.3079148697366918
  Basis Set: (AUG-CC-PVTZ AUX)
    Blend: AUG-CC-PVTZ-RI
    Molecular point group: c1

    Geometry (in Angstrom), charge = 1, multiplicity = 1:

       Center              X                  Y                   Z               Mass
    ------------   -----------------  -----------------  -----------------  -----------------
         N           -3.470603828947    -0.169666058456     0.161330356774    14.003074004430
         N           -0.672294828947     0.004196941544    -0.127704643226    14.003074004430
         C           -2.788620828947    -0.592906058456    -1.120630643226    12.000000000000
         C           -2.677361828947     0.865360941544     0.927008356774    12.000000000000
         C           -1.390656828947    -1.078038058456    -0.781167643226    12.000000000000
         C           -1.277606828947     0.326156941544     1.158537356774    12.000000000000
         C            0.758248171053    -0.172480058456    -0.038665643226    12.000000000000
         C            1.567111171053     0.961707941544    -0.234920643226    12.000000000000
         C            1.319012171053    -1.421752058456     0.251000356774    12.000000000000
         C            2.953618171053     0.796957941544    -0.133233643226    12.000000000000
         C            0.968821171053     2.307232941544    -0.548161643226    12.000000000000
         C            2.704996171053    -1.561835058456     0.330301356774    12.000000000000
         C            3.522839171053    -0.447039058456     0.144329356774    12.000000000000
         H           -2.751868828947     0.289144941544    -1.762252643226     1.007825032230
         H           -3.407398828947    -1.367951058456    -1.580270643226     1.007825032230
         H           -3.215038828947     1.070289941544     1.856333356774     1.007825032230
         H           -2.649814828947     1.760909941544     0.303575356774     1.007825032230
         H           -1.463547828947    -1.997930058456    -0.169506643226     1.007825032230
         H           -0.876986828947    -1.342462058456    -1.709774643226     1.007825032230
         H           -0.687386828947     1.103274941544     1.651499356774     1.007825032230
         H           -1.308750828947    -0.543856058456     1.843164356774     1.007825032230
         H           -4.415752828947     0.184551941544    -0.039153643226     1.007825032230
         H           -3.594679828947    -0.999827058456     0.758622356774     1.007825032230
         H            0.685222171053    -2.291666058456     0.409714356774     1.007825032230
         H            3.599062171053     1.659111941544    -0.288370643226     1.007825032230
         H            0.232722671053     2.289394741544    -1.355703143226     1.007825032230
         H            0.541066171053     2.782628941544     0.342716356774     1.007825032230
         H            1.735045171053     2.981750941544    -0.937597643226     1.007825032230
         H            3.140384171053    -2.533652058456     0.547067356774     1.007825032230
         H            4.603197171053    -0.546574058456     0.205717356774     1.007825032230

  Basis Set: AUG-CC-PVTZ
    Blend: AUG-CC-PVTZ
  Basis Set: (AUG-CC-PVTZ AUX)
    Blend: AUG-CC-PVTZ-JKFIT
	 Reference Energy          =    -535.3079148697366918 [Eh]
	 Singles Energy            =      -0.0000000000000000 [Eh]
	 Same-Spin Energy          =      -0.5852195687281584 [Eh]
	 Opposite-Spin Energy      =      -1.9170856912817447 [Eh]
	 Correlation Energy        =      -2.5023052600099032 [Eh]
	 Total Energy              =    -537.8102201297465399 [Eh]

	 ================> DF-SCS-MP2 Energies <==================
	-----------------------------------------------------------
	 SCS Same-Spin Scale       =       0.3333333333333333 [-]
	 SCS Opposite-Spin Scale   =       1.2000000000000000 [-]
	 SCS Same-Spin Energy      =      -0.1950731895760528 [Eh]
	 SCS Opposite-Spin Energy  =      -2.3005028295380936 [Eh]
	 SCS Correlation Energy    =      -2.4955760191141465 [Eh]
	 SCS Total Energy          =    -537.8034908888508880 [Eh]
	-----------------------------------------------------------

  Dipole Moment: [D]
     X:   -12.0747      Y:    -0.6713      Z:     0.6978     Total:    12.1135

*** Psi4 exiting successfully. Buy a developer a beer!
