                               Psi4 1.4a3.dev225

  ==> Input File <==

--------------------------------------------------------------------------
#psi4
#
memory 32 gb

molecule  {
1 1
  N       -3.4197460    -0.1817000     0.1602720
  N       -0.6214370    -0.0078370    -0.1287630
  C       -2.7377630    -0.6049400    -1.1216890
  C       -2.6265040     0.8533270     0.9259500
  C       -1.2409912    -0.9412150    -0.6923448
  C       -1.2267490     0.3141230     1.1574790
  C        0.8091060    -0.1845140    -0.0397240
  C        1.6179690     0.9496740    -0.2359790
  C        1.3698700    -1.4337860     0.2499420
  C        3.0044760     0.7849240    -0.1342920
  C        1.0196790     2.2951990    -0.5492200
  C        2.7558540    -1.5738690     0.3292430
  C        3.5736970    -0.4590730     0.1432710
  H       -2.7010110     0.2771110    -1.7633110
  H       -3.3565410    -1.3799850    -1.5813290
  H       -3.1641810     1.0582560     1.8552750
  H       -2.5989570     1.7488760     0.3025170
  H       -1.4126900    -2.0099640    -0.1705650
  H       -0.8261290    -1.3544960    -1.7108330
  H       -0.6365290     1.0912410     1.6504410
  H       -1.2578930    -0.5558900     1.8421060
  H       -4.3648950     0.1725180    -0.0402120
  H       -3.5438220    -1.0118610     0.7575640
  H        0.7360800    -2.3037000     0.4086560
  H        3.6499200     1.6470780    -0.2894290
  H        0.2227830     2.2055990    -1.2916560
  H        0.5919240     2.7705950     0.3416580
  H        1.7859030     2.9697170    -0.9386560
  H        3.1912420    -2.5456860     0.5460090
  H        4.6540550    -0.5586080     0.2046590
units angstrom
no_reorient  #important for SAPT in psi4, default
symmetry c1  #important for SAPT in psi4, default
}

set PROPERTIES_ORIGIN ["COM"]
properties('MP2/aug-cc-pvtz', properties = ['dipole'])
--------------------------------------------------------------------------

    Molecular point group: c1
  Charge       = 1
  Multiplicity = 1
  Basis Set: AUG-CC-PVTZ
    Blend: AUG-CC-PVTZ
  Basis Set: (AUG-CC-PVTZ AUX)
    Blend: AUG-CC-PVTZ-JKFIT

    Orbital Energies [Eh]
    ---------------------

    Doubly Occupied:

       1A    -15.861701     2A    -15.705731     3A    -11.458841
       4A    -11.452321     5A    -11.424556     6A    -11.423728
       7A    -11.381107     8A    -11.349618     9A    -11.344461
      10A    -11.334991    11A    -11.333566    12A    -11.332374
      13A    -11.328008    14A     -1.500080    15A     -1.445003
      16A     -1.257146    17A     -1.217386    18A     -1.155672
      19A     -1.144049    20A     -1.097264    21A     -1.061773
      22A     -1.037242    23A     -0.990514    24A     -0.938108
      25A     -0.922131    26A     -0.907801    27A     -0.868242
      28A     -0.826246    29A     -0.819887    30A     -0.808021
      31A     -0.799585    32A     -0.761159    33A     -0.746022
      34A     -0.733692    35A     -0.713947    36A     -0.707246
      37A     -0.694159    38A     -0.680773    39A     -0.671135
      40A     -0.656131    41A     -0.645343    42A     -0.625632
      43A     -0.600357    44A     -0.593345    45A     -0.592568
      46A     -0.514660    47A     -0.437668    48A     -0.428262

  @DF-RHF Final Energy:  -535.25875438459684

   => Energetics <=

    Nuclear Repulsion Energy =            824.3392796293626361
    One-Electron Energy =               -2346.5375672118848343
    Two-Electron Energy =                 986.9395331979253569
    Total Energy =                       -535.2587543845968412
  Basis Set: (AUG-CC-PVTZ AUX)
    Blend: AUG-CC-PVTZ-RI
    Molecular point group: c1

    Geometry (in Angstrom), charge = 1, multiplicity = 1:

       Center              X                  Y                   Z               Mass
    ------------   -----------------  -----------------  -----------------  -----------------
         N           -3.476951495220    -0.179341844038     0.154871089015    14.003074004430
         N           -0.678642495220    -0.005478844038    -0.134163910985    14.003074004430
         C           -2.794968495220    -0.602581844038    -1.127089910985    12.000000000000
         C           -2.683709495220     0.855685155962     0.920549089015    12.000000000000
         C           -1.298196695220    -0.938856844038    -0.697745710985    12.000000000000
         C           -1.283954495220     0.316481155962     1.152078089015    12.000000000000
         C            0.751900504780    -0.182155844038    -0.045124910985    12.000000000000
         C            1.560763504780     0.952032155962    -0.241379910985    12.000000000000
         C            1.312664504780    -1.431427844038     0.244541089015    12.000000000000
         C            2.947270504780     0.787282155962    -0.139692910985    12.000000000000
         C            0.962473504780     2.297557155962    -0.554620910985    12.000000000000
         C            2.698648504780    -1.571510844038     0.323842089015    12.000000000000
         C            3.516491504780    -0.456714844038     0.137870089015    12.000000000000
         H           -2.758216495220     0.279469155962    -1.768711910985     1.007825032230
         H           -3.413746495220    -1.377626844038    -1.586729910985     1.007825032230
         H           -3.221386495220     1.060614155962     1.849874089015     1.007825032230
         H           -2.656162495220     1.751234155962     0.297116089015     1.007825032230
         H           -1.469895495220    -2.007605844038    -0.175965910985     1.007825032230
         H           -0.883334495220    -1.352137844038    -1.716233910985     1.007825032230
         H           -0.693734495220     1.093599155962     1.645040089015     1.007825032230
         H           -1.315098495220    -0.553531844038     1.836705089015     1.007825032230
         H           -4.422100495220     0.174876155962    -0.045612910985     1.007825032230
         H           -3.601027495220    -1.009502844038     0.752163089015     1.007825032230
         H            0.678874504780    -2.301341844038     0.403255089015     1.007825032230
         H            3.592714504780     1.649436155962    -0.294829910985     1.007825032230
         H            0.165577504780     2.207957155962    -1.297056910985     1.007825032230
         H            0.534718504780     2.772953155962     0.336257089015     1.007825032230
         H            1.728697504780     2.972075155962    -0.944056910985     1.007825032230
         H            3.134036504780    -2.543327844038     0.540608089015     1.007825032230
         H            4.596849504780    -0.556249844038     0.199258089015     1.007825032230

  Basis Set: AUG-CC-PVTZ
    Blend: AUG-CC-PVTZ
  Basis Set: (AUG-CC-PVTZ AUX)
    Blend: AUG-CC-PVTZ-JKFIT
	 Reference Energy          =    -535.2587543845968412 [Eh]
	 Singles Energy            =      -0.0000000000000000 [Eh]
	 Same-Spin Energy          =      -0.5883308948505122 [Eh]
	 Opposite-Spin Energy      =      -1.9204547450150302 [Eh]
	 Correlation Energy        =      -2.5087856398655424 [Eh]
	 Total Energy              =    -537.7675400244623916 [Eh]

	 ================> DF-SCS-MP2 Energies <==================
	-----------------------------------------------------------
	 SCS Same-Spin Scale       =       0.3333333333333333 [-]
	 SCS Opposite-Spin Scale   =       1.2000000000000000 [-]
	 SCS Same-Spin Energy      =      -0.1961102982835040 [Eh]
	 SCS Opposite-Spin Energy  =      -2.3045456940180360 [Eh]
	 SCS Correlation Energy    =      -2.5006559923015401 [Eh]
	 SCS Total Energy          =    -537.7594103768983587 [Eh]
	-----------------------------------------------------------

  Dipole Moment: [D]
     X:   -11.5712      Y:    -0.2256      Z:     0.9124     Total:    11.6093

*** Psi4 exiting successfully. Buy a developer a beer!
