                               Psi4 1.4a3.dev225

  ==> Input File <==

--------------------------------------------------------------------------
#psi4
#
memory 32 gb

molecule  {
1 1
  N       -3.4197460    -0.1817000     0.1602720
  N       -0.6312458    -0.1062848    -0.1094592
  C       -2.7377630    -0.6049400    -1.1216890
  C       -2.6265040     0.8533270     0.9259500
  C       -1.3397990    -1.0900720    -0.7822260
  C       -1.2267490     0.3141230     1.1574790
  C        0.8091060    -0.1845140    -0.0397240
  C        1.6179690     0.9496740    -0.2359790
  C        1.3698700    -1.4337860     0.2499420
  C        3.0044760     0.7849240    -0.1342920
  C        1.0196790     2.2951990    -0.5492200
  C        2.7558540    -1.5738690     0.3292430
  C        3.5736970    -0.4590730     0.1432710
  H       -2.7010110     0.2771110    -1.7633110
  H       -3.3565410    -1.3799850    -1.5813290
  H       -3.1641810     1.0582560     1.8552750
  H       -2.5989570     1.7488760     0.3025170
  H       -1.4126900    -2.0099640    -0.1705650
  H       -0.8261290    -1.3544960    -1.7108330
  H       -0.6365290     1.0912410     1.6504410
  H       -1.2578930    -0.5558900     1.8421060
  H       -4.3648950     0.1725180    -0.0402120
  H       -3.5438220    -1.0118610     0.7575640
  H        0.7360800    -2.3037000     0.4086560
  H        3.6499200     1.6470780    -0.2894290
  H        0.2227830     2.2055990    -1.2916560
  H        0.5919240     2.7705950     0.3416580
  H        1.7859030     2.9697170    -0.9386560
  H        3.1912420    -2.5456860     0.5460090
  H        4.6540550    -0.5586080     0.2046590
units angstrom
no_reorient  #important for SAPT in psi4, default
symmetry c1  #important for SAPT in psi4, default
}

set PROPERTIES_ORIGIN ["COM"]
properties('MP2/aug-cc-pvtz', properties = ['dipole'])
--------------------------------------------------------------------------

    Molecular point group: c1
  Charge       = 1
  Multiplicity = 1
  Basis Set: AUG-CC-PVTZ
    Blend: AUG-CC-PVTZ
  Basis Set: (AUG-CC-PVTZ AUX)
    Blend: AUG-CC-PVTZ-JKFIT

    Orbital Energies [Eh]
    ---------------------

    Doubly Occupied:

       1A    -15.866604     2A    -15.695347     3A    -11.457591
       4A    -11.456074     5A    -11.418956     6A    -11.413761
       7A    -11.376875     8A    -11.346660     9A    -11.338464
      10A    -11.331351    11A    -11.330800    12A    -11.329061
      13A    -11.325714    14A     -1.498168    15A     -1.399265
      16A     -1.251558    17A     -1.223164    18A     -1.154526
      19A     -1.144551    20A     -1.089966    21A     -1.059051
      22A     -1.033788    23A     -0.993525    24A     -0.934692
      25A     -0.924798    26A     -0.906770    27A     -0.865814
      28A     -0.823172    29A     -0.811653    30A     -0.800740
      31A     -0.793582    32A     -0.757318    33A     -0.744248
      34A     -0.734882    35A     -0.716264    36A     -0.704780
      37A     -0.686473    38A     -0.679840    39A     -0.670460
      40A     -0.668529    41A     -0.653769    42A     -0.641120
      43A     -0.598963    44A     -0.594566    45A     -0.588767
      46A     -0.509430    47A     -0.433021    48A     -0.423634

  @DF-RHF Final Energy:  -535.30508710566664

   => Energetics <=

    Nuclear Repulsion Energy =            820.8833577161407220
    One-Electron Energy =               -2339.9726836015470326
    Two-Electron Energy =                 983.7842387797395531
    Total Energy =                       -535.3050871056666438
  Basis Set: (AUG-CC-PVTZ AUX)
    Blend: AUG-CC-PVTZ-RI
    Molecular point group: c1

    Geometry (in Angstrom), charge = 1, multiplicity = 1:

       Center              X                  Y                   Z               Mass
    ------------   -----------------  -----------------  -----------------  -----------------
         N           -3.469482526467    -0.161475350899     0.159433952462    14.003074004430
         N           -0.680982326467    -0.086060150899    -0.110297247538    14.003074004430
         C           -2.787499526467    -0.584715350899    -1.122527047538    12.000000000000
         C           -2.676240526467     0.873551649101     0.925111952462    12.000000000000
         C           -1.389535526467    -1.069847350899    -0.783064047538    12.000000000000
         C           -1.276485526467     0.334347649101     1.156640952462    12.000000000000
         C            0.759369473533    -0.164289350899    -0.040562047538    12.000000000000
         C            1.568232473533     0.969898649101    -0.236817047538    12.000000000000
         C            1.320133473533    -1.413561350899     0.249103952462    12.000000000000
         C            2.954739473533     0.805148649101    -0.135130047538    12.000000000000
         C            0.969942473533     2.315423649101    -0.550058047538    12.000000000000
         C            2.706117473533    -1.553644350899     0.328404952462    12.000000000000
         C            3.523960473533    -0.438848350899     0.142432952462    12.000000000000
         H           -2.750747526467     0.297335649101    -1.764149047538     1.007825032230
         H           -3.406277526467    -1.359760350899    -1.582167047538     1.007825032230
         H           -3.213917526467     1.078480649101     1.854436952462     1.007825032230
         H           -2.648693526467     1.769100649101     0.301678952462     1.007825032230
         H           -1.462426526467    -1.989739350899    -0.171403047538     1.007825032230
         H           -0.875865526467    -1.334271350899    -1.711671047538     1.007825032230
         H           -0.686265526467     1.111465649101     1.649602952462     1.007825032230
         H           -1.307629526467    -0.535665350899     1.841267952462     1.007825032230
         H           -4.414631526467     0.192742649101    -0.041050047538     1.007825032230
         H           -3.593558526467    -0.991636350899     0.756725952462     1.007825032230
         H            0.686343473533    -2.283475350899     0.407817952462     1.007825032230
         H            3.600183473533     1.667302649101    -0.290267047538     1.007825032230
         H            0.173046473533     2.225823649101    -1.292494047538     1.007825032230
         H            0.542187473533     2.790819649101     0.340819952462     1.007825032230
         H            1.736166473533     2.989941649101    -0.939494047538     1.007825032230
         H            3.141505473533    -2.525461350899     0.545170952462     1.007825032230
         H            4.604318473533    -0.538383350899     0.203820952462     1.007825032230

  Basis Set: AUG-CC-PVTZ
    Blend: AUG-CC-PVTZ
  Basis Set: (AUG-CC-PVTZ AUX)
    Blend: AUG-CC-PVTZ-JKFIT
	 Reference Energy          =    -535.3050871056666438 [Eh]
	 Singles Energy            =      -0.0000000000000000 [Eh]
	 Same-Spin Energy          =      -0.5853281876928975 [Eh]
	 Opposite-Spin Energy      =      -1.9162216688823444 [Eh]
	 Correlation Energy        =      -2.5015498565752416 [Eh]
	 Total Energy              =    -537.8066369622418961 [Eh]

	 ================> DF-SCS-MP2 Energies <==================
	-----------------------------------------------------------
	 SCS Same-Spin Scale       =       0.3333333333333333 [-]
	 SCS Opposite-Spin Scale   =       1.2000000000000000 [-]
	 SCS Same-Spin Energy      =      -0.1951093958976325 [Eh]
	 SCS Opposite-Spin Energy  =      -2.2994660026588130 [Eh]
	 SCS Correlation Energy    =      -2.4945753985564454 [Eh]
	 SCS Total Energy          =    -537.7996625042230789 [Eh]
	-----------------------------------------------------------

  Dipole Moment: [D]
     X:   -12.0114      Y:    -0.3952      Z:     0.6857     Total:    12.0375

*** Psi4 exiting successfully. Buy a developer a beer!
