                               Psi4 1.4a3.dev225

  ==> Input File <==

--------------------------------------------------------------------------
#psi4
#
memory 32 gb

molecule  {
1 1
  N       -3.4197460    -0.1817000     0.1602720
  N       -0.6214370    -0.0078370    -0.1287630
  C       -2.7377630    -0.6049400    -1.1216890
  C       -2.6265040     0.8533270     0.9259500
  C       -1.3397990    -1.0900720    -0.7822260
  C       -1.2267490     0.3141230     1.1574790
  C        0.8091060    -0.1845140    -0.0397240
  C        1.6179690     0.9496740    -0.2359790
  C        1.3698700    -1.4337860     0.2499420
  C        3.0044760     0.7849240    -0.1342920
  C        1.0196790     2.2951990    -0.5492200
  C        2.7558540    -1.5738690     0.3292430
  C        3.5736970    -0.4590730     0.1432710
  H       -2.7010110     0.2771110    -1.7633110
  H       -3.3565410    -1.3799850    -1.5813290
  H       -3.1641810     1.0582560     1.8552750
  H       -2.5989570     1.7488760     0.3025170
  H       -1.4126900    -2.0099640    -0.1705650
  H       -0.8261290    -1.3544960    -1.7108330
  H       -0.6365290     1.0912410     1.6504410
  H       -1.2578930    -0.5558900     1.8421060
  H       -4.3648950     0.1725180    -0.0402120
  H       -3.5438220    -1.0118610     0.7575640
  H        0.7360800    -2.3037000     0.4086560
  H        3.6499200     1.6470780    -0.2894290
  H        0.1498628     2.1974001    -1.3595929
  H        0.5919240     2.7705950     0.3416580
  H        1.7859030     2.9697170    -0.9386560
  H        3.1912420    -2.5456860     0.5460090
  H        4.6540550    -0.5586080     0.2046590
units angstrom
no_reorient  #important for SAPT in psi4, default
symmetry c1  #important for SAPT in psi4, default
}

set PROPERTIES_ORIGIN ["COM"]
properties('MP2/aug-cc-pvtz', properties = ['dipole'])
--------------------------------------------------------------------------

    Molecular point group: c1
  Charge       = 1
  Multiplicity = 1
  Basis Set: AUG-CC-PVTZ
    Blend: AUG-CC-PVTZ
  Basis Set: (AUG-CC-PVTZ AUX)
    Blend: AUG-CC-PVTZ-JKFIT

    Orbital Energies [Eh]
    ---------------------

    Doubly Occupied:

       1A    -15.866505     2A    -15.702775     3A    -11.456680
       4A    -11.456605     5A    -11.417431     6A    -11.417237
       7A    -11.375596     8A    -11.345347     9A    -11.340515
      10A    -11.335227    11A    -11.332295    12A    -11.330623
      13A    -11.329181    14A     -1.497403    15A     -1.390136
      16A     -1.250243    17A     -1.221727    18A     -1.155361
      19A     -1.141755    20A     -1.088022    21A     -1.053390
      22A     -1.027089    23A     -0.995728    24A     -0.935579
      25A     -0.924337    26A     -0.902255    27A     -0.867295
      28A     -0.823570    29A     -0.809807    30A     -0.793600
      31A     -0.788371    32A     -0.755242    33A     -0.744117
      34A     -0.734053    35A     -0.714871    36A     -0.703716
      37A     -0.687664    38A     -0.673777    39A     -0.667005
      40A     -0.659964    41A     -0.653933    42A     -0.633148
      43A     -0.600677    44A     -0.590986    45A     -0.585769
      46A     -0.520857    47A     -0.433877    48A     -0.423731

  @DF-RHF Final Energy:  -535.30213125290231

   => Energetics <=

    Nuclear Repulsion Energy =            819.9293722091346126
    One-Electron Energy =               -2338.1528643561655372
    Two-Electron Energy =                 982.9213608941284974
    Total Energy =                       -535.3021312529023135
  Basis Set: (AUG-CC-PVTZ AUX)
    Blend: AUG-CC-PVTZ-RI
    Molecular point group: c1

    Geometry (in Angstrom), charge = 1, multiplicity = 1:

       Center              X                  Y                   Z               Mass
    ------------   -----------------  -----------------  -----------------  -----------------
         N           -3.469843048355    -0.169211125798     0.161346465892    14.003074004430
         N           -0.671534048355     0.004651874202    -0.127688534108    14.003074004430
         C           -2.787860048355    -0.592451125798    -1.120614534108    12.000000000000
         C           -2.676601048355     0.865815874202     0.927024465892    12.000000000000
         C           -1.389896048355    -1.077583125798    -0.781151534108    12.000000000000
         C           -1.276846048355     0.326611874202     1.158553465892    12.000000000000
         C            0.759008951645    -0.172025125798    -0.038649534108    12.000000000000
         C            1.567871951645     0.962162874202    -0.234904534108    12.000000000000
         C            1.319772951645    -1.421297125798     0.251016465892    12.000000000000
         C            2.954378951645     0.797412874202    -0.133217534108    12.000000000000
         C            0.969581951645     2.307687874202    -0.548145534108    12.000000000000
         C            2.705756951645    -1.561380125798     0.330317465892    12.000000000000
         C            3.523599951645    -0.446584125798     0.144345465892    12.000000000000
         H           -2.751108048355     0.289599874202    -1.762236534108     1.007825032230
         H           -3.406638048355    -1.367496125798    -1.580254534108     1.007825032230
         H           -3.214278048355     1.070744874202     1.856349465892     1.007825032230
         H           -2.649054048355     1.761364874202     0.303591465892     1.007825032230
         H           -1.462787048355    -1.997475125798    -0.169490534108     1.007825032230
         H           -0.876226048355    -1.342007125798    -1.709758534108     1.007825032230
         H           -0.686626048355     1.103729874202     1.651515465892     1.007825032230
         H           -1.307990048355    -0.543401125798     1.843180465892     1.007825032230
         H           -4.414992048355     0.185006874202    -0.039137534108     1.007825032230
         H           -3.593919048355    -0.999372125798     0.758638465892     1.007825032230
         H            0.685982951645    -2.291211125798     0.409730465892     1.007825032230
         H            3.599822951645     1.659566874202    -0.288354534108     1.007825032230
         H            0.099765751645     2.209888974202    -1.358518434108     1.007825032230
         H            0.541826951645     2.783083874202     0.342732465892     1.007825032230
         H            1.735805951645     2.982205874202    -0.937581534108     1.007825032230
         H            3.141144951645    -2.533197125798     0.547083465892     1.007825032230
         H            4.603957951645    -0.546119125798     0.205733465892     1.007825032230

  Basis Set: AUG-CC-PVTZ
    Blend: AUG-CC-PVTZ
  Basis Set: (AUG-CC-PVTZ AUX)
    Blend: AUG-CC-PVTZ-JKFIT
	 Reference Energy          =    -535.3021312529023135 [Eh]
	 Singles Energy            =      -0.0000000000000000 [Eh]
	 Same-Spin Energy          =      -0.5854192455613384 [Eh]
	 Opposite-Spin Energy      =      -1.9179588751677970 [Eh]
	 Correlation Energy        =      -2.5033781207291352 [Eh]
	 Total Energy              =    -537.8055093736314802 [Eh]

	 ================> DF-SCS-MP2 Energies <==================
	-----------------------------------------------------------
	 SCS Same-Spin Scale       =       0.3333333333333333 [-]
	 SCS Opposite-Spin Scale   =       1.2000000000000000 [-]
	 SCS Same-Spin Energy      =      -0.1951397485204461 [Eh]
	 SCS Opposite-Spin Energy  =      -2.3015506502013561 [Eh]
	 SCS Correlation Energy    =      -2.4966903987218023 [Eh]
	 SCS Total Energy          =    -537.7988216516241664 [Eh]
	-----------------------------------------------------------

  Dipole Moment: [D]
     X:   -12.0619      Y:    -0.7074      Z:     0.7668     Total:    12.1070

*** Psi4 exiting successfully. Buy a developer a beer!
