                               Psi4 1.4a3.dev225

  ==> Input File <==

--------------------------------------------------------------------------
#psi4
#
memory 32 gb

molecule  {
1 1
  N       -3.4197460    -0.1817000     0.1602720
  N       -0.6214370    -0.0078370    -0.1287630
  C       -2.7377630    -0.6049400    -1.1216890
  C       -2.6265040     0.8533270     0.9259500
  C       -1.3299182    -1.0751863    -0.7732379
  C       -1.2267490     0.3141230     1.1574790
  C        0.8091060    -0.1845140    -0.0397240
  C        1.6179690     0.9496740    -0.2359790
  C        1.3698700    -1.4337860     0.2499420
  C        3.0044760     0.7849240    -0.1342920
  C        1.0196790     2.2951990    -0.5492200
  C        2.7558540    -1.5738690     0.3292430
  C        3.5736970    -0.4590730     0.1432710
  H       -2.7010110     0.2771110    -1.7633110
  H       -3.3565410    -1.3799850    -1.5813290
  H       -3.1641810     1.0582560     1.8552750
  H       -2.5989570     1.7488760     0.3025170
  H       -1.4126900    -2.0099640    -0.1705650
  H       -0.8261290    -1.3544960    -1.7108330
  H       -0.6365290     1.0912410     1.6504410
  H       -1.2578930    -0.5558900     1.8421060
  H       -4.3648950     0.1725180    -0.0402120
  H       -3.5438220    -1.0118610     0.7575640
  H        0.7360800    -2.3037000     0.4086560
  H        3.6499200     1.6470780    -0.2894290
  H        0.2227830     2.2055990    -1.2916560
  H        0.5919240     2.7705950     0.3416580
  H        1.7859030     2.9697170    -0.9386560
  H        3.1912420    -2.5456860     0.5460090
  H        4.6540550    -0.5586080     0.2046590
units angstrom
no_reorient  #important for SAPT in psi4, default
symmetry c1  #important for SAPT in psi4, default
}

set PROPERTIES_ORIGIN ["COM"]
properties('MP2/aug-cc-pvtz', properties = ['dipole'])
--------------------------------------------------------------------------

    Molecular point group: c1
  Charge       = 1
  Multiplicity = 1
  Basis Set: AUG-CC-PVTZ
    Blend: AUG-CC-PVTZ
  Basis Set: (AUG-CC-PVTZ AUX)
    Blend: AUG-CC-PVTZ-JKFIT

    Orbital Energies [Eh]
    ---------------------

    Doubly Occupied:

       1A    -15.866189     2A    -15.703307     3A    -11.456934
       4A    -11.456456     5A    -11.417905     6A    -11.417740
       7A    -11.375604     8A    -11.344789     9A    -11.340526
      10A    -11.332056    11A    -11.330165    12A    -11.328923
      13A    -11.323918    14A     -1.497446    15A     -1.394537
      16A     -1.250505    17A     -1.221113    18A     -1.155508
      19A     -1.142849    20A     -1.088730    21A     -1.054129
      22A     -1.032403    23A     -0.995674    24A     -0.935384
      25A     -0.924264    26A     -0.903884    27A     -0.867467
      28A     -0.822971    29A     -0.811086    30A     -0.794968
      31A     -0.789536    32A     -0.755503    33A     -0.744798
      34A     -0.734408    35A     -0.713919    36A     -0.704588
      37A     -0.687137    38A     -0.675971    39A     -0.669371
      40A     -0.659706    41A     -0.654952    42A     -0.640683
      43A     -0.600236    44A     -0.592059    45A     -0.588588
      46A     -0.521844    47A     -0.433891    48A     -0.423893

  @DF-RHF Final Energy:  -535.30844904418643

   => Energetics <=

    Nuclear Repulsion Energy =            820.6714976670853048
    One-Electron Energy =               -2339.6028753786285961
    Two-Electron Energy =                 983.6229286673568595
    Total Energy =                       -535.3084490441864318
  Basis Set: (AUG-CC-PVTZ AUX)
    Blend: AUG-CC-PVTZ-RI
    Molecular point group: c1

    Geometry (in Angstrom), charge = 1, multiplicity = 1:

       Center              X                  Y                   Z               Mass
    ------------   -----------------  -----------------  -----------------  -----------------
         N           -3.470927282853    -0.170266180154     0.160351058129    14.003074004430
         N           -0.672618282853     0.003596819846    -0.128683941871    14.003074004430
         C           -2.788944282853    -0.593506180154    -1.121609941871    12.000000000000
         C           -2.677685282853     0.864760819846     0.926029058129    12.000000000000
         C           -1.381099482853    -1.063752480154    -0.773158841871    12.000000000000
         C           -1.277930282853     0.325556819846     1.157558058129    12.000000000000
         C            0.757924717147    -0.173080180154    -0.039644941871    12.000000000000
         C            1.566787717147     0.961107819846    -0.235899941871    12.000000000000
         C            1.318688717147    -1.422352180154     0.250021058129    12.000000000000
         C            2.953294717147     0.796357819846    -0.134212941871    12.000000000000
         C            0.968497717147     2.306632819846    -0.549140941871    12.000000000000
         C            2.704672717147    -1.562435180154     0.329322058129    12.000000000000
         C            3.522515717147    -0.447639180154     0.143350058129    12.000000000000
         H           -2.752192282853     0.288544819846    -1.763231941871     1.007825032230
         H           -3.407722282853    -1.368551180154    -1.581249941871     1.007825032230
         H           -3.215362282853     1.069689819846     1.855354058129     1.007825032230
         H           -2.650138282853     1.760309819846     0.302596058129     1.007825032230
         H           -1.463871282853    -1.998530180154    -0.170485941871     1.007825032230
         H           -0.877310282853    -1.343062180154    -1.710753941871     1.007825032230
         H           -0.687710282853     1.102674819846     1.650520058129     1.007825032230
         H           -1.309074282853    -0.544456180154     1.842185058129     1.007825032230
         H           -4.416076282853     0.183951819846    -0.040132941871     1.007825032230
         H           -3.595003282853    -1.000427180154     0.757643058129     1.007825032230
         H            0.684898717147    -2.292266180154     0.408735058129     1.007825032230
         H            3.598738717147     1.658511819846    -0.289349941871     1.007825032230
         H            0.171601717147     2.217032819846    -1.291576941871     1.007825032230
         H            0.540742717147     2.782028819846     0.341737058129     1.007825032230
         H            1.734721717147     2.981150819846    -0.938576941871     1.007825032230
         H            3.140060717147    -2.534252180154     0.546088058129     1.007825032230
         H            4.602873717147    -0.547174180154     0.204738058129     1.007825032230

  Basis Set: AUG-CC-PVTZ
    Blend: AUG-CC-PVTZ
  Basis Set: (AUG-CC-PVTZ AUX)
    Blend: AUG-CC-PVTZ-JKFIT
	 Reference Energy          =    -535.3084490441864318 [Eh]
	 Singles Energy            =      -0.0000000000000000 [Eh]
	 Same-Spin Energy          =      -0.5854194825214161 [Eh]
	 Opposite-Spin Energy      =      -1.9171768288691555 [Eh]
	 Correlation Energy        =      -2.5025963113905716 [Eh]
	 Total Energy              =    -537.8110453555769936 [Eh]

	 ================> DF-SCS-MP2 Energies <==================
	-----------------------------------------------------------
	 SCS Same-Spin Scale       =       0.3333333333333333 [-]
	 SCS Opposite-Spin Scale   =       1.2000000000000000 [-]
	 SCS Same-Spin Energy      =      -0.1951398275071387 [Eh]
	 SCS Opposite-Spin Energy  =      -2.3006121946429867 [Eh]
	 SCS Correlation Energy    =      -2.4957520221501253 [Eh]
	 SCS Total Energy          =    -537.8042010663365318 [Eh]
	-----------------------------------------------------------

  Dipole Moment: [D]
     X:   -12.0677      Y:    -0.6532      Z:     0.7441     Total:    12.1083

*** Psi4 exiting successfully. Buy a developer a beer!
