                               Psi4 1.4a3.dev225

  ==> Input File <==

--------------------------------------------------------------------------
#psi4
#
memory 32 gb

molecule  {
1 1
  N       -3.4197460    -0.1817000     0.1602720
  N       -0.6214370    -0.0078370    -0.1287630
  C       -2.7377630    -0.6049400    -1.1216890
  C       -2.6265040     0.8533270     0.9259500
  C       -1.3397990    -1.0900720    -0.7822260
  C       -1.2076019     0.3537915     1.1280434
  C        0.8091060    -0.1845140    -0.0397240
  C        1.6179690     0.9496740    -0.2359790
  C        1.3698700    -1.4337860     0.2499420
  C        3.0044760     0.7849240    -0.1342920
  C        1.0196790     2.2951990    -0.5492200
  C        2.7558540    -1.5738690     0.3292430
  C        3.5736970    -0.4590730     0.1432710
  H       -2.7010110     0.2771110    -1.7633110
  H       -3.3565410    -1.3799850    -1.5813290
  H       -3.1641810     1.0582560     1.8552750
  H       -2.5989570     1.7488760     0.3025170
  H       -1.4126900    -2.0099640    -0.1705650
  H       -0.8261290    -1.3544960    -1.7108330
  H       -0.6365290     1.0912410     1.6504410
  H       -1.2578930    -0.5558900     1.8421060
  H       -4.3648950     0.1725180    -0.0402120
  H       -3.5438220    -1.0118610     0.7575640
  H        0.7360800    -2.3037000     0.4086560
  H        3.6499200     1.6470780    -0.2894290
  H        0.2227830     2.2055990    -1.2916560
  H        0.5919240     2.7705950     0.3416580
  H        1.7859030     2.9697170    -0.9386560
  H        3.1912420    -2.5456860     0.5460090
  H        4.6540550    -0.5586080     0.2046590
units angstrom
no_reorient  #important for SAPT in psi4, default
symmetry c1  #important for SAPT in psi4, default
}

set PROPERTIES_ORIGIN ["COM"]
properties('MP2/aug-cc-pvtz', properties = ['dipole'])
--------------------------------------------------------------------------

    Molecular point group: c1
  Charge       = 1
  Multiplicity = 1
  Basis Set: AUG-CC-PVTZ
    Blend: AUG-CC-PVTZ
  Basis Set: (AUG-CC-PVTZ AUX)
    Blend: AUG-CC-PVTZ-JKFIT

    Orbital Energies [Eh]
    ---------------------

    Doubly Occupied:

       1A    -15.867309     2A    -15.703495     3A    -11.457506
       4A    -11.456441     5A    -11.419124     6A    -11.418986
       7A    -11.375939     8A    -11.344791     9A    -11.340537
      10A    -11.332068    11A    -11.330180    12A    -11.328867
      13A    -11.324172    14A     -1.497948    15A     -1.395267
      16A     -1.250558    17A     -1.222589    18A     -1.156070
      19A     -1.143182    20A     -1.089277    21A     -1.055861
      22A     -1.032537    23A     -0.994127    24A     -0.935589
      25A     -0.925977    26A     -0.904060    27A     -0.866919
      28A     -0.822021    29A     -0.810546    30A     -0.796983
      31A     -0.792142    32A     -0.756671    33A     -0.745291
      34A     -0.736122    35A     -0.714672    36A     -0.703862
      37A     -0.681434    38A     -0.676044    39A     -0.670263
      40A     -0.663890    41A     -0.656883    42A     -0.641215
      43A     -0.599216    44A     -0.592205    45A     -0.588811
      46A     -0.519137    47A     -0.433792    48A     -0.423699

  @DF-RHF Final Energy:  -535.30627503201288

   => Energetics <=

    Nuclear Repulsion Energy =            820.7427833772646864
    One-Electron Energy =               -2339.7095642655390293
    Two-Electron Energy =                 983.6605058562614659
    Total Energy =                       -535.3062750320128771
  Basis Set: (AUG-CC-PVTZ AUX)
    Blend: AUG-CC-PVTZ-RI
    Molecular point group: c1

    Geometry (in Angstrom), charge = 1, multiplicity = 1:

       Center              X                  Y                   Z               Mass
    ------------   -----------------  -----------------  -----------------  -----------------
         N           -3.471555013003    -0.171945049904     0.162954008063    14.003074004430
         N           -0.673246013003     0.001917950096    -0.126080991937    14.003074004430
         C           -2.789572013003    -0.595185049904    -1.119006991937    12.000000000000
         C           -2.678313013003     0.863081950096     0.928632008063    12.000000000000
         C           -1.391608013003    -1.080317049904    -0.779543991937    12.000000000000
         C           -1.259410913003     0.363546450096     1.130725408063    12.000000000000
         C            0.757296986997    -0.174759049904    -0.037041991937    12.000000000000
         C            1.566159986997     0.959428950096    -0.233296991937    12.000000000000
         C            1.318060986997    -1.424031049904     0.252624008063    12.000000000000
         C            2.952666986997     0.794678950096    -0.131609991937    12.000000000000
         C            0.967869986997     2.304953950096    -0.546537991937    12.000000000000
         C            2.704044986997    -1.564114049904     0.331925008063    12.000000000000
         C            3.521887986997    -0.449318049904     0.145953008063    12.000000000000
         H           -2.752820013003     0.286865950096    -1.760628991937     1.007825032230
         H           -3.408350013003    -1.370230049904    -1.578646991937     1.007825032230
         H           -3.215990013003     1.068010950096     1.857957008063     1.007825032230
         H           -2.650766013003     1.758630950096     0.305199008063     1.007825032230
         H           -1.464499013003    -2.000209049904    -0.167882991937     1.007825032230
         H           -0.877938013003    -1.344741049904    -1.708150991937     1.007825032230
         H           -0.688338013003     1.100995950096     1.653123008063     1.007825032230
         H           -1.309702013003    -0.546135049904     1.844788008063     1.007825032230
         H           -4.416704013003     0.182272950096    -0.037529991937     1.007825032230
         H           -3.595631013003    -1.002106049904     0.760246008063     1.007825032230
         H            0.684270986997    -2.293945049904     0.411338008063     1.007825032230
         H            3.598110986997     1.656832950096    -0.286746991937     1.007825032230
         H            0.170973986997     2.215353950096    -1.288973991937     1.007825032230
         H            0.540114986997     2.780349950096     0.344340008063     1.007825032230
         H            1.734093986997     2.979471950096    -0.935973991937     1.007825032230
         H            3.139432986997    -2.535931049904     0.548691008063     1.007825032230
         H            4.602245986997    -0.548853049904     0.207341008063     1.007825032230

  Basis Set: AUG-CC-PVTZ
    Blend: AUG-CC-PVTZ
  Basis Set: (AUG-CC-PVTZ AUX)
    Blend: AUG-CC-PVTZ-JKFIT
	 Reference Energy          =    -535.3062750320128771 [Eh]
	 Singles Energy            =      -0.0000000000000000 [Eh]
	 Same-Spin Energy          =      -0.5854841326416560 [Eh]
	 Opposite-Spin Energy      =      -1.9171896711010359 [Eh]
	 Correlation Energy        =      -2.5026738037426917 [Eh]
	 Total Energy              =    -537.8089488357555865 [Eh]

	 ================> DF-SCS-MP2 Energies <==================
	-----------------------------------------------------------
	 SCS Same-Spin Scale       =       0.3333333333333333 [-]
	 SCS Opposite-Spin Scale   =       1.2000000000000000 [-]
	 SCS Same-Spin Energy      =      -0.1951613775472187 [Eh]
	 SCS Opposite-Spin Energy  =      -2.3006276053212429 [Eh]
	 SCS Correlation Energy    =      -2.4957889828684614 [Eh]
	 SCS Total Energy          =    -537.8020640148813527 [Eh]
	-----------------------------------------------------------

  Dipole Moment: [D]
     X:   -12.0800      Y:    -0.6549      Z:     0.6463     Total:    12.1150

*** Psi4 exiting successfully. Buy a developer a beer!
