                               Psi4 1.4a3.dev225

  ==> Input File <==

--------------------------------------------------------------------------
#psi4
#
memory 32 gb

molecule  {
1 1
  N       -3.4197460    -0.1817000     0.1602720
  N       -0.6214370    -0.0078370    -0.1287630
  C       -2.7377630    -0.6049400    -1.1216890
  C       -2.6059628     0.8904009     0.8941657
  C       -1.3397990    -1.0900720    -0.7822260
  C       -1.2267490     0.3141230     1.1574790
  C        0.8091060    -0.1845140    -0.0397240
  C        1.6179690     0.9496740    -0.2359790
  C        1.3698700    -1.4337860     0.2499420
  C        3.0044760     0.7849240    -0.1342920
  C        1.0196790     2.2951990    -0.5492200
  C        2.7558540    -1.5738690     0.3292430
  C        3.5736970    -0.4590730     0.1432710
  H       -2.7010110     0.2771110    -1.7633110
  H       -3.3565410    -1.3799850    -1.5813290
  H       -3.1641810     1.0582560     1.8552750
  H       -2.5989570     1.7488760     0.3025170
  H       -1.4126900    -2.0099640    -0.1705650
  H       -0.8261290    -1.3544960    -1.7108330
  H       -0.6365290     1.0912410     1.6504410
  H       -1.2578930    -0.5558900     1.8421060
  H       -4.3648950     0.1725180    -0.0402120
  H       -3.5438220    -1.0118610     0.7575640
  H        0.7360800    -2.3037000     0.4086560
  H        3.6499200     1.6470780    -0.2894290
  H        0.2227830     2.2055990    -1.2916560
  H        0.5919240     2.7705950     0.3416580
  H        1.7859030     2.9697170    -0.9386560
  H        3.1912420    -2.5456860     0.5460090
  H        4.6540550    -0.5586080     0.2046590
units angstrom
no_reorient  #important for SAPT in psi4, default
symmetry c1  #important for SAPT in psi4, default
}

set PROPERTIES_ORIGIN ["COM"]
properties('MP2/aug-cc-pvtz', properties = ['dipole'])
--------------------------------------------------------------------------

    Molecular point group: c1
  Charge       = 1
  Multiplicity = 1
  Basis Set: AUG-CC-PVTZ
    Blend: AUG-CC-PVTZ
  Basis Set: (AUG-CC-PVTZ AUX)
    Blend: AUG-CC-PVTZ-JKFIT

    Orbital Energies [Eh]
    ---------------------

    Doubly Occupied:

       1A    -15.864686     2A    -15.702654     3A    -11.457888
       4A    -11.455584     5A    -11.417824     6A    -11.417163
       7A    -11.375096     8A    -11.344415     9A    -11.340169
      10A    -11.331874    11A    -11.329961    12A    -11.328648
      13A    -11.323893    14A     -1.493015    15A     -1.390114
      16A     -1.250004    17A     -1.221041    18A     -1.155985
      19A     -1.142843    20A     -1.088738    21A     -1.051876
      22A     -1.032409    23A     -0.997502    24A     -0.933462
      25A     -0.922413    26A     -0.902959    27A     -0.865065
      28A     -0.829036    29A     -0.810752    30A     -0.791760
      31A     -0.784503    32A     -0.754820    33A     -0.745941
      34A     -0.732194    35A     -0.717537    36A     -0.707576
      37A     -0.691603    38A     -0.675377    39A     -0.669449
      40A     -0.658171    41A     -0.653677    42A     -0.640600
      43A     -0.600178    44A     -0.591489    45A     -0.588048
      46A     -0.521969    47A     -0.433598    48A     -0.423518

  @DF-RHF Final Energy:  -535.30539679894150

   => Energetics <=

    Nuclear Repulsion Energy =            820.3387918787245781
    One-Electron Energy =               -2338.9702248773473912
    Two-Electron Energy =                 983.3260361996813117
    Total Energy =                       -535.3053967989415014
  Basis Set: (AUG-CC-PVTZ AUX)
    Blend: AUG-CC-PVTZ-RI
    Molecular point group: c1

    Geometry (in Angstrom), charge = 1, multiplicity = 1:

       Center              X                  Y                   Z               Mass
    ------------   -----------------  -----------------  -----------------  -----------------
         N           -3.471649453999    -0.171769283023     0.163113116855    14.003074004430
         N           -0.673340453999     0.002093716977    -0.125921883145    14.003074004430
         C           -2.789666453999    -0.595009283023    -1.118847883145    12.000000000000
         C           -2.657866253999     0.900331616977     0.897006816855    12.000000000000
         C           -1.391702453999    -1.080141283023    -0.779384883145    12.000000000000
         C           -1.278652453999     0.324053716977     1.160320116855    12.000000000000
         C            0.757202546001    -0.174583283023    -0.036882883145    12.000000000000
         C            1.566065546001     0.959604716977    -0.233137883145    12.000000000000
         C            1.317966546001    -1.423855283023     0.252783116855    12.000000000000
         C            2.952572546001     0.794854716977    -0.131450883145    12.000000000000
         C            0.967775546001     2.305129716977    -0.546378883145    12.000000000000
         C            2.703950546001    -1.563938283023     0.332084116855    12.000000000000
         C            3.521793546001    -0.449142283023     0.146112116855    12.000000000000
         H           -2.752914453999     0.287041716977    -1.760469883145     1.007825032230
         H           -3.408444453999    -1.370054283023    -1.578487883145     1.007825032230
         H           -3.216084453999     1.068186716977     1.858116116855     1.007825032230
         H           -2.650860453999     1.758806716977     0.305358116855     1.007825032230
         H           -1.464593453999    -2.000033283023    -0.167723883145     1.007825032230
         H           -0.878032453999    -1.344565283023    -1.707991883145     1.007825032230
         H           -0.688432453999     1.101171716977     1.653282116855     1.007825032230
         H           -1.309796453999    -0.545959283023     1.844947116855     1.007825032230
         H           -4.416798453999     0.182448716977    -0.037370883145     1.007825032230
         H           -3.595725453999    -1.001930283023     0.760405116855     1.007825032230
         H            0.684176546001    -2.293769283023     0.411497116855     1.007825032230
         H            3.598016546001     1.657008716977    -0.286587883145     1.007825032230
         H            0.170879546001     2.215529716977    -1.288814883145     1.007825032230
         H            0.540020546001     2.780525716977     0.344499116855     1.007825032230
         H            1.733999546001     2.979647716977    -0.935814883145     1.007825032230
         H            3.139338546001    -2.535755283023     0.548850116855     1.007825032230
         H            4.602151546001    -0.548677283023     0.207500116855     1.007825032230

  Basis Set: AUG-CC-PVTZ
    Blend: AUG-CC-PVTZ
  Basis Set: (AUG-CC-PVTZ AUX)
    Blend: AUG-CC-PVTZ-JKFIT
	 Reference Energy          =    -535.3053967989415014 [Eh]
	 Singles Energy            =      -0.0000000000000000 [Eh]
	 Same-Spin Energy          =      -0.5852426554203993 [Eh]
	 Opposite-Spin Energy      =      -1.9173589577263359 [Eh]
	 Correlation Energy        =      -2.5026016131467355 [Eh]
	 Total Energy              =    -537.8079984120881818 [Eh]

	 ================> DF-SCS-MP2 Energies <==================
	-----------------------------------------------------------
	 SCS Same-Spin Scale       =       0.3333333333333333 [-]
	 SCS Opposite-Spin Scale   =       1.2000000000000000 [-]
	 SCS Same-Spin Energy      =      -0.1950808851401331 [Eh]
	 SCS Opposite-Spin Energy  =      -2.3008307492716029 [Eh]
	 SCS Correlation Energy    =      -2.4959116344117360 [Eh]
	 SCS Total Energy          =    -537.8013084333532561 [Eh]
	-----------------------------------------------------------

  Dipole Moment: [D]
     X:   -12.0768      Y:    -0.6539      Z:     0.7475     Total:    12.1176

*** Psi4 exiting successfully. Buy a developer a beer!
