                               Psi4 1.4a3.dev225

  ==> Input File <==

--------------------------------------------------------------------------
#psi4
#
memory 32 gb

molecule  {
1 1
  N       -3.4197460    -0.1817000     0.1602720
  N       -0.6214370    -0.0078370    -0.1287630
  C       -2.7377630    -0.6049400    -1.1216890
  C       -2.6265040     0.8533270     0.9259500
  C       -1.3397990    -1.0900720    -0.7822260
  C       -1.2267490     0.3141230     1.1574790
  C        0.8091060    -0.1845140    -0.0397240
  C        1.6179690     0.9496740    -0.2359790
  C        1.3698700    -1.4337860     0.2499420
  C        3.0044760     0.7849240    -0.1342920
  C        1.0196790     2.2951990    -0.5492200
  C        2.9545186    -1.5939483     0.3406099
  C        3.5736970    -0.4590730     0.1432710
  H       -2.7010110     0.2771110    -1.7633110
  H       -3.3565410    -1.3799850    -1.5813290
  H       -3.1641810     1.0582560     1.8552750
  H       -2.5989570     1.7488760     0.3025170
  H       -1.4126900    -2.0099640    -0.1705650
  H       -0.8261290    -1.3544960    -1.7108330
  H       -0.6365290     1.0912410     1.6504410
  H       -1.2578930    -0.5558900     1.8421060
  H       -4.3648950     0.1725180    -0.0402120
  H       -3.5438220    -1.0118610     0.7575640
  H        0.7360800    -2.3037000     0.4086560
  H        3.6499200     1.6470780    -0.2894290
  H        0.2227830     2.2055990    -1.2916560
  H        0.5919240     2.7705950     0.3416580
  H        1.7859030     2.9697170    -0.9386560
  H        3.1912420    -2.5456860     0.5460090
  H        4.6540550    -0.5586080     0.2046590
units angstrom
no_reorient  #important for SAPT in psi4, default
symmetry c1  #important for SAPT in psi4, default
}

set PROPERTIES_ORIGIN ["COM"]
properties('MP2/aug-cc-pvtz', properties = ['dipole'])
--------------------------------------------------------------------------

    Molecular point group: c1
  Charge       = 1
  Multiplicity = 1
  Basis Set: AUG-CC-PVTZ
    Blend: AUG-CC-PVTZ
  Basis Set: (AUG-CC-PVTZ AUX)
    Blend: AUG-CC-PVTZ-JKFIT

    Orbital Energies [Eh]
    ---------------------

    Doubly Occupied:

       1A    -15.866597     2A    -15.703382     3A    -11.456847
       4A    -11.456606     5A    -11.417521     6A    -11.417283
       7A    -11.377035     8A    -11.354302     9A    -11.346038
      10A    -11.334319    11A    -11.330614    12A    -11.324156
      13A    -11.320103    14A     -1.497515    15A     -1.390292
      16A     -1.244704    17A     -1.221816    18A     -1.161763
      19A     -1.136223    20A     -1.082738    21A     -1.053365
      22A     -1.035094    23A     -0.997656    24A     -0.937270
      25A     -0.924316    26A     -0.904368    27A     -0.867307
      28A     -0.823686    29A     -0.814252    30A     -0.794702
      31A     -0.788445    32A     -0.750264    33A     -0.745671
      34A     -0.734660    35A     -0.727575    36A     -0.711782
      37A     -0.687474    38A     -0.678615    39A     -0.665655
      40A     -0.660419    41A     -0.652000    42A     -0.634016
      43A     -0.613533    44A     -0.583623    45A     -0.562050
      46A     -0.521426    47A     -0.444828    48A     -0.412621

  @DF-RHF Final Energy:  -535.26776869907724

   => Energetics <=

    Nuclear Repulsion Energy =            817.6410616608322925
    One-Electron Energy =               -2333.4846099100691390
    Two-Electron Energy =                 980.5757795501596092
    Total Energy =                       -535.2677686990772372
  Basis Set: (AUG-CC-PVTZ AUX)
    Blend: AUG-CC-PVTZ-RI
    Molecular point group: c1

    Geometry (in Angstrom), charge = 1, multiplicity = 1:

       Center              X                  Y                   Z               Mass
    ------------   -----------------  -----------------  -----------------  -----------------
         N           -3.483716128790    -0.167897534125     0.160189910262    14.003074004430
         N           -0.685407128790     0.005965465875    -0.128845089738    14.003074004430
         C           -2.801733128790    -0.591137534125    -1.121771089738    12.000000000000
         C           -2.690474128790     0.867129465875     0.925867910262    12.000000000000
         C           -1.403769128790    -1.076269534125    -0.782308089738    12.000000000000
         C           -1.290719128790     0.327925465875     1.157396910262    12.000000000000
         C            0.745135871210    -0.170711534125    -0.039806089738    12.000000000000
         C            1.553998871210     0.963476465875    -0.236061089738    12.000000000000
         C            1.305899871210    -1.419983534125     0.249859910262    12.000000000000
         C            2.940505871210     0.798726465875    -0.134374089738    12.000000000000
         C            0.955708871210     2.309001465875    -0.549302089738    12.000000000000
         C            2.890548471210    -1.580145834125     0.340527810262    12.000000000000
         C            3.509726871210    -0.445270534125     0.143188910262    12.000000000000
         H           -2.764981128790     0.290913465875    -1.763393089738     1.007825032230
         H           -3.420511128790    -1.366182534125    -1.581411089738     1.007825032230
         H           -3.228151128790     1.072058465875     1.855192910262     1.007825032230
         H           -2.662927128790     1.762678465875     0.302434910262     1.007825032230
         H           -1.476660128790    -1.996161534125    -0.170647089738     1.007825032230
         H           -0.890099128790    -1.340693534125    -1.710915089738     1.007825032230
         H           -0.700499128790     1.105043465875     1.650358910262     1.007825032230
         H           -1.321863128790    -0.542087534125     1.842023910262     1.007825032230
         H           -4.428865128790     0.186320465875    -0.040294089738     1.007825032230
         H           -3.607792128790    -0.998058534125     0.757481910262     1.007825032230
         H            0.672109871210    -2.289897534125     0.408573910262     1.007825032230
         H            3.585949871210     1.660880465875    -0.289511089738     1.007825032230
         H            0.158812871210     2.219401465875    -1.291738089738     1.007825032230
         H            0.527953871210     2.784397465875     0.341575910262     1.007825032230
         H            1.721932871210     2.983519465875    -0.938738089738     1.007825032230
         H            3.127271871210    -2.531883534125     0.545926910262     1.007825032230
         H            4.590084871210    -0.544805534125     0.204576910262     1.007825032230

  Basis Set: AUG-CC-PVTZ
    Blend: AUG-CC-PVTZ
  Basis Set: (AUG-CC-PVTZ AUX)
    Blend: AUG-CC-PVTZ-JKFIT
	 Reference Energy          =    -535.2677686990772372 [Eh]
	 Singles Energy            =      -0.0000000000000000 [Eh]
	 Same-Spin Energy          =      -0.5847267932314720 [Eh]
	 Opposite-Spin Energy      =      -1.9195485333467910 [Eh]
	 Correlation Energy        =      -2.5042753265782629 [Eh]
	 Total Energy              =    -537.7720440256555321 [Eh]

	 ================> DF-SCS-MP2 Energies <==================
	-----------------------------------------------------------
	 SCS Same-Spin Scale       =       0.3333333333333333 [-]
	 SCS Opposite-Spin Scale   =       1.2000000000000000 [-]
	 SCS Same-Spin Energy      =      -0.1949089310771573 [Eh]
	 SCS Opposite-Spin Energy  =      -2.3034582400161492 [Eh]
	 SCS Correlation Energy    =      -2.4983671710933066 [Eh]
	 SCS Total Energy          =    -537.7661358701705012 [Eh]
	-----------------------------------------------------------

  Dipole Moment: [D]
     X:   -12.1791      Y:    -0.7058      Z:     0.7366     Total:    12.2217

*** Psi4 exiting successfully. Buy a developer a beer!
