                               Psi4 1.4a3.dev225

  ==> Input File <==

--------------------------------------------------------------------------
#psi4
#
memory 32 gb

molecule  {
1 1
  N       -3.4197460    -0.1817000     0.1602720
  N       -0.6214370    -0.0078370    -0.1287630
  C       -2.7377630    -0.6049400    -1.1216890
  C       -2.6265040     0.8533270     0.9259500
  C       -1.1556367    -1.1539814    -0.7375065
  C       -1.2267490     0.3141230     1.1574790
  C        0.8091060    -0.1845140    -0.0397240
  C        1.6179690     0.9496740    -0.2359790
  C        1.3698700    -1.4337860     0.2499420
  C        3.0044760     0.7849240    -0.1342920
  C        1.0196790     2.2951990    -0.5492200
  C        2.7558540    -1.5738690     0.3292430
  C        3.5736970    -0.4590730     0.1432710
  H       -2.7010110     0.2771110    -1.7633110
  H       -3.3565410    -1.3799850    -1.5813290
  H       -3.1641810     1.0582560     1.8552750
  H       -2.5989570     1.7488760     0.3025170
  H       -1.4126900    -2.0099640    -0.1705650
  H       -0.8261290    -1.3544960    -1.7108330
  H       -0.6365290     1.0912410     1.6504410
  H       -1.2578930    -0.5558900     1.8421060
  H       -4.3648950     0.1725180    -0.0402120
  H       -3.5438220    -1.0118610     0.7575640
  H        0.7360800    -2.3037000     0.4086560
  H        3.6499200     1.6470780    -0.2894290
  H        0.2227830     2.2055990    -1.2916560
  H        0.5919240     2.7705950     0.3416580
  H        1.7859030     2.9697170    -0.9386560
  H        3.1912420    -2.5456860     0.5460090
  H        4.6540550    -0.5586080     0.2046590
units angstrom
no_reorient  #important for SAPT in psi4, default
symmetry c1  #important for SAPT in psi4, default
}

set PROPERTIES_ORIGIN ["COM"]
properties('MP2/aug-cc-pvtz', properties = ['dipole'])
--------------------------------------------------------------------------

    Molecular point group: c1
  Charge       = 1
  Multiplicity = 1
  Basis Set: AUG-CC-PVTZ
    Blend: AUG-CC-PVTZ
  Basis Set: (AUG-CC-PVTZ AUX)
    Blend: AUG-CC-PVTZ-JKFIT

    Orbital Energies [Eh]
    ---------------------

    Doubly Occupied:

       1A    -15.862973     2A    -15.707666     3A    -11.455932
       4A    -11.448602     5A    -11.422870     6A    -11.421697
       7A    -11.375772     8A    -11.345234     9A    -11.342042
      10A    -11.333730    11A    -11.331324    12A    -11.329925
      13A    -11.325032    14A     -1.490516    15A     -1.406316
      16A     -1.251000    17A     -1.209837    18A     -1.151312
      19A     -1.135520    20A     -1.085098    21A     -1.063154
      22A     -1.033165    23A     -0.997156    24A     -0.934021
      25A     -0.923958    26A     -0.904668    27A     -0.867831
      28A     -0.820214    29A     -0.811193    30A     -0.805604
      31A     -0.792322    32A     -0.756838    33A     -0.744403
      34A     -0.726477    35A     -0.708966    36A     -0.703232
      37A     -0.692768    38A     -0.680240    39A     -0.675449
      40A     -0.667770    41A     -0.642485    42A     -0.622888
      43A     -0.602936    44A     -0.591652    45A     -0.586226
      46A     -0.527022    47A     -0.434683    48A     -0.424429

  @DF-RHF Final Energy:  -535.27797907875879

   => Energetics <=

    Nuclear Repulsion Energy =            820.3231280327969444
    One-Electron Energy =               -2338.8539219397844136
    Two-Electron Energy =                 983.2528148282287930
    Total Energy =                       -535.2779790787587899
  Basis Set: (AUG-CC-PVTZ AUX)
    Blend: AUG-CC-PVTZ-RI
    Molecular point group: c1

    Geometry (in Angstrom), charge = 1, multiplicity = 1:

       Center              X                  Y                   Z               Mass
    ------------   -----------------  -----------------  -----------------  -----------------
         N           -3.482733694490    -0.164928336576     0.157930493601    14.003074004430
         N           -0.684424694490     0.008934663424    -0.131104506399    14.003074004430
         C           -2.800750694490    -0.588168336576    -1.124030506399    12.000000000000
         C           -2.689491694490     0.870098663424     0.923608493601    12.000000000000
         C           -1.218624394490    -1.137209736576    -0.739848006399    12.000000000000
         C           -1.289736694490     0.330894663424     1.155137493601    12.000000000000
         C            0.746118305510    -0.167742336576    -0.042065506399    12.000000000000
         C            1.554981305510     0.966445663424    -0.238320506399    12.000000000000
         C            1.306882305510    -1.417014336576     0.247600493601    12.000000000000
         C            2.941488305510     0.801695663424    -0.136633506399    12.000000000000
         C            0.956691305510     2.311970663424    -0.551561506399    12.000000000000
         C            2.692866305510    -1.557097336576     0.326901493601    12.000000000000
         C            3.510709305510    -0.442301336576     0.140929493601    12.000000000000
         H           -2.763998694490     0.293882663424    -1.765652506399     1.007825032230
         H           -3.419528694490    -1.363213336576    -1.583670506399     1.007825032230
         H           -3.227168694490     1.075027663424     1.852933493601     1.007825032230
         H           -2.661944694490     1.765647663424     0.300175493601     1.007825032230
         H           -1.475677694490    -1.993192336576    -0.172906506399     1.007825032230
         H           -0.889116694490    -1.337724336576    -1.713174506399     1.007825032230
         H           -0.699516694490     1.108012663424     1.648099493601     1.007825032230
         H           -1.320880694490    -0.539118336576     1.839764493601     1.007825032230
         H           -4.427882694490     0.189289663424    -0.042553506399     1.007825032230
         H           -3.606809694490    -0.995089336576     0.755222493601     1.007825032230
         H            0.673092305510    -2.286928336576     0.406314493601     1.007825032230
         H            3.586932305510     1.663849663424    -0.291770506399     1.007825032230
         H            0.159795305510     2.222370663424    -1.293997506399     1.007825032230
         H            0.528936305510     2.787366663424     0.339316493601     1.007825032230
         H            1.722915305510     2.986488663424    -0.940997506399     1.007825032230
         H            3.128254305510    -2.528914336576     0.543667493601     1.007825032230
         H            4.591067305510    -0.541836336576     0.202317493601     1.007825032230

  Basis Set: AUG-CC-PVTZ
    Blend: AUG-CC-PVTZ
  Basis Set: (AUG-CC-PVTZ AUX)
    Blend: AUG-CC-PVTZ-JKFIT
	 Reference Energy          =    -535.2779790787587899 [Eh]
	 Singles Energy            =      -0.0000000000000000 [Eh]
	 Same-Spin Energy          =      -0.5860344338075070 [Eh]
	 Opposite-Spin Energy      =      -1.9195346523688934 [Eh]
	 Correlation Energy        =      -2.5055690861764006 [Eh]
	 Total Energy              =    -537.7835481649351550 [Eh]

	 ================> DF-SCS-MP2 Energies <==================
	-----------------------------------------------------------
	 SCS Same-Spin Scale       =       0.3333333333333333 [-]
	 SCS Opposite-Spin Scale   =       1.2000000000000000 [-]
	 SCS Same-Spin Energy      =      -0.1953448112691690 [Eh]
	 SCS Opposite-Spin Energy  =      -2.3034415828426722 [Eh]
	 SCS Correlation Energy    =      -2.4987863941118413 [Eh]
	 SCS Total Energy          =    -537.7767654728705793 [Eh]
	-----------------------------------------------------------

  Dipole Moment: [D]
     X:   -11.8721      Y:    -0.6568      Z:     0.9205     Total:    11.9258

*** Psi4 exiting successfully. Buy a developer a beer!
