                               Psi4 1.4a3.dev225

  ==> Input File <==

--------------------------------------------------------------------------
#psi4
#
memory 32 gb

molecule  {
1 1
  N       -3.4197460    -0.1817000     0.1602720
  N       -0.6214370    -0.0078370    -0.1287630
  C       -2.7377630    -0.6049400    -1.1216890
  C       -2.6265040     0.8533270     0.9259500
  C       -1.3397990    -1.0900720    -0.7822260
  C       -1.2267490     0.3141230     1.1574790
  C        0.8091060    -0.1845140    -0.0397240
  C        1.6179690     0.9496740    -0.2359790
  C        1.3698700    -1.4337860     0.2499420
  C        3.0044760     0.7849240    -0.1342920
  C        1.0196790     2.2951990    -0.5492200
  C        2.8055201    -1.5788888     0.3320847
  C        3.5736970    -0.4590730     0.1432710
  H       -2.7010110     0.2771110    -1.7633110
  H       -3.3565410    -1.3799850    -1.5813290
  H       -3.1641810     1.0582560     1.8552750
  H       -2.5989570     1.7488760     0.3025170
  H       -1.4126900    -2.0099640    -0.1705650
  H       -0.8261290    -1.3544960    -1.7108330
  H       -0.6365290     1.0912410     1.6504410
  H       -1.2578930    -0.5558900     1.8421060
  H       -4.3648950     0.1725180    -0.0402120
  H       -3.5438220    -1.0118610     0.7575640
  H        0.7360800    -2.3037000     0.4086560
  H        3.6499200     1.6470780    -0.2894290
  H        0.2227830     2.2055990    -1.2916560
  H        0.5919240     2.7705950     0.3416580
  H        1.7859030     2.9697170    -0.9386560
  H        3.1912420    -2.5456860     0.5460090
  H        4.6540550    -0.5586080     0.2046590
units angstrom
no_reorient  #important for SAPT in psi4, default
symmetry c1  #important for SAPT in psi4, default
}

set PROPERTIES_ORIGIN ["COM"]
properties('MP2/aug-cc-pvtz', properties = ['dipole'])
--------------------------------------------------------------------------

    Molecular point group: c1
  Charge       = 1
  Multiplicity = 1
  Basis Set: AUG-CC-PVTZ
    Blend: AUG-CC-PVTZ
  Basis Set: (AUG-CC-PVTZ AUX)
    Blend: AUG-CC-PVTZ-JKFIT

    Orbital Energies [Eh]
    ---------------------

    Doubly Occupied:

       1A    -15.866674     2A    -15.703250     3A    -11.456849
       4A    -11.456812     5A    -11.417557     6A    -11.417408
       7A    -11.375863     8A    -11.345006     9A    -11.344615
      10A    -11.332402    11A    -11.329941    12A    -11.326341
      13A    -11.323666    14A     -1.497587    15A     -1.390355
      16A     -1.248057    17A     -1.221910    18A     -1.156750
      19A     -1.140011    20A     -1.086934    21A     -1.053536
      22A     -1.032471    23A     -0.996813    24A     -0.936011
      25A     -0.924185    26A     -0.903761    27A     -0.867002
      28A     -0.823773    29A     -0.811245    30A     -0.793669
      31A     -0.788584    32A     -0.753772    33A     -0.743801
      34A     -0.734508    35A     -0.716706    36A     -0.707327
      37A     -0.687742    38A     -0.676148    39A     -0.666576
      40A     -0.660268    41A     -0.656186    42A     -0.639665
      43A     -0.604035    44A     -0.588049    45A     -0.586106
      46A     -0.522200    47A     -0.433153    48A     -0.422844

  @DF-RHF Final Energy:  -535.30580219154172

   => Energetics <=

    Nuclear Repulsion Energy =            819.5895368848310909
    One-Electron Energy =               -2337.4544281253283771
    Two-Electron Energy =                 982.5590890489556841
    Total Energy =                       -535.3058021915417157
  Basis Set: (AUG-CC-PVTZ AUX)
    Blend: AUG-CC-PVTZ-RI
    Molecular point group: c1

    Geometry (in Angstrom), charge = 1, multiplicity = 1:

       Center              X                  Y                   Z               Mass
    ------------   -----------------  -----------------  -----------------  -----------------
         N           -3.473622472124    -0.168917715016     0.160767435820    14.003074004430
         N           -0.675313472124     0.004945284984    -0.128267564180    14.003074004430
         C           -2.791639472124    -0.592157715016    -1.121193564180    12.000000000000
         C           -2.680380472124     0.866109284984     0.926445435820    12.000000000000
         C           -1.393675472124    -1.077289715016    -0.781730564180    12.000000000000
         C           -1.280625472124     0.326905284984     1.157974435820    12.000000000000
         C            0.755229527876    -0.171731715016    -0.039228564180    12.000000000000
         C            1.564092527876     0.962456284984    -0.235483564180    12.000000000000
         C            1.315993527876    -1.421003715016     0.250437435820    12.000000000000
         C            2.950599527876     0.797706284984    -0.133796564180    12.000000000000
         C            0.965802527876     2.307981284984    -0.548724564180    12.000000000000
         C            2.751643627876    -1.566106515016     0.332580135820    12.000000000000
         C            3.519820527876    -0.446290715016     0.143766435820    12.000000000000
         H           -2.754887472124     0.289893284984    -1.762815564180     1.007825032230
         H           -3.410417472124    -1.367202715016    -1.580833564180     1.007825032230
         H           -3.218057472124     1.071038284984     1.855770435820     1.007825032230
         H           -2.652833472124     1.761658284984     0.303012435820     1.007825032230
         H           -1.466566472124    -1.997181715016    -0.170069564180     1.007825032230
         H           -0.880005472124    -1.341713715016    -1.710337564180     1.007825032230
         H           -0.690405472124     1.104023284984     1.650936435820     1.007825032230
         H           -1.311769472124    -0.543107715016     1.842601435820     1.007825032230
         H           -4.418771472124     0.185300284984    -0.039716564180     1.007825032230
         H           -3.597698472124    -0.999078715016     0.758059435820     1.007825032230
         H            0.682203527876    -2.290917715016     0.409151435820     1.007825032230
         H            3.596043527876     1.659860284984    -0.288933564180     1.007825032230
         H            0.168906527876     2.218381284984    -1.291160564180     1.007825032230
         H            0.538047527876     2.783377284984     0.342153435820     1.007825032230
         H            1.732026527876     2.982499284984    -0.938160564180     1.007825032230
         H            3.137365527876    -2.532903715016     0.546504435820     1.007825032230
         H            4.600178527876    -0.545825715016     0.205154435820     1.007825032230

  Basis Set: AUG-CC-PVTZ
    Blend: AUG-CC-PVTZ
  Basis Set: (AUG-CC-PVTZ AUX)
    Blend: AUG-CC-PVTZ-JKFIT
	 Reference Energy          =    -535.3058021915417157 [Eh]
	 Singles Energy            =      -0.0000000000000000 [Eh]
	 Same-Spin Energy          =      -0.5851876582959817 [Eh]
	 Opposite-Spin Energy      =      -1.9173602889212540 [Eh]
	 Correlation Energy        =      -2.5025479472172356 [Eh]
	 Total Energy              =    -537.8083501387588967 [Eh]

	 ================> DF-SCS-MP2 Energies <==================
	-----------------------------------------------------------
	 SCS Same-Spin Scale       =       0.3333333333333333 [-]
	 SCS Opposite-Spin Scale   =       1.2000000000000000 [-]
	 SCS Same-Spin Energy      =      -0.1950625527653272 [Eh]
	 SCS Opposite-Spin Energy  =      -2.3008323467055045 [Eh]
	 SCS Correlation Energy    =      -2.4958948994708319 [Eh]
	 SCS Total Energy          =    -537.8016970910125565 [Eh]
	-----------------------------------------------------------

  Dipole Moment: [D]
     X:   -12.1289      Y:    -0.6919      Z:     0.7337     Total:    12.1708

*** Psi4 exiting successfully. Buy a developer a beer!
