                               Psi4 1.4a3.dev225

  ==> Input File <==

--------------------------------------------------------------------------
#psi4
#
memory 32 gb

molecule  {
1 1
  N       -3.4197460    -0.1817000     0.1602720
  N       -0.6214370    -0.0078370    -0.1287630
  C       -2.7377630    -0.6049400    -1.1216890
  C       -2.6265040     0.8533270     0.9259500
  C       -1.3397990    -1.0900720    -0.7822260
  C       -1.2267490     0.3141230     1.1574790
  C        0.8091060    -0.1845140    -0.0397240
  C        1.6179690     0.9496740    -0.2359790
  C        1.3698700    -1.4337860     0.2499420
  C        3.0044760     0.7849240    -0.1342920
  C        1.0196790     2.2951990    -0.5492200
  C        2.7558540    -1.5738690     0.3292430
  C        3.5736970    -0.4590730     0.1432710
  H       -2.7010110     0.2771110    -1.7633110
  H       -3.3565410    -1.3799850    -1.5813290
  H       -3.1395855     1.0488817     1.8127640
  H       -2.5989570     1.7488760     0.3025170
  H       -1.4126900    -2.0099640    -0.1705650
  H       -0.8261290    -1.3544960    -1.7108330
  H       -0.6365290     1.0912410     1.6504410
  H       -1.2578930    -0.5558900     1.8421060
  H       -4.3648950     0.1725180    -0.0402120
  H       -3.5438220    -1.0118610     0.7575640
  H        0.7360800    -2.3037000     0.4086560
  H        3.6499200     1.6470780    -0.2894290
  H        0.2227830     2.2055990    -1.2916560
  H        0.5919240     2.7705950     0.3416580
  H        1.7859030     2.9697170    -0.9386560
  H        3.1912420    -2.5456860     0.5460090
  H        4.6540550    -0.5586080     0.2046590
units angstrom
no_reorient  #important for SAPT in psi4, default
symmetry c1  #important for SAPT in psi4, default
}

set PROPERTIES_ORIGIN ["COM"]
properties('MP2/aug-cc-pvtz', properties = ['dipole'])
--------------------------------------------------------------------------

    Molecular point group: c1
  Charge       = 1
  Multiplicity = 1
  Basis Set: AUG-CC-PVTZ
    Blend: AUG-CC-PVTZ
  Basis Set: (AUG-CC-PVTZ AUX)
    Blend: AUG-CC-PVTZ-JKFIT

    Orbital Energies [Eh]
    ---------------------

    Doubly Occupied:

       1A    -15.866469     2A    -15.702887     3A    -11.456738
       4A    -11.451393     5A    -11.417471     6A    -11.417116
       7A    -11.375074     8A    -11.344323     9A    -11.340117
      10A    -11.331757    11A    -11.329836    12A    -11.328561
      13A    -11.323537    14A     -1.497726    15A     -1.390127
      16A     -1.249868    17A     -1.223840    18A     -1.156156
      19A     -1.142724    20A     -1.088919    21A     -1.055168
      22A     -1.032098    23A     -0.996196    24A     -0.935510
      25A     -0.925458    26A     -0.903807    27A     -0.870194
      28A     -0.823704    29A     -0.810385    30A     -0.795877
      31A     -0.788729    32A     -0.754909    33A     -0.747270
      34A     -0.735694    35A     -0.714534    36A     -0.705146
      37A     -0.688153    38A     -0.675163    39A     -0.669596
      40A     -0.660570    41A     -0.655868    42A     -0.640507
      43A     -0.599889    44A     -0.591657    45A     -0.588042
      46A     -0.521537    47A     -0.433498    48A     -0.423432

  @DF-RHF Final Energy:  -535.30807763078519

   => Energetics <=

    Nuclear Repulsion Energy =            820.5769458560271232
    One-Electron Energy =               -2339.4155907108747670
    Two-Electron Energy =                 983.5305672240624517
    Total Energy =                       -535.3080776307851920
  Basis Set: (AUG-CC-PVTZ AUX)
    Blend: AUG-CC-PVTZ-RI
    Molecular point group: c1

    Geometry (in Angstrom), charge = 1, multiplicity = 1:

       Center              X                  Y                   Z               Mass
    ------------   -----------------  -----------------  -----------------  -----------------
         N           -3.470397859363    -0.169204438415     0.161201806425    14.003074004430
         N           -0.672088859363     0.004658561585    -0.127833193575    14.003074004430
         C           -2.788414859363    -0.592444438415    -1.120759193575    12.000000000000
         C           -2.677155859363     0.865822561585     0.926879806425    12.000000000000
         C           -1.390450859363    -1.077576438415    -0.781296193575    12.000000000000
         C           -1.277400859363     0.326618561585     1.158408806425    12.000000000000
         C            0.758454140637    -0.172018438415    -0.038794193575    12.000000000000
         C            1.567317140637     0.962169561585    -0.235049193575    12.000000000000
         C            1.319218140637    -1.421290438415     0.250871806425    12.000000000000
         C            2.953824140637     0.797419561585    -0.133362193575    12.000000000000
         C            0.969027140637     2.307694561585    -0.548290193575    12.000000000000
         C            2.705202140637    -1.561373438415     0.330172806425    12.000000000000
         C            3.523045140637    -0.446577438415     0.144200806425    12.000000000000
         H           -2.751662859363     0.289606561585    -1.762381193575     1.007825032230
         H           -3.407192859363    -1.367489438415    -1.580399193575     1.007825032230
         H           -3.190237359363     1.061377261585     1.813693806425     1.007825032230
         H           -2.649608859363     1.761371561585     0.303446806425     1.007825032230
         H           -1.463341859363    -1.997468438415    -0.169635193575     1.007825032230
         H           -0.876780859363    -1.342000438415    -1.709903193575     1.007825032230
         H           -0.687180859363     1.103736561585     1.651370806425     1.007825032230
         H           -1.308544859363    -0.543394438415     1.843035806425     1.007825032230
         H           -4.415546859363     0.185013561585    -0.039282193575     1.007825032230
         H           -3.594473859363    -0.999365438415     0.758493806425     1.007825032230
         H            0.685428140637    -2.291204438415     0.409585806425     1.007825032230
         H            3.599268140637     1.659573561585    -0.288499193575     1.007825032230
         H            0.172131140637     2.218094561585    -1.290726193575     1.007825032230
         H            0.541272140637     2.783090561585     0.342587806425     1.007825032230
         H            1.735251140637     2.982212561585    -0.937726193575     1.007825032230
         H            3.140590140637    -2.533190438415     0.546938806425     1.007825032230
         H            4.603403140637    -0.546112438415     0.205588806425     1.007825032230

  Basis Set: AUG-CC-PVTZ
    Blend: AUG-CC-PVTZ
  Basis Set: (AUG-CC-PVTZ AUX)
    Blend: AUG-CC-PVTZ-JKFIT
	 Reference Energy          =    -535.3080776307851920 [Eh]
	 Singles Energy            =      -0.0000000000000000 [Eh]
	 Same-Spin Energy          =      -0.5852237932570824 [Eh]
	 Opposite-Spin Energy      =      -1.9167799686669797 [Eh]
	 Correlation Energy        =      -2.5020037619240623 [Eh]
	 Total Energy              =    -537.8100813927092076 [Eh]

	 ================> DF-SCS-MP2 Energies <==================
	-----------------------------------------------------------
	 SCS Same-Spin Scale       =       0.3333333333333333 [-]
	 SCS Opposite-Spin Scale   =       1.2000000000000000 [-]
	 SCS Same-Spin Energy      =      -0.1950745977523608 [Eh]
	 SCS Opposite-Spin Energy  =      -2.3001359624003754 [Eh]
	 SCS Correlation Energy    =      -2.4952105601527363 [Eh]
	 SCS Total Energy          =    -537.8032881909379057 [Eh]
	-----------------------------------------------------------

  Dipole Moment: [D]
     X:   -12.1133      Y:    -0.6823      Z:     0.7319     Total:    12.1546

*** Psi4 exiting successfully. Buy a developer a beer!
