                               Psi4 1.4a3.dev225

  ==> Input File <==

--------------------------------------------------------------------------
#psi4
#
memory 32 gb

molecule  {
1 1
  N       -3.4197460    -0.1817000     0.1602720
  N       -0.6214370    -0.0078370    -0.1287630
  C       -2.7377630    -0.6049400    -1.1216890
  C       -2.6265040     0.8533270     0.9259500
  C       -1.3397990    -1.0900720    -0.7822260
  C       -1.2267490     0.3141230     1.1574790
  C        0.8091060    -0.1845140    -0.0397240
  C        1.6179690     0.9496740    -0.2359790
  C        1.3698700    -1.4337860     0.2499420
  C        3.0044760     0.7849240    -0.1342920
  C        1.0196790     2.2951990    -0.5492200
  C        2.7558540    -1.5738690     0.3292430
  C        3.5736970    -0.4590730     0.1432710
  H       -2.7010110     0.2771110    -1.7633110
  H       -3.3565410    -1.3799850    -1.5813290
  H       -3.1641810     1.0582560     1.8552750
  H       -2.5989570     1.7488760     0.3025170
  H       -1.4126900    -2.0099640    -0.1705650
  H       -0.8167354    -1.3593316    -1.7278147
  H       -0.6365290     1.0912410     1.6504410
  H       -1.2578930    -0.5558900     1.8421060
  H       -4.3648950     0.1725180    -0.0402120
  H       -3.5438220    -1.0118610     0.7575640
  H        0.7360800    -2.3037000     0.4086560
  H        3.6499200     1.6470780    -0.2894290
  H        0.2227830     2.2055990    -1.2916560
  H        0.5919240     2.7705950     0.3416580
  H        1.7859030     2.9697170    -0.9386560
  H        3.1912420    -2.5456860     0.5460090
  H        4.6540550    -0.5586080     0.2046590
units angstrom
no_reorient  #important for SAPT in psi4, default
symmetry c1  #important for SAPT in psi4, default
}

set PROPERTIES_ORIGIN ["COM"]
properties('MP2/aug-cc-pvtz', properties = ['dipole'])
--------------------------------------------------------------------------

    Molecular point group: c1
  Charge       = 1
  Multiplicity = 1
  Basis Set: AUG-CC-PVTZ
    Blend: AUG-CC-PVTZ
  Basis Set: (AUG-CC-PVTZ AUX)
    Blend: AUG-CC-PVTZ-JKFIT

    Orbital Energies [Eh]
    ---------------------

    Doubly Occupied:

       1A    -15.866681     2A    -15.703195     3A    -11.456875
       4A    -11.456840     5A    -11.419671     6A    -11.417400
       7A    -11.375169     8A    -11.344392     9A    -11.340176
      10A    -11.331798    11A    -11.329879    12A    -11.328609
      13A    -11.323587    14A     -1.497601    15A     -1.390221
      16A     -1.249892    17A     -1.221515    18A     -1.155541
      19A     -1.142634    20A     -1.088112    21A     -1.052571
      22A     -1.031990    23A     -0.995961    24A     -0.935367
      25A     -0.923597    26A     -0.903340    27A     -0.867469
      28A     -0.823758    29A     -0.810250    30A     -0.792546
      31A     -0.788348    32A     -0.754707    33A     -0.744623
      34A     -0.734211    35A     -0.714572    36A     -0.704468
      37A     -0.687816    38A     -0.675176    39A     -0.669283
      40A     -0.658371    41A     -0.655387    42A     -0.640438
      43A     -0.599925    44A     -0.591682    45A     -0.588081
      46A     -0.521691    47A     -0.433545    48A     -0.423497

  @DF-RHF Final Energy:  -535.30826560899709

   => Energetics <=

    Nuclear Repulsion Energy =            820.1868347866462727
    One-Electron Energy =               -2338.6652823518070363
    Two-Electron Energy =                 983.1701819561637876
    Total Energy =                       -535.3082656089970897
  Basis Set: (AUG-CC-PVTZ AUX)
    Blend: AUG-CC-PVTZ-RI
    Molecular point group: c1

    Geometry (in Angstrom), charge = 1, multiplicity = 1:

       Center              X                  Y                   Z               Mass
    ------------   -----------------  -----------------  -----------------  -----------------
         N           -3.470311368865    -0.169230261136     0.161056558668    14.003074004430
         N           -0.672002368865     0.004632738864    -0.127978441332    14.003074004430
         C           -2.788328368865    -0.592470261136    -1.120904441332    12.000000000000
         C           -2.677069368865     0.865796738864     0.926734558668    12.000000000000
         C           -1.390364368865    -1.077602261136    -0.781441441332    12.000000000000
         C           -1.277314368865     0.326592738864     1.158263558668    12.000000000000
         C            0.758540631135    -0.172044261136    -0.038939441332    12.000000000000
         C            1.567403631135     0.962143738864    -0.235194441332    12.000000000000
         C            1.319304631135    -1.421316261136     0.250726558668    12.000000000000
         C            2.953910631135     0.797393738864    -0.133507441332    12.000000000000
         C            0.969113631135     2.307668738864    -0.548435441332    12.000000000000
         C            2.705288631135    -1.561399261136     0.330027558668    12.000000000000
         C            3.523131631135    -0.446603261136     0.144055558668    12.000000000000
         H           -2.751576368865     0.289580738864    -1.762526441332     1.007825032230
         H           -3.407106368865    -1.367515261136    -1.580544441332     1.007825032230
         H           -3.214746368865     1.070725738864     1.856059558668     1.007825032230
         H           -2.649522368865     1.761345738864     0.303301558668     1.007825032230
         H           -1.463255368865    -1.997494261136    -0.169780441332     1.007825032230
         H           -0.867300768865    -1.346861861136    -1.727030141332     1.007825032230
         H           -0.687094368865     1.103710738864     1.651225558668     1.007825032230
         H           -1.308458368865    -0.543420261136     1.842890558668     1.007825032230
         H           -4.415460368865     0.184987738864    -0.039427441332     1.007825032230
         H           -3.594387368865    -0.999391261136     0.758348558668     1.007825032230
         H            0.685514631135    -2.291230261136     0.409440558668     1.007825032230
         H            3.599354631135     1.659547738864    -0.288644441332     1.007825032230
         H            0.172217631135     2.218068738864    -1.290871441332     1.007825032230
         H            0.541358631135     2.783064738864     0.342442558668     1.007825032230
         H            1.735337631135     2.982186738864    -0.937871441332     1.007825032230
         H            3.140676631135    -2.533216261136     0.546793558668     1.007825032230
         H            4.603489631135    -0.546138261136     0.205443558668     1.007825032230

  Basis Set: AUG-CC-PVTZ
    Blend: AUG-CC-PVTZ
  Basis Set: (AUG-CC-PVTZ AUX)
    Blend: AUG-CC-PVTZ-JKFIT
	 Reference Energy          =    -535.3082656089970897 [Eh]
	 Singles Energy            =      -0.0000000000000000 [Eh]
	 Same-Spin Energy          =      -0.5853418822647605 [Eh]
	 Opposite-Spin Energy      =      -1.9173248545649324 [Eh]
	 Correlation Energy        =      -2.5026667368296929 [Eh]
	 Total Energy              =    -537.8109323458268136 [Eh]

	 ================> DF-SCS-MP2 Energies <==================
	-----------------------------------------------------------
	 SCS Same-Spin Scale       =       0.3333333333333333 [-]
	 SCS Opposite-Spin Scale   =       1.2000000000000000 [-]
	 SCS Same-Spin Energy      =      -0.1951139607549202 [Eh]
	 SCS Opposite-Spin Energy  =      -2.3007898254779189 [Eh]
	 SCS Correlation Energy    =      -2.4959037862328390 [Eh]
	 SCS Total Energy          =    -537.8041693952299056 [Eh]
	-----------------------------------------------------------

  Dipole Moment: [D]
     X:   -12.1044      Y:    -0.6836      Z:     0.7328     Total:    12.1458

*** Psi4 exiting successfully. Buy a developer a beer!
