                               Psi4 1.4a3.dev225

  ==> Input File <==

--------------------------------------------------------------------------
#psi4
#
memory 32 gb

molecule  {
1 1
  N       -3.4197460    -0.1817000     0.1602720
  N       -0.6214370    -0.0078370    -0.1287630
  C       -2.7377630    -0.6049400    -1.1216890
  C       -2.6265040     0.8533270     0.9259500
  C       -1.4318802    -1.0581173    -0.8045858
  C       -1.2267490     0.3141230     1.1574790
  C        0.8091060    -0.1845140    -0.0397240
  C        1.6179690     0.9496740    -0.2359790
  C        1.3698700    -1.4337860     0.2499420
  C        3.0044760     0.7849240    -0.1342920
  C        1.0196790     2.2951990    -0.5492200
  C        2.7558540    -1.5738690     0.3292430
  C        3.5736970    -0.4590730     0.1432710
  H       -2.7010110     0.2771110    -1.7633110
  H       -3.3565410    -1.3799850    -1.5813290
  H       -3.1641810     1.0582560     1.8552750
  H       -2.5989570     1.7488760     0.3025170
  H       -1.4126900    -2.0099640    -0.1705650
  H       -0.8261290    -1.3544960    -1.7108330
  H       -0.6365290     1.0912410     1.6504410
  H       -1.2578930    -0.5558900     1.8421060
  H       -4.3648950     0.1725180    -0.0402120
  H       -3.5438220    -1.0118610     0.7575640
  H        0.7360800    -2.3037000     0.4086560
  H        3.6499200     1.6470780    -0.2894290
  H        0.2227830     2.2055990    -1.2916560
  H        0.5919240     2.7705950     0.3416580
  H        1.7859030     2.9697170    -0.9386560
  H        3.1912420    -2.5456860     0.5460090
  H        4.6540550    -0.5586080     0.2046590
units angstrom
no_reorient  #important for SAPT in psi4, default
symmetry c1  #important for SAPT in psi4, default
}

set PROPERTIES_ORIGIN ["COM"]
properties('MP2/aug-cc-pvtz', properties = ['dipole'])
--------------------------------------------------------------------------

    Molecular point group: c1
  Charge       = 1
  Multiplicity = 1
  Basis Set: AUG-CC-PVTZ
    Blend: AUG-CC-PVTZ
  Basis Set: (AUG-CC-PVTZ AUX)
    Blend: AUG-CC-PVTZ-JKFIT

    Orbital Energies [Eh]
    ---------------------

    Doubly Occupied:

       1A    -15.867401     2A    -15.701924     3A    -11.456809
       4A    -11.456584     5A    -11.419499     6A    -11.415120
       7A    -11.375878     8A    -11.344605     9A    -11.340119
      10A    -11.331544    11A    -11.329822    12A    -11.328616
      13A    -11.323203    14A     -1.501080    15A     -1.382699
      16A     -1.251148    17A     -1.234261    18A     -1.160319
      19A     -1.143765    20A     -1.089319    21A     -1.047180
      22A     -1.031602    23A     -0.995982    24A     -0.935769
      25A     -0.925298    26A     -0.903336    27A     -0.866853
      28A     -0.827920    29A     -0.810375    30A     -0.791426
      31A     -0.787061    32A     -0.753911    33A     -0.751167
      34A     -0.741825    35A     -0.718705    36A     -0.703024
      37A     -0.685382    38A     -0.671768    39A     -0.670881
      40A     -0.659465    41A     -0.647553    42A     -0.638980
      43A     -0.598908    44A     -0.592192    45A     -0.587419
      46A     -0.516691    47A     -0.433562    48A     -0.423514

  @DF-RHF Final Energy:  -535.29673662663458

   => Energetics <=

    Nuclear Repulsion Energy =            820.3528925438196211
    One-Electron Energy =               -2338.9563315945883915
    Two-Electron Energy =                 983.3067024241343006
    Total Energy =                       -535.2967366266345834
  Basis Set: (AUG-CC-PVTZ AUX)
    Blend: AUG-CC-PVTZ-RI
    Molecular point group: c1

    Geometry (in Angstrom), charge = 1, multiplicity = 1:

       Center              X                  Y                   Z               Mass
    ------------   -----------------  -----------------  -----------------  -----------------
         N           -3.464020035995    -0.171422491295     0.162474669708    14.003074004430
         N           -0.665711035995     0.002440508705    -0.126560330292    14.003074004430
         C           -2.782037035995    -0.594662491295    -1.119486330292    12.000000000000
         C           -2.670778035995     0.863604508705     0.928152669708    12.000000000000
         C           -1.476154235995    -1.047839791295    -0.802383130292    12.000000000000
         C           -1.271023035995     0.324400508705     1.159681669708    12.000000000000
         C            0.764831964005    -0.174236491295    -0.037521330292    12.000000000000
         C            1.573694964005     0.959951508705    -0.233776330292    12.000000000000
         C            1.325595964005    -1.423508491295     0.252144669708    12.000000000000
         C            2.960201964005     0.795201508705    -0.132089330292    12.000000000000
         C            0.975404964005     2.305476508705    -0.547017330292    12.000000000000
         C            2.711579964005    -1.563591491295     0.331445669708    12.000000000000
         C            3.529422964005    -0.448795491295     0.145473669708    12.000000000000
         H           -2.745285035995     0.287388508705    -1.761108330292     1.007825032230
         H           -3.400815035995    -1.369707491295    -1.579126330292     1.007825032230
         H           -3.208455035995     1.068533508705     1.857477669708     1.007825032230
         H           -2.643231035995     1.759153508705     0.304719669708     1.007825032230
         H           -1.456964035995    -1.999686491295    -0.168362330292     1.007825032230
         H           -0.870403035995    -1.344218491295    -1.708630330292     1.007825032230
         H           -0.680803035995     1.101518508705     1.652643669708     1.007825032230
         H           -1.302167035995    -0.545612491295     1.844308669708     1.007825032230
         H           -4.409169035995     0.182795508705    -0.038009330292     1.007825032230
         H           -3.588096035995    -1.001583491295     0.759766669708     1.007825032230
         H            0.691805964005    -2.293422491295     0.410858669708     1.007825032230
         H            3.605645964005     1.657355508705    -0.287226330292     1.007825032230
         H            0.178508964005     2.215876508705    -1.289453330292     1.007825032230
         H            0.547649964005     2.780872508705     0.343860669708     1.007825032230
         H            1.741628964005     2.979994508705    -0.936453330292     1.007825032230
         H            3.146967964005    -2.535408491295     0.548211669708     1.007825032230
         H            4.609780964005    -0.548330491295     0.206861669708     1.007825032230

  Basis Set: AUG-CC-PVTZ
    Blend: AUG-CC-PVTZ
  Basis Set: (AUG-CC-PVTZ AUX)
    Blend: AUG-CC-PVTZ-JKFIT
	 Reference Energy          =    -535.2967366266345834 [Eh]
	 Singles Energy            =      -0.0000000000000000 [Eh]
	 Same-Spin Energy          =      -0.5863057895088988 [Eh]
	 Opposite-Spin Energy      =      -1.9183504409353382 [Eh]
	 Correlation Energy        =      -2.5046562304442368 [Eh]
	 Total Energy              =    -537.8013928570787812 [Eh]

	 ================> DF-SCS-MP2 Energies <==================
	-----------------------------------------------------------
	 SCS Same-Spin Scale       =       0.3333333333333333 [-]
	 SCS Opposite-Spin Scale   =       1.2000000000000000 [-]
	 SCS Same-Spin Energy      =      -0.1954352631696329 [Eh]
	 SCS Opposite-Spin Energy  =      -2.3020205291224056 [Eh]
	 SCS Correlation Energy    =      -2.4974557922920386 [Eh]
	 SCS Total Energy          =    -537.7941924189266274 [Eh]
	-----------------------------------------------------------

  Dipole Moment: [D]
     X:   -12.1217      Y:    -0.7035      Z:     0.6518     Total:    12.1596

*** Psi4 exiting successfully. Buy a developer a beer!
