                               Psi4 1.4a3.dev225

  ==> Input File <==

--------------------------------------------------------------------------
#psi4
#
memory 32 gb

molecule  {
1 1
  N       -3.4197460    -0.1817000     0.1602720
  N       -0.6214370    -0.0078370    -0.1287630
  C       -2.7377630    -0.6049400    -1.1216890
  C       -2.6265040     0.8533270     0.9259500
  C       -1.3397990    -1.0900720    -0.7822260
  C       -1.1745150     0.4349052     1.0684697
  C        0.8091060    -0.1845140    -0.0397240
  C        1.6179690     0.9496740    -0.2359790
  C        1.3698700    -1.4337860     0.2499420
  C        3.0044760     0.7849240    -0.1342920
  C        1.0196790     2.2951990    -0.5492200
  C        2.7558540    -1.5738690     0.3292430
  C        3.5736970    -0.4590730     0.1432710
  H       -2.7010110     0.2771110    -1.7633110
  H       -3.3565410    -1.3799850    -1.5813290
  H       -3.1641810     1.0582560     1.8552750
  H       -2.5989570     1.7488760     0.3025170
  H       -1.4126900    -2.0099640    -0.1705650
  H       -0.8261290    -1.3544960    -1.7108330
  H       -0.6365290     1.0912410     1.6504410
  H       -1.2578930    -0.5558900     1.8421060
  H       -4.3648950     0.1725180    -0.0402120
  H       -3.5438220    -1.0118610     0.7575640
  H        0.7360800    -2.3037000     0.4086560
  H        3.6499200     1.6470780    -0.2894290
  H        0.2227830     2.2055990    -1.2916560
  H        0.5919240     2.7705950     0.3416580
  H        1.7859030     2.9697170    -0.9386560
  H        3.1912420    -2.5456860     0.5460090
  H        4.6540550    -0.5586080     0.2046590
units angstrom
no_reorient  #important for SAPT in psi4, default
symmetry c1  #important for SAPT in psi4, default
}

set PROPERTIES_ORIGIN ["COM"]
properties('MP2/aug-cc-pvtz', properties = ['dipole'])
--------------------------------------------------------------------------

    Molecular point group: c1
  Charge       = 1
  Multiplicity = 1
  Basis Set: AUG-CC-PVTZ
    Blend: AUG-CC-PVTZ
  Basis Set: (AUG-CC-PVTZ AUX)
    Blend: AUG-CC-PVTZ-JKFIT

    Orbital Energies [Eh]
    ---------------------

    Doubly Occupied:

       1A    -15.868766     2A    -15.705990     3A    -11.459195
       4A    -11.457160     5A    -11.425097     6A    -11.422349
       7A    -11.377813     8A    -11.345880     9A    -11.341415
      10A    -11.332738    11A    -11.330959    12A    -11.329526
      13A    -11.325727    14A     -1.499083    15A     -1.405529
      16A     -1.252031    17A     -1.224788    18A     -1.157545
      19A     -1.144572    20A     -1.092005    21A     -1.061413
      22A     -1.033967    23A     -0.991509    24A     -0.936367
      25A     -0.930505    26A     -0.905730    27A     -0.867142
      28A     -0.821071    29A     -0.813632    30A     -0.807007
      31A     -0.794654    32A     -0.760275    33A     -0.747416
      34A     -0.737527    35A     -0.715565    36A     -0.704857
      37A     -0.687140    38A     -0.677742    39A     -0.670151
      40A     -0.660846    41A     -0.651504    42A     -0.642477
      43A     -0.596937    44A     -0.593173    45A     -0.590094
      46A     -0.510939    47A     -0.434320    48A     -0.424113

  @DF-RHF Final Energy:  -535.28649475606676

   => Energetics <=

    Nuclear Repulsion Energy =            821.5457336061479054
    One-Electron Energy =               -2341.1319740971171086
    Two-Electron Energy =                 984.2997457349024444
    Total Energy =                       -535.2864947560667588
  Basis Set: (AUG-CC-PVTZ AUX)
    Blend: AUG-CC-PVTZ-RI
    Molecular point group: c1

    Geometry (in Angstrom), charge = 1, multiplicity = 1:

       Center              X                  Y                   Z               Mass
    ------------   -----------------  -----------------  -----------------  -----------------
         N           -3.473796430257    -0.177439963199     0.166989729725    14.003074004430
         N           -0.675487430257    -0.003576963199    -0.122045270275    14.003074004430
         C           -2.791813430257    -0.600679963199    -1.114971270275    12.000000000000
         C           -2.680554430257     0.857587036801     0.932667729725    12.000000000000
         C           -1.393849430257    -1.085811963199    -0.775508270275    12.000000000000
         C           -1.228565430257     0.439165236801     1.075187429725    12.000000000000
         C            0.755055569743    -0.180253963199    -0.033006270275    12.000000000000
         C            1.563918569743     0.953934036801    -0.229261270275    12.000000000000
         C            1.315819569743    -1.429525963199     0.256659729725    12.000000000000
         C            2.950425569743     0.789184036801    -0.127574270275    12.000000000000
         C            0.965628569743     2.299459036801    -0.542502270275    12.000000000000
         C            2.701803569743    -1.569608963199     0.335960729725    12.000000000000
         C            3.519646569743    -0.454812963199     0.149988729725    12.000000000000
         H           -2.755061430257     0.281371036801    -1.756593270275     1.007825032230
         H           -3.410591430257    -1.375724963199    -1.574611270275     1.007825032230
         H           -3.218231430257     1.062516036801     1.861992729725     1.007825032230
         H           -2.653007430257     1.753136036801     0.309234729725     1.007825032230
         H           -1.466740430257    -2.005703963199    -0.163847270275     1.007825032230
         H           -0.880179430257    -1.350235963199    -1.704115270275     1.007825032230
         H           -0.690579430257     1.095501036801     1.657158729725     1.007825032230
         H           -1.311943430257    -0.551629963199     1.848823729725     1.007825032230
         H           -4.418945430257     0.176778036801    -0.033494270275     1.007825032230
         H           -3.597872430257    -1.007600963199     0.764281729725     1.007825032230
         H            0.682029569743    -2.299439963199     0.415373729725     1.007825032230
         H            3.595869569743     1.651338036801    -0.282711270275     1.007825032230
         H            0.168732569743     2.209859036801    -1.284938270275     1.007825032230
         H            0.537873569743     2.774855036801     0.348375729725     1.007825032230
         H            1.731852569743     2.973977036801    -0.931938270275     1.007825032230
         H            3.137191569743    -2.541425963199     0.552726729725     1.007825032230
         H            4.600004569743    -0.554347963199     0.211376729725     1.007825032230

  Basis Set: AUG-CC-PVTZ
    Blend: AUG-CC-PVTZ
  Basis Set: (AUG-CC-PVTZ AUX)
    Blend: AUG-CC-PVTZ-JKFIT
	 Reference Energy          =    -535.2864947560667588 [Eh]
	 Singles Energy            =      -0.0000000000000000 [Eh]
	 Same-Spin Energy          =      -0.5862880477957592 [Eh]
	 Opposite-Spin Energy      =      -1.9182619371704008 [Eh]
	 Correlation Energy        =      -2.5045499849661601 [Eh]
	 Total Energy              =    -537.7910447410329198 [Eh]

	 ================> DF-SCS-MP2 Energies <==================
	-----------------------------------------------------------
	 SCS Same-Spin Scale       =       0.3333333333333333 [-]
	 SCS Opposite-Spin Scale   =       1.2000000000000000 [-]
	 SCS Same-Spin Energy      =      -0.1954293492652530 [Eh]
	 SCS Opposite-Spin Energy  =      -2.3019143246044811 [Eh]
	 SCS Correlation Energy    =      -2.4973436738697341 [Eh]
	 SCS Total Energy          =    -537.7838384299365089 [Eh]
	-----------------------------------------------------------

  Dipole Moment: [D]
     X:   -12.0021      Y:    -0.5698      Z:     0.4149     Total:    12.0228

*** Psi4 exiting successfully. Buy a developer a beer!
