                               Psi4 1.4a3.dev225

  ==> Input File <==

--------------------------------------------------------------------------
#psi4
#
memory 32 gb

molecule  {
1 1
  N       -3.4197460    -0.1817000     0.1602720
  N       -0.6214370    -0.0078370    -0.1287630
  C       -2.7377630    -0.6049400    -1.1216890
  C       -2.6265040     0.8533270     0.9259500
  C       -1.3397990    -1.0900720    -0.7822260
  C       -1.2267490     0.3141230     1.1574790
  C        0.8091060    -0.1845140    -0.0397240
  C        1.6179690     0.9496740    -0.2359790
  C        1.3698700    -1.4337860     0.2499420
  C        3.0044760     0.7849240    -0.1342920
  C        1.0196790     2.2951990    -0.5492200
  C        2.7558540    -1.5738690     0.3292430
  C        3.5736970    -0.4590730     0.1432710
  H       -2.7010110     0.2771110    -1.7633110
  H       -3.3565410    -1.3799850    -1.5813290
  H       -3.1149900     1.0395075     1.7702530
  H       -2.5989570     1.7488760     0.3025170
  H       -1.4126900    -2.0099640    -0.1705650
  H       -0.8261290    -1.3544960    -1.7108330
  H       -0.6365290     1.0912410     1.6504410
  H       -1.2578930    -0.5558900     1.8421060
  H       -4.3648950     0.1725180    -0.0402120
  H       -3.5438220    -1.0118610     0.7575640
  H        0.7360800    -2.3037000     0.4086560
  H        3.6499200     1.6470780    -0.2894290
  H        0.2227830     2.2055990    -1.2916560
  H        0.5919240     2.7705950     0.3416580
  H        1.7859030     2.9697170    -0.9386560
  H        3.1912420    -2.5456860     0.5460090
  H        4.6540550    -0.5586080     0.2046590
units angstrom
no_reorient  #important for SAPT in psi4, default
symmetry c1  #important for SAPT in psi4, default
}

set PROPERTIES_ORIGIN ["COM"]
properties('MP2/aug-cc-pvtz', properties = ['dipole'])
--------------------------------------------------------------------------

    Molecular point group: c1
  Charge       = 1
  Multiplicity = 1
  Basis Set: AUG-CC-PVTZ
    Blend: AUG-CC-PVTZ
  Basis Set: (AUG-CC-PVTZ AUX)
    Blend: AUG-CC-PVTZ-JKFIT

    Orbital Energies [Eh]
    ---------------------

    Doubly Occupied:

       1A    -15.866337     2A    -15.702736     3A    -11.456687
       4A    -11.445850     5A    -11.417409     6A    -11.416985
       7A    -11.374986     8A    -11.344263     9A    -11.340051
      10A    -11.331711    11A    -11.329790    12A    -11.328512
      13A    -11.323498    14A     -1.497981    15A     -1.390008
      16A     -1.249825    17A     -1.226302    18A     -1.156834
      19A     -1.142822    20A     -1.089971    21A     -1.057031
      22A     -1.032200    23A     -0.996333    24A     -0.935592
      25A     -0.926934    26A     -0.904346    27A     -0.873115
      28A     -0.823704    29A     -0.810716    30A     -0.798344
      31A     -0.788865    32A     -0.754838    33A     -0.749857
      34A     -0.736330    35A     -0.714476    36A     -0.705652
      37A     -0.688480    38A     -0.675134    39A     -0.669646
      40A     -0.661096    41A     -0.655992    42A     -0.640503
      43A     -0.599838    44A     -0.591633    45A     -0.588011
      46A     -0.521432    47A     -0.433446    48A     -0.423380

  @DF-RHF Final Energy:  -535.30315314995880

   => Energetics <=

    Nuclear Repulsion Energy =            820.8787621422391112
    One-Electron Energy =               -2339.9848700756097060
    Two-Electron Energy =                 983.8029547834117921
    Total Energy =                       -535.3031531499588027
  Basis Set: (AUG-CC-PVTZ AUX)
    Blend: AUG-CC-PVTZ-RI
    Molecular point group: c1

    Geometry (in Angstrom), charge = 1, multiplicity = 1:

       Center              X                  Y                   Z               Mass
    ------------   -----------------  -----------------  -----------------  -----------------
         N           -3.470537794309    -0.169151104343     0.161443670768    14.003074004430
         N           -0.672228794309     0.004711895657    -0.127591329232    14.003074004430
         C           -2.788554794309    -0.592391104343    -1.120517329232    12.000000000000
         C           -2.677295794309     0.865875895657     0.927121670768    12.000000000000
         C           -1.390590794309    -1.077523104343    -0.781054329232    12.000000000000
         C           -1.277540794309     0.326671895657     1.158650670768    12.000000000000
         C            0.758314205691    -0.171965104343    -0.038552329232    12.000000000000
         C            1.567177205691     0.962222895657    -0.234807329232    12.000000000000
         C            1.319078205691    -1.421237104343     0.251113670768    12.000000000000
         C            2.953684205691     0.797472895657    -0.133120329232    12.000000000000
         C            0.968887205691     2.307747895657    -0.548048329232    12.000000000000
         C            2.705062205691    -1.561320104343     0.330414670768    12.000000000000
         C            3.522905205691    -0.446524104343     0.144442670768    12.000000000000
         H           -2.751802794309     0.289659895657    -1.762139329232     1.007825032230
         H           -3.407332794309    -1.367436104343    -1.580157329232     1.007825032230
         H           -3.165781794309     1.052056395657     1.771424670768     1.007825032230
         H           -2.649748794309     1.761424895657     0.303688670768     1.007825032230
         H           -1.463481794309    -1.997415104343    -0.169393329232     1.007825032230
         H           -0.876920794309    -1.341947104343    -1.709661329232     1.007825032230
         H           -0.687320794309     1.103789895657     1.651612670768     1.007825032230
         H           -1.308684794309    -0.543341104343     1.843277670768     1.007825032230
         H           -4.415686794309     0.185066895657    -0.039040329232     1.007825032230
         H           -3.594613794309    -0.999312104343     0.758735670768     1.007825032230
         H            0.685288205691    -2.291151104343     0.409827670768     1.007825032230
         H            3.599128205691     1.659626895657    -0.288257329232     1.007825032230
         H            0.171991205691     2.218147895657    -1.290484329232     1.007825032230
         H            0.541132205691     2.783143895657     0.342829670768     1.007825032230
         H            1.735111205691     2.982265895657    -0.937484329232     1.007825032230
         H            3.140450205691    -2.533137104343     0.547180670768     1.007825032230
         H            4.603263205691    -0.546059104343     0.205830670768     1.007825032230

  Basis Set: AUG-CC-PVTZ
    Blend: AUG-CC-PVTZ
  Basis Set: (AUG-CC-PVTZ AUX)
    Blend: AUG-CC-PVTZ-JKFIT
	 Reference Energy          =    -535.3031531499588027 [Eh]
	 Singles Energy            =      -0.0000000000000000 [Eh]
	 Same-Spin Energy          =      -0.5851698098615412 [Eh]
	 Opposite-Spin Energy      =      -1.9164923274528030 [Eh]
	 Correlation Energy        =      -2.5016621373143444 [Eh]
	 Total Energy              =    -537.8048152872731862 [Eh]

	 ================> DF-SCS-MP2 Energies <==================
	-----------------------------------------------------------
	 SCS Same-Spin Scale       =       0.3333333333333333 [-]
	 SCS Opposite-Spin Scale   =       1.2000000000000000 [-]
	 SCS Same-Spin Energy      =      -0.1950566032871804 [Eh]
	 SCS Opposite-Spin Energy  =      -2.2997907929433636 [Eh]
	 SCS Correlation Energy    =      -2.4948473962305440 [Eh]
	 SCS Total Energy          =    -537.7980005461893143 [Eh]
	-----------------------------------------------------------

  Dipole Moment: [D]
     X:   -12.1186      Y:    -0.6810      Z:     0.7294     Total:    12.1596

*** Psi4 exiting successfully. Buy a developer a beer!
