                               Psi4 1.4a3.dev225

  ==> Input File <==

--------------------------------------------------------------------------
#psi4
#
memory 32 gb

molecule  {
1 1
  N       -3.4197460    -0.1817000     0.1602720
  N       -0.6214370    -0.0078370    -0.1287630
  C       -2.7377630    -0.6049400    -1.1216890
  C       -2.6279633     0.8695002     0.9051444
  C       -1.3397990    -1.0900720    -0.7822260
  C       -1.2267490     0.3141230     1.1574790
  C        0.8091060    -0.1845140    -0.0397240
  C        1.6179690     0.9496740    -0.2359790
  C        1.3698700    -1.4337860     0.2499420
  C        3.0044760     0.7849240    -0.1342920
  C        1.0196790     2.2951990    -0.5492200
  C        2.7558540    -1.5738690     0.3292430
  C        3.5736970    -0.4590730     0.1432710
  H       -2.7010110     0.2771110    -1.7633110
  H       -3.3565410    -1.3799850    -1.5813290
  H       -3.1641810     1.0582560     1.8552750
  H       -2.5989570     1.7488760     0.3025170
  H       -1.4126900    -2.0099640    -0.1705650
  H       -0.8261290    -1.3544960    -1.7108330
  H       -0.6365290     1.0912410     1.6504410
  H       -1.2578930    -0.5558900     1.8421060
  H       -4.3648950     0.1725180    -0.0402120
  H       -3.5438220    -1.0118610     0.7575640
  H        0.7360800    -2.3037000     0.4086560
  H        3.6499200     1.6470780    -0.2894290
  H        0.2227830     2.2055990    -1.2916560
  H        0.5919240     2.7705950     0.3416580
  H        1.7859030     2.9697170    -0.9386560
  H        3.1912420    -2.5456860     0.5460090
  H        4.6540550    -0.5586080     0.2046590
units angstrom
no_reorient  #important for SAPT in psi4, default
symmetry c1  #important for SAPT in psi4, default
}

set PROPERTIES_ORIGIN ["COM"]
properties('MP2/aug-cc-pvtz', properties = ['dipole'])
--------------------------------------------------------------------------

    Molecular point group: c1
  Charge       = 1
  Multiplicity = 1
  Basis Set: AUG-CC-PVTZ
    Blend: AUG-CC-PVTZ
  Basis Set: (AUG-CC-PVTZ AUX)
    Blend: AUG-CC-PVTZ-JKFIT

    Orbital Energies [Eh]
    ---------------------

    Doubly Occupied:

       1A    -15.866692     2A    -15.702705     3A    -11.456655
       4A    -11.456340     5A    -11.417790     6A    -11.417474
       7A    -11.375055     8A    -11.344328     9A    -11.340117
      10A    -11.331781    11A    -11.329859    12A    -11.328570
      13A    -11.323642    14A     -1.497476    15A     -1.390079
      16A     -1.249827    17A     -1.220771    18A     -1.155257
      19A     -1.142565    20A     -1.088287    21A     -1.053269
      22A     -1.032183    23A     -0.997232    24A     -0.935143
      25A     -0.923697    26A     -0.903130    27A     -0.866977
      28A     -0.826993    29A     -0.810489    30A     -0.792582
      31A     -0.786942    32A     -0.754870    33A     -0.744883
      34A     -0.732198    35A     -0.715579    36A     -0.706534
      37A     -0.689787    38A     -0.675223    39A     -0.669439
      40A     -0.659480    41A     -0.654178    42A     -0.640447
      43A     -0.599963    44A     -0.591412    45A     -0.587964
      46A     -0.521499    47A     -0.433507    48A     -0.423425

  @DF-RHF Final Energy:  -535.30810631398128

   => Energetics <=

    Nuclear Repulsion Energy =            820.2653541284274752
    One-Electron Energy =               -2338.8183320017546976
    Two-Electron Energy =                 983.2448715593458246
    Total Energy =                       -535.3081063139812841
  Basis Set: (AUG-CC-PVTZ AUX)
    Blend: AUG-CC-PVTZ-RI
    Molecular point group: c1

    Geometry (in Angstrom), charge = 1, multiplicity = 1:

       Center              X                  Y                   Z               Mass
    ------------   -----------------  -----------------  -----------------  -----------------
         N           -3.470159066556    -0.170353399709     0.162369383002    14.003074004430
         N           -0.671850066556     0.003509600291    -0.126665616998    14.003074004430
         C           -2.788176066556    -0.593593399709    -1.119591616998    12.000000000000
         C           -2.678376366556     0.880846800291     0.907241783002    12.000000000000
         C           -1.390212066556    -1.078725399709    -0.780128616998    12.000000000000
         C           -1.277162066556     0.325469600291     1.159576383002    12.000000000000
         C            0.758692933444    -0.173167399709    -0.037626616998    12.000000000000
         C            1.567555933444     0.961020600291    -0.233881616998    12.000000000000
         C            1.319456933444    -1.422439399709     0.252039383002    12.000000000000
         C            2.954062933444     0.796270600291    -0.132194616998    12.000000000000
         C            0.969265933444     2.306545600291    -0.547122616998    12.000000000000
         C            2.705440933444    -1.562522399709     0.331340383002    12.000000000000
         C            3.523283933444    -0.447726399709     0.145368383002    12.000000000000
         H           -2.751424066556     0.288457600291    -1.761213616998     1.007825032230
         H           -3.406954066556    -1.368638399709    -1.579231616998     1.007825032230
         H           -3.214594066556     1.069602600291     1.857372383002     1.007825032230
         H           -2.649370066556     1.760222600291     0.304614383002     1.007825032230
         H           -1.463103066556    -1.998617399709    -0.168467616998     1.007825032230
         H           -0.876542066556    -1.343149399709    -1.708735616998     1.007825032230
         H           -0.686942066556     1.102587600291     1.652538383002     1.007825032230
         H           -1.308306066556    -0.544543399709     1.844203383002     1.007825032230
         H           -4.415308066556     0.183864600291    -0.038114616998     1.007825032230
         H           -3.594235066556    -1.000514399709     0.759661383002     1.007825032230
         H            0.685666933444    -2.292353399709     0.410753383002     1.007825032230
         H            3.599506933444     1.658424600291    -0.287331616998     1.007825032230
         H            0.172369933444     2.216945600291    -1.289558616998     1.007825032230
         H            0.541510933444     2.781941600291     0.343755383002     1.007825032230
         H            1.735489933444     2.981063600291    -0.936558616998     1.007825032230
         H            3.140828933444    -2.534339399709     0.548106383002     1.007825032230
         H            4.603641933444    -0.547261399709     0.206756383002     1.007825032230

  Basis Set: AUG-CC-PVTZ
    Blend: AUG-CC-PVTZ
  Basis Set: (AUG-CC-PVTZ AUX)
    Blend: AUG-CC-PVTZ-JKFIT
	 Reference Energy          =    -535.3081063139812841 [Eh]
	 Singles Energy            =      -0.0000000000000000 [Eh]
	 Same-Spin Energy          =      -0.5852417098099387 [Eh]
	 Opposite-Spin Energy      =      -1.9171547734799068 [Eh]
	 Correlation Energy        =      -2.5023964832898455 [Eh]
	 Total Energy              =    -537.8105027972711696 [Eh]

	 ================> DF-SCS-MP2 Energies <==================
	-----------------------------------------------------------
	 SCS Same-Spin Scale       =       0.3333333333333333 [-]
	 SCS Opposite-Spin Scale   =       1.2000000000000000 [-]
	 SCS Same-Spin Energy      =      -0.1950805699366462 [Eh]
	 SCS Opposite-Spin Energy  =      -2.3005857281758879 [Eh]
	 SCS Correlation Energy    =      -2.4956662981125342 [Eh]
	 SCS Total Energy          =    -537.8037726120937805 [Eh]
	-----------------------------------------------------------

  Dipole Moment: [D]
     X:   -12.1072      Y:    -0.6818      Z:     0.7266     Total:    12.1482

*** Psi4 exiting successfully. Buy a developer a beer!
