                               Psi4 1.4a3.dev225

  ==> Input File <==

--------------------------------------------------------------------------
#psi4
#
memory 32 gb

molecule  {
1 1
  N       -3.4197460    -0.1817000     0.1602720
  N       -0.6214370    -0.0078370    -0.1287630
  C       -2.7377630    -0.6049400    -1.1216890
  C       -2.6265040     0.8533270     0.9259500
  C       -1.3397990    -1.0900720    -0.7822260
  C       -1.2267490     0.3141230     1.1574790
  C        0.8091060    -0.1845140    -0.0397240
  C        1.6179690     0.9496740    -0.2359790
  C        1.3698700    -1.4337860     0.2499420
  C        3.0044760     0.7849240    -0.1342920
  C        1.0196790     2.2951990    -0.5492200
  C        2.7558540    -1.5738690     0.3292430
  C        3.5736970    -0.4590730     0.1432710
  H       -2.7010110     0.2771110    -1.7633110
  H       -3.3565410    -1.3799850    -1.5813290
  H       -3.2133720     1.0770045     1.9402970
  H       -2.5989570     1.7488760     0.3025170
  H       -1.4126900    -2.0099640    -0.1705650
  H       -0.8261290    -1.3544960    -1.7108330
  H       -0.6365290     1.0912410     1.6504410
  H       -1.2578930    -0.5558900     1.8421060
  H       -4.3648950     0.1725180    -0.0402120
  H       -3.5438220    -1.0118610     0.7575640
  H        0.7360800    -2.3037000     0.4086560
  H        3.6499200     1.6470780    -0.2894290
  H        0.2227830     2.2055990    -1.2916560
  H        0.5919240     2.7705950     0.3416580
  H        1.7859030     2.9697170    -0.9386560
  H        3.1912420    -2.5456860     0.5460090
  H        4.6540550    -0.5586080     0.2046590
units angstrom
no_reorient  #important for SAPT in psi4, default
symmetry c1  #important for SAPT in psi4, default
}

set PROPERTIES_ORIGIN ["COM"]
properties('MP2/aug-cc-pvtz', properties = ['dipole'])
--------------------------------------------------------------------------

    Molecular point group: c1
  Charge       = 1
  Multiplicity = 1
  Basis Set: AUG-CC-PVTZ
    Blend: AUG-CC-PVTZ
  Basis Set: (AUG-CC-PVTZ AUX)
    Blend: AUG-CC-PVTZ-JKFIT

    Orbital Energies [Eh]
    ---------------------

    Doubly Occupied:

       1A    -15.867126     2A    -15.703541     3A    -11.466936
       4A    -11.457090     5A    -11.417794     6A    -11.417721
       7A    -11.375440     8A    -11.344585     9A    -11.340401
      10A    -11.331966    11A    -11.330043    12A    -11.328780
      13A    -11.323716    14A     -1.497428    15A     -1.390639
      16A     -1.250109    17A     -1.219100    18A     -1.154918
      19A     -1.142608    20A     -1.087071    21A     -1.050894
      22A     -1.031877    23A     -0.996105    24A     -0.935608
      25A     -0.922655    26A     -0.902735    27A     -0.862989
      28A     -0.823943    29A     -0.810147    30A     -0.790683
      31A     -0.787170    32A     -0.755220    33A     -0.741628
      34A     -0.730125    35A     -0.714831    36A     -0.702871
      37A     -0.686625    38A     -0.675306    39A     -0.669462
      40A     -0.658828    41A     -0.654371    42A     -0.640475
      43A     -0.600120    44A     -0.591782    45A     -0.588186
      46A     -0.521990    47A     -0.433734    48A     -0.423670

  @DF-RHF Final Energy:  -535.30188141899794

   => Energetics <=

    Nuclear Repulsion Energy =            819.7639458782673501
    One-Electron Energy =               -2337.8295681694412451
    Two-Electron Energy =                 982.7637408721759584
    Total Energy =                       -535.3018814189979366
  Basis Set: (AUG-CC-PVTZ AUX)
    Blend: AUG-CC-PVTZ-RI
    Molecular point group: c1

    Geometry (in Angstrom), charge = 1, multiplicity = 1:

       Center              X                  Y                   Z               Mass
    ------------   -----------------  -----------------  -----------------  -----------------
         N           -3.469978054527    -0.169364441768     0.160476213394    14.003074004430
         N           -0.671669054527     0.004498558232    -0.128558786606    14.003074004430
         C           -2.787995054527    -0.592604441768    -1.121484786606    12.000000000000
         C           -2.676736054527     0.865662558232     0.926154213394    12.000000000000
         C           -1.390031054527    -1.077736441768    -0.782021786606    12.000000000000
         C           -1.276981054527     0.326458558232     1.157683213394    12.000000000000
         C            0.758873945473    -0.172178441768    -0.039519786606    12.000000000000
         C            1.567736945473     0.962009558232    -0.235774786606    12.000000000000
         C            1.319637945473    -1.421450441768     0.250146213394    12.000000000000
         C            2.954243945473     0.797259558232    -0.134087786606    12.000000000000
         C            0.969446945473     2.307534558232    -0.549015786606    12.000000000000
         C            2.705621945473    -1.561533441768     0.329447213394    12.000000000000
         C            3.523464945473    -0.446737441768     0.143475213394    12.000000000000
         H           -2.751243054527     0.289446558232    -1.763106786606     1.007825032230
         H           -3.406773054527    -1.367649441768    -1.581124786606     1.007825032230
         H           -3.263604054527     1.089340058232     1.940501213394     1.007825032230
         H           -2.649189054527     1.761211558232     0.302721213394     1.007825032230
         H           -1.462922054527    -1.997628441768    -0.170360786606     1.007825032230
         H           -0.876361054527    -1.342160441768    -1.710628786606     1.007825032230
         H           -0.686761054527     1.103576558232     1.650645213394     1.007825032230
         H           -1.308125054527    -0.543554441768     1.842310213394     1.007825032230
         H           -4.415127054527     0.184853558232    -0.040007786606     1.007825032230
         H           -3.594054054527    -0.999525441768     0.757768213394     1.007825032230
         H            0.685847945473    -2.291364441768     0.408860213394     1.007825032230
         H            3.599687945473     1.659413558232    -0.289224786606     1.007825032230
         H            0.172550945473     2.217934558232    -1.291451786606     1.007825032230
         H            0.541691945473     2.782930558232     0.341862213394     1.007825032230
         H            1.735670945473     2.982052558232    -0.938451786606     1.007825032230
         H            3.141009945473    -2.533350441768     0.546213213394     1.007825032230
         H            4.603822945473    -0.546272441768     0.204863213394     1.007825032230

  Basis Set: AUG-CC-PVTZ
    Blend: AUG-CC-PVTZ
  Basis Set: (AUG-CC-PVTZ AUX)
    Blend: AUG-CC-PVTZ-JKFIT
	 Reference Energy          =    -535.3018814189979366 [Eh]
	 Singles Energy            =      -0.0000000000000000 [Eh]
	 Same-Spin Energy          =      -0.5854750915693695 [Eh]
	 Opposite-Spin Energy      =      -1.9180781138273126 [Eh]
	 Correlation Energy        =      -2.5035532053966820 [Eh]
	 Total Energy              =    -537.8054346243945929 [Eh]

	 ================> DF-SCS-MP2 Energies <==================
	-----------------------------------------------------------
	 SCS Same-Spin Scale       =       0.3333333333333333 [-]
	 SCS Opposite-Spin Scale   =       1.2000000000000000 [-]
	 SCS Same-Spin Energy      =      -0.1951583638564565 [Eh]
	 SCS Opposite-Spin Energy  =      -2.3016937365927750 [Eh]
	 SCS Correlation Energy    =      -2.4968521004492317 [Eh]
	 SCS Total Energy          =    -537.7987335194471825 [Eh]
	-----------------------------------------------------------

  Dipole Moment: [D]
     X:   -12.0877      Y:    -0.6927      Z:     0.7282     Total:    12.1294

*** Psi4 exiting successfully. Buy a developer a beer!
