                               Psi4 1.4a3.dev225

  ==> Input File <==

--------------------------------------------------------------------------
#psi4
#
memory 32 gb

molecule  {
1 1
  N       -3.4197460    -0.1817000     0.1602720
  N       -0.6214370    -0.0078370    -0.1287630
  C       -2.7377630    -0.6049400    -1.1216890
  C       -2.6265040     0.8533270     0.9259500
  C       -1.3397990    -1.0900720    -0.7822260
  C       -1.2267490     0.3141230     1.1574790
  C        0.8091060    -0.1845140    -0.0397240
  C        1.6179690     0.9496740    -0.2359790
  C        1.3698700    -1.4337860     0.2499420
  C        3.0044760     0.7849240    -0.1342920
  C        1.0196790     2.2951990    -0.5492200
  C        2.7558540    -1.5738690     0.3292430
  C        3.5736970    -0.4590730     0.1432710
  H       -2.7010110     0.2771110    -1.7633110
  H       -3.3565410    -1.3799850    -1.5813290
  H       -3.1641810     1.0582560     1.8552750
  H       -2.5989570     1.7488760     0.3025170
  H       -1.4126900    -2.0099640    -0.1705650
  H       -0.8261290    -1.3544960    -1.7108330
  H       -0.6365290     1.0912410     1.6504410
  H       -1.2578930    -0.5558900     1.8421060
  H       -4.3648950     0.1725180    -0.0402120
  H       -3.5438220    -1.0118610     0.7575640
  H        0.7244289    -2.3196918     0.4115737
  H        3.6499200     1.6470780    -0.2894290
  H        0.2227830     2.2055990    -1.2916560
  H        0.5919240     2.7705950     0.3416580
  H        1.7859030     2.9697170    -0.9386560
  H        3.1912420    -2.5456860     0.5460090
  H        4.6540550    -0.5586080     0.2046590
units angstrom
no_reorient  #important for SAPT in psi4, default
symmetry c1  #important for SAPT in psi4, default
}

set PROPERTIES_ORIGIN ["COM"]
properties('MP2/aug-cc-pvtz', properties = ['dipole'])
--------------------------------------------------------------------------

    Molecular point group: c1
  Charge       = 1
  Multiplicity = 1
  Basis Set: AUG-CC-PVTZ
    Blend: AUG-CC-PVTZ
  Basis Set: (AUG-CC-PVTZ AUX)
    Blend: AUG-CC-PVTZ-JKFIT

    Orbital Energies [Eh]
    ---------------------

    Doubly Occupied:

       1A    -15.866609     2A    -15.703067     3A    -11.456770
       4A    -11.456758     5A    -11.417464     6A    -11.417252
       7A    -11.375389     8A    -11.344552     9A    -11.342530
      10A    -11.332025    11A    -11.330005    12A    -11.328759
      13A    -11.323668    14A     -1.497513    15A     -1.390239
      16A     -1.249960    17A     -1.221828    18A     -1.155671
      19A     -1.142371    20A     -1.087788    21A     -1.053468
      22A     -1.032069    23A     -0.996010    24A     -0.935050
      25A     -0.923885    26A     -0.903032    27A     -0.867412
      28A     -0.823696    29A     -0.810158    30A     -0.793250
      31A     -0.788474    32A     -0.753557    33A     -0.744812
      34A     -0.734552    35A     -0.714036    36A     -0.703858
      37A     -0.687678    38A     -0.675265    39A     -0.669079
      40A     -0.659897    41A     -0.655496    42A     -0.640572
      43A     -0.599904    44A     -0.591263    45A     -0.588141
      46A     -0.521649    47A     -0.433671    48A     -0.423628

  @DF-RHF Final Energy:  -535.30819604861733

   => Energetics <=

    Nuclear Repulsion Energy =            820.1929172931626226
    One-Electron Energy =               -2338.6746722181737823
    Two-Electron Energy =                 983.1735588763937130
    Total Energy =                       -535.3081960486173330
  Basis Set: (AUG-CC-PVTZ AUX)
    Blend: AUG-CC-PVTZ-RI
    Molecular point group: c1

    Geometry (in Angstrom), charge = 1, multiplicity = 1:

       Center              X                  Y                   Z               Mass
    ------------   -----------------  -----------------  -----------------  -----------------
         N           -3.470191636030    -0.169166788458     0.160943341963    14.003074004430
         N           -0.671882636030     0.004696211542    -0.128091658037    14.003074004430
         C           -2.788208636030    -0.592406788458    -1.121017658037    12.000000000000
         C           -2.676949636030     0.865860211542     0.926621341963    12.000000000000
         C           -1.390244636030    -1.077538788458    -0.781554658037    12.000000000000
         C           -1.277194636030     0.326656211542     1.158150341963    12.000000000000
         C            0.758660363970    -0.171980788458    -0.039052658037    12.000000000000
         C            1.567523363970     0.962207211542    -0.235307658037    12.000000000000
         C            1.319424363970    -1.421252788458     0.250613341963    12.000000000000
         C            2.954030363970     0.797457211542    -0.133620658037    12.000000000000
         C            0.969233363970     2.307732211542    -0.548548658037    12.000000000000
         C            2.705408363970    -1.561335788458     0.329914341963    12.000000000000
         C            3.523251363970    -0.446539788458     0.143942341963    12.000000000000
         H           -2.751456636030     0.289644211542    -1.762639658037     1.007825032230
         H           -3.406986636030    -1.367451788458    -1.580657658037     1.007825032230
         H           -3.214626636030     1.070789211542     1.855946341963     1.007825032230
         H           -2.649402636030     1.761409211542     0.303188341963     1.007825032230
         H           -1.463135636030    -1.997430788458    -0.169893658037     1.007825032230
         H           -0.876574636030    -1.341962788458    -1.710161658037     1.007825032230
         H           -0.686974636030     1.103774211542     1.651112341963     1.007825032230
         H           -1.308338636030    -0.543356788458     1.842777341963     1.007825032230
         H           -4.415340636030     0.185051211542    -0.039540658037     1.007825032230
         H           -3.594267636030    -0.999327788458     0.758235341963     1.007825032230
         H            0.673983263970    -2.307158588458     0.412245041963     1.007825032230
         H            3.599474363970     1.659611211542    -0.288757658037     1.007825032230
         H            0.172337363970     2.218132211542    -1.290984658037     1.007825032230
         H            0.541478363970     2.783128211542     0.342329341963     1.007825032230
         H            1.735457363970     2.982250211542    -0.937984658037     1.007825032230
         H            3.140796363970    -2.533152788458     0.546680341963     1.007825032230
         H            4.603609363970    -0.546074788458     0.205330341963     1.007825032230

  Basis Set: AUG-CC-PVTZ
    Blend: AUG-CC-PVTZ
  Basis Set: (AUG-CC-PVTZ AUX)
    Blend: AUG-CC-PVTZ-JKFIT
	 Reference Energy          =    -535.3081960486173330 [Eh]
	 Singles Energy            =      -0.0000000000000000 [Eh]
	 Same-Spin Energy          =      -0.5853568959143446 [Eh]
	 Opposite-Spin Energy      =      -1.9173243292330153 [Eh]
	 Correlation Energy        =      -2.5026812251473598 [Eh]
	 Total Energy              =    -537.8108772737647314 [Eh]

	 ================> DF-SCS-MP2 Energies <==================
	-----------------------------------------------------------
	 SCS Same-Spin Scale       =       0.3333333333333333 [-]
	 SCS Opposite-Spin Scale   =       1.2000000000000000 [-]
	 SCS Same-Spin Energy      =      -0.1951189653047815 [Eh]
	 SCS Opposite-Spin Energy  =      -2.3007891950796182 [Eh]
	 SCS Correlation Energy    =      -2.4959081603843996 [Eh]
	 SCS Total Energy          =    -537.8041042090017072 [Eh]
	-----------------------------------------------------------

  Dipole Moment: [D]
     X:   -12.0992      Y:    -0.6795      Z:     0.7318     Total:    12.1404

*** Psi4 exiting successfully. Buy a developer a beer!
