                               Psi4 1.4a3.dev225

  ==> Input File <==

--------------------------------------------------------------------------
#psi4
#
memory 32 gb

molecule  {
1 1
  N       -3.4197460    -0.1817000     0.1602720
  N       -0.6214370    -0.0078370    -0.1287630
  C       -2.7377630    -0.6049400    -1.1216890
  C       -2.6265040     0.8533270     0.9259500
  C       -1.3397990    -1.0900720    -0.7822260
  C       -1.2267490     0.3141230     1.1574790
  C        0.8091060    -0.1845140    -0.0397240
  C        1.6179690     0.9496740    -0.2359790
  C        1.3698700    -1.4337860     0.2499420
  C        3.0044760     0.7849240    -0.1342920
  C        1.0196790     2.2951990    -0.5492200
  C        2.7558540    -1.5738690     0.3292430
  C        3.5736970    -0.4590730     0.1432710
  H       -2.7010110     0.2771110    -1.7633110
  H       -3.3565410    -1.3799850    -1.5813290
  H       -3.1641810     1.0582560     1.8552750
  H       -2.5989570     1.7488760     0.3025170
  H       -1.4126900    -2.0099640    -0.1705650
  H       -0.8261290    -1.3544960    -1.7108330
  H       -0.6365290     1.0912410     1.6504410
  H       -1.2578930    -0.5558900     1.8421060
  H       -4.3648950     0.1725180    -0.0402120
  H       -3.5438220    -1.0118610     0.7575640
  H        0.7360800    -2.3037000     0.4086560
  H        3.6499200     1.6470780    -0.2894290
  H        0.2227830     2.2055990    -1.2916560
  H        0.5802485     2.7555885     0.3438543
  H        1.7859030     2.9697170    -0.9386560
  H        3.1912420    -2.5456860     0.5460090
  H        4.6540550    -0.5586080     0.2046590
units angstrom
no_reorient  #important for SAPT in psi4, default
symmetry c1  #important for SAPT in psi4, default
}

set PROPERTIES_ORIGIN ["COM"]
properties('MP2/aug-cc-pvtz', properties = ['dipole'])
--------------------------------------------------------------------------

    Molecular point group: c1
  Charge       = 1
  Multiplicity = 1
  Basis Set: AUG-CC-PVTZ
    Blend: AUG-CC-PVTZ
  Basis Set: (AUG-CC-PVTZ AUX)
    Blend: AUG-CC-PVTZ-JKFIT

    Orbital Energies [Eh]
    ---------------------

    Doubly Occupied:

       1A    -15.866688     2A    -15.703103     3A    -11.456855
       4A    -11.456844     5A    -11.417582     6A    -11.417361
       7A    -11.375125     8A    -11.344338     9A    -11.340197
      10A    -11.331751    11A    -11.329845    12A    -11.328592
      13A    -11.323714    14A     -1.497593    15A     -1.390306
      16A     -1.249925    17A     -1.221924    18A     -1.155657
      19A     -1.142706    20A     -1.088128    21A     -1.053563
      22A     -1.032014    23A     -0.996151    24A     -0.935511
      25A     -0.924308    26A     -0.903262    27A     -0.867511
      28A     -0.823792    29A     -0.810226    30A     -0.793616
      31A     -0.788553    32A     -0.754891    33A     -0.744863
      34A     -0.734610    35A     -0.714637    36A     -0.704560
      37A     -0.687771    38A     -0.675375    39A     -0.669504
      40A     -0.660040    41A     -0.655674    42A     -0.640946
      43A     -0.599718    44A     -0.591726    45A     -0.588148
      46A     -0.521694    47A     -0.433554    48A     -0.423409

  @DF-RHF Final Energy:  -535.30883935002998

   => Energetics <=

    Nuclear Repulsion Energy =            820.3339451763297347
    One-Electron Energy =               -2338.9498397364150151
    Two-Electron Energy =                 983.3070552100552959
    Total Energy =                       -535.3088393500299844
  Basis Set: (AUG-CC-PVTZ AUX)
    Blend: AUG-CC-PVTZ-RI
    Molecular point group: c1

    Geometry (in Angstrom), charge = 1, multiplicity = 1:

       Center              X                  Y                   Z               Mass
    ------------   -----------------  -----------------  -----------------  -----------------
         N           -3.470191497208    -0.169172394276     0.160947446335    14.003074004430
         N           -0.671882497208     0.004690605724    -0.128087553665    14.003074004430
         C           -2.788208497208    -0.592412394276    -1.121013553665    12.000000000000
         C           -2.676949497208     0.865854605724     0.926625446335    12.000000000000
         C           -1.390244497208    -1.077544394276    -0.781550553665    12.000000000000
         C           -1.277194497208     0.326650605724     1.158154446335    12.000000000000
         C            0.758660502792    -0.171986394276    -0.039048553665    12.000000000000
         C            1.567523502792     0.962201605724    -0.235303553665    12.000000000000
         C            1.319424502792    -1.421258394276     0.250617446335    12.000000000000
         C            2.954030502792     0.797451605724    -0.133616553665    12.000000000000
         C            0.969233502792     2.307726605724    -0.548544553665    12.000000000000
         C            2.705408502792    -1.561341394276     0.329918446335    12.000000000000
         C            3.523251502792    -0.446545394276     0.143946446335    12.000000000000
         H           -2.751456497208     0.289638605724    -1.762635553665     1.007825032230
         H           -3.406986497208    -1.367457394276    -1.580653553665     1.007825032230
         H           -3.214626497208     1.070783605724     1.855950446335     1.007825032230
         H           -2.649402497208     1.761403605724     0.303192446335     1.007825032230
         H           -1.463135497208    -1.997436394276    -0.169889553665     1.007825032230
         H           -0.876574497208    -1.341968394276    -1.710157553665     1.007825032230
         H           -0.686974497208     1.103768605724     1.651116446335     1.007825032230
         H           -1.308338497208    -0.543362394276     1.842781446335     1.007825032230
         H           -4.415340497208     0.185045605724    -0.039536553665     1.007825032230
         H           -3.594267497208    -0.999333394276     0.758239446335     1.007825032230
         H            0.685634502792    -2.291172394276     0.409331446335     1.007825032230
         H            3.599474502792     1.659605605724    -0.288753553665     1.007825032230
         H            0.172337502792     2.218126605724    -1.290980553665     1.007825032230
         H            0.529803002792     2.768116105724     0.344529746335     1.007825032230
         H            1.735457502792     2.982244605724    -0.937980553665     1.007825032230
         H            3.140796502792    -2.533158394276     0.546684446335     1.007825032230
         H            4.603609502792    -0.546080394276     0.205334446335     1.007825032230

  Basis Set: AUG-CC-PVTZ
    Blend: AUG-CC-PVTZ
  Basis Set: (AUG-CC-PVTZ AUX)
    Blend: AUG-CC-PVTZ-JKFIT
	 Reference Energy          =    -535.3088393500299844 [Eh]
	 Singles Energy            =      -0.0000000000000000 [Eh]
	 Same-Spin Energy          =      -0.5853058089354747 [Eh]
	 Opposite-Spin Energy      =      -1.9171729524654004 [Eh]
	 Correlation Energy        =      -2.5024787614008752 [Eh]
	 Total Energy              =    -537.8113181114308645 [Eh]

	 ================> DF-SCS-MP2 Energies <==================
	-----------------------------------------------------------
	 SCS Same-Spin Scale       =       0.3333333333333333 [-]
	 SCS Opposite-Spin Scale   =       1.2000000000000000 [-]
	 SCS Same-Spin Energy      =      -0.1951019363118249 [Eh]
	 SCS Opposite-Spin Energy  =      -2.3006075429584802 [Eh]
	 SCS Correlation Energy    =      -2.4957094792703050 [Eh]
	 SCS Total Energy          =    -537.8045488293003018 [Eh]
	-----------------------------------------------------------

  Dipole Moment: [D]
     X:   -12.1120      Y:    -0.6885      Z:     0.7291     Total:    12.1534

*** Psi4 exiting successfully. Buy a developer a beer!
