                               Psi4 1.4a3.dev225

  ==> Input File <==

--------------------------------------------------------------------------
#psi4
#
memory 32 gb

molecule  {
1 1
  N       -3.4197460    -0.1817000     0.1602720
  N       -0.6214370    -0.0078370    -0.1287630
  C       -2.7377630    -0.6049400    -1.1216890
  C       -2.6265040     0.8533270     0.9259500
  C       -1.3397990    -1.0900720    -0.7822260
  C       -1.2267490     0.3141230     1.1574790
  C        0.8091060    -0.1845140    -0.0397240
  C        1.6179690     0.9496740    -0.2359790
  C        1.3698700    -1.4337860     0.2499420
  C        3.0044760     0.7849240    -0.1342920
  C        1.0196790     2.2951990    -0.5492200
  C        2.7558540    -1.5738690     0.3292430
  C        3.5736970    -0.4590730     0.1432710
  H       -2.7010110     0.2771110    -1.7633110
  H       -3.3565410    -1.3799850    -1.5813290
  H       -3.1641810     1.0582560     1.8552750
  H       -2.5989570     1.7488760     0.3025170
  H       -1.4308659    -1.9895493    -0.1432495
  H       -0.8261290    -1.3544960    -1.7108330
  H       -0.6365290     1.0912410     1.6504410
  H       -1.2578930    -0.5558900     1.8421060
  H       -4.3648950     0.1725180    -0.0402120
  H       -3.5438220    -1.0118610     0.7575640
  H        0.7360800    -2.3037000     0.4086560
  H        3.6499200     1.6470780    -0.2894290
  H        0.2227830     2.2055990    -1.2916560
  H        0.5919240     2.7705950     0.3416580
  H        1.7859030     2.9697170    -0.9386560
  H        3.1912420    -2.5456860     0.5460090
  H        4.6540550    -0.5586080     0.2046590
units angstrom
no_reorient  #important for SAPT in psi4, default
symmetry c1  #important for SAPT in psi4, default
}

set PROPERTIES_ORIGIN ["COM"]
properties('MP2/aug-cc-pvtz', properties = ['dipole'])
--------------------------------------------------------------------------

    Molecular point group: c1
  Charge       = 1
  Multiplicity = 1
  Basis Set: AUG-CC-PVTZ
    Blend: AUG-CC-PVTZ
  Basis Set: (AUG-CC-PVTZ AUX)
    Blend: AUG-CC-PVTZ-JKFIT

    Orbital Energies [Eh]
    ---------------------

    Doubly Occupied:

       1A    -15.866740     2A    -15.702753     3A    -11.456843
       4A    -11.456577     5A    -11.418027     6A    -11.417359
       7A    -11.375116     8A    -11.344352     9A    -11.340132
      10A    -11.331768    11A    -11.329857    12A    -11.328589
      13A    -11.323562    14A     -1.497671    15A     -1.390357
      16A     -1.249937    17A     -1.222017    18A     -1.155673
      19A     -1.142641    20A     -1.088091    21A     -1.053350
      22A     -1.032004    23A     -0.996285    24A     -0.935428
      25A     -0.923942    26A     -0.903336    27A     -0.867538
      28A     -0.823908    29A     -0.810097    30A     -0.794172
      31A     -0.788687    32A     -0.754989    33A     -0.744868
      34A     -0.734724    35A     -0.714255    36A     -0.704856
      37A     -0.687055    38A     -0.675220    39A     -0.669475
      40A     -0.661224    41A     -0.655657    42A     -0.640550
      43A     -0.599921    44A     -0.591656    45A     -0.588046
      46A     -0.521378    47A     -0.433517    48A     -0.423462

  @DF-RHF Final Energy:  -535.30873910904131

   => Energetics <=

    Nuclear Repulsion Energy =            820.3471367684354618
    One-Electron Energy =               -2338.9764329657059534
    Two-Electron Energy =                 983.3205570882290658
    Total Energy =                       -535.3087391090413121
  Basis Set: (AUG-CC-PVTZ AUX)
    Blend: AUG-CC-PVTZ-RI
    Molecular point group: c1

    Geometry (in Angstrom), charge = 1, multiplicity = 1:

       Center              X                  Y                   Z               Mass
    ------------   -----------------  -----------------  -----------------  -----------------
         N           -3.470154513486    -0.169373921535     0.160804531823    14.003074004430
         N           -0.671845513486     0.004489078465    -0.128230468177    14.003074004430
         C           -2.788171513486    -0.592613921535    -1.121156468177    12.000000000000
         C           -2.676912513486     0.865653078465     0.926482531823    12.000000000000
         C           -1.390207513486    -1.077745921535    -0.781693468177    12.000000000000
         C           -1.277157513486     0.326449078465     1.158011531823    12.000000000000
         C            0.758697486514    -0.172187921535    -0.039191468177    12.000000000000
         C            1.567560486514     0.962000078465    -0.235446468177    12.000000000000
         C            1.319461486514    -1.421459921535     0.250474531823    12.000000000000
         C            2.954067486514     0.797250078465    -0.133759468177    12.000000000000
         C            0.969270486514     2.307525078465    -0.548687468177    12.000000000000
         C            2.705445486514    -1.561542921535     0.329775531823    12.000000000000
         C            3.523288486514    -0.446746921535     0.143803531823    12.000000000000
         H           -2.751419513486     0.289437078465    -1.762778468177     1.007825032230
         H           -3.406949513486    -1.367658921535    -1.580796468177     1.007825032230
         H           -3.214589513486     1.070582078465     1.855807531823     1.007825032230
         H           -2.649365513486     1.761202078465     0.303049531823     1.007825032230
         H           -1.481274413486    -1.977223221535    -0.142716968177     1.007825032230
         H           -0.876537513486    -1.342169921535    -1.710300468177     1.007825032230
         H           -0.686937513486     1.103567078465     1.650973531823     1.007825032230
         H           -1.308301513486    -0.543563921535     1.842638531823     1.007825032230
         H           -4.415303513486     0.184844078465    -0.039679468177     1.007825032230
         H           -3.594230513486    -0.999534921535     0.758096531823     1.007825032230
         H            0.685671486514    -2.291373921535     0.409188531823     1.007825032230
         H            3.599511486514     1.659404078465    -0.288896468177     1.007825032230
         H            0.172374486514     2.217925078465    -1.291123468177     1.007825032230
         H            0.541515486514     2.782921078465     0.342190531823     1.007825032230
         H            1.735494486514     2.982043078465    -0.938123468177     1.007825032230
         H            3.140833486514    -2.533359921535     0.546541531823     1.007825032230
         H            4.603646486514    -0.546281921535     0.205191531823     1.007825032230

  Basis Set: AUG-CC-PVTZ
    Blend: AUG-CC-PVTZ
  Basis Set: (AUG-CC-PVTZ AUX)
    Blend: AUG-CC-PVTZ-JKFIT
	 Reference Energy          =    -535.3087391090413121 [Eh]
	 Singles Energy            =      -0.0000000000000000 [Eh]
	 Same-Spin Energy          =      -0.5853229951431427 [Eh]
	 Opposite-Spin Energy      =      -1.9171962442430361 [Eh]
	 Correlation Energy        =      -2.5025192393861788 [Eh]
	 Total Energy              =    -537.8112583484274865 [Eh]

	 ================> DF-SCS-MP2 Energies <==================
	-----------------------------------------------------------
	 SCS Same-Spin Scale       =       0.3333333333333333 [-]
	 SCS Opposite-Spin Scale   =       1.2000000000000000 [-]
	 SCS Same-Spin Energy      =      -0.1951076650477142 [Eh]
	 SCS Opposite-Spin Energy  =      -2.3006354930916433 [Eh]
	 SCS Correlation Energy    =      -2.4957431581393577 [Eh]
	 SCS Total Energy          =    -537.8044822671806742 [Eh]
	-----------------------------------------------------------

  Dipole Moment: [D]
     X:   -12.1110      Y:    -0.6752      Z:     0.7310     Total:    12.1518

*** Psi4 exiting successfully. Buy a developer a beer!
