                               Psi4 1.4a3.dev225

  ==> Input File <==

--------------------------------------------------------------------------
#psi4
#
memory 32 gb

molecule  {
1 1
  N       -3.4197460    -0.1817000     0.1602720
  N       -0.6214370    -0.0078370    -0.1287630
  C       -2.7377630    -0.6049400    -1.1216890
  C       -2.6265040     0.8533270     0.9259500
  C       -1.5239613    -1.0261626    -0.8269455
  C       -1.2267490     0.3141230     1.1574790
  C        0.8091060    -0.1845140    -0.0397240
  C        1.6179690     0.9496740    -0.2359790
  C        1.3698700    -1.4337860     0.2499420
  C        3.0044760     0.7849240    -0.1342920
  C        1.0196790     2.2951990    -0.5492200
  C        2.7558540    -1.5738690     0.3292430
  C        3.5736970    -0.4590730     0.1432710
  H       -2.7010110     0.2771110    -1.7633110
  H       -3.3565410    -1.3799850    -1.5813290
  H       -3.1641810     1.0582560     1.8552750
  H       -2.5989570     1.7488760     0.3025170
  H       -1.4126900    -2.0099640    -0.1705650
  H       -0.8261290    -1.3544960    -1.7108330
  H       -0.6365290     1.0912410     1.6504410
  H       -1.2578930    -0.5558900     1.8421060
  H       -4.3648950     0.1725180    -0.0402120
  H       -3.5438220    -1.0118610     0.7575640
  H        0.7360800    -2.3037000     0.4086560
  H        3.6499200     1.6470780    -0.2894290
  H        0.2227830     2.2055990    -1.2916560
  H        0.5919240     2.7705950     0.3416580
  H        1.7859030     2.9697170    -0.9386560
  H        3.1912420    -2.5456860     0.5460090
  H        4.6540550    -0.5586080     0.2046590
units angstrom
no_reorient  #important for SAPT in psi4, default
symmetry c1  #important for SAPT in psi4, default
}

set PROPERTIES_ORIGIN ["COM"]
properties('MP2/aug-cc-pvtz', properties = ['dipole'])
--------------------------------------------------------------------------

    Molecular point group: c1
  Charge       = 1
  Multiplicity = 1
  Basis Set: AUG-CC-PVTZ
    Blend: AUG-CC-PVTZ
  Basis Set: (AUG-CC-PVTZ AUX)
    Blend: AUG-CC-PVTZ-JKFIT

    Orbital Energies [Eh]
    ---------------------

    Doubly Occupied:

       1A    -15.867569     2A    -15.701180     3A    -11.456617
       4A    -11.453901     5A    -11.423426     6A    -11.413053
       7A    -11.376935     8A    -11.345047     9A    -11.340378
      10A    -11.331566    11A    -11.330020    12A    -11.328859
      13A    -11.322962    14A     -1.505164    15A     -1.375728
      16A     -1.261776    17A     -1.244642    18A     -1.164169
      19A     -1.144267    20A     -1.090334    21A     -1.040356
      22A     -1.030763    23A     -0.996103    24A     -0.935731
      25A     -0.927416    26A     -0.903526    27A     -0.866201
      28A     -0.834415    29A     -0.811333    30A     -0.797755
      31A     -0.784636    32A     -0.763858    33A     -0.751665
      34A     -0.743342    35A     -0.719035    36A     -0.701493
      37A     -0.685694    38A     -0.671706    39A     -0.666443
      40A     -0.655320    41A     -0.641388    42A     -0.628587
      43A     -0.598050    44A     -0.592306    45A     -0.586627
      46A     -0.510909    47A     -0.433813    48A     -0.423724

  @DF-RHF Final Energy:  -535.25655383492142

   => Energetics <=

    Nuclear Repulsion Energy =            820.5245857723883773
    One-Electron Energy =               -2339.2026983122877937
    Two-Electron Energy =                 983.4215587049778833
    Total Energy =                       -535.2565538349214194
  Basis Set: (AUG-CC-PVTZ AUX)
    Blend: AUG-CC-PVTZ-RI
    Molecular point group: c1

    Geometry (in Angstrom), charge = 1, multiplicity = 1:

       Center              X                  Y                   Z               Mass
    ------------   -----------------  -----------------  -----------------  -----------------
         N           -3.457782154346    -0.173587209535     0.163989390561    14.003074004430
         N           -0.659473154346     0.000275790465    -0.125045609439    14.003074004430
         C           -2.775799154346    -0.596827209535    -1.117971609439    12.000000000000
         C           -2.664540154346     0.861439790465     0.929667390561    12.000000000000
         C           -1.561997454346    -1.018049809535    -0.823228109439    12.000000000000
         C           -1.264785154346     0.322235790465     1.161196390561    12.000000000000
         C            0.771069845654    -0.176401209535    -0.036006609439    12.000000000000
         C            1.579932845654     0.957786790465    -0.232261609439    12.000000000000
         C            1.331833845654    -1.425673209535     0.253659390561    12.000000000000
         C            2.966439845654     0.793036790465    -0.130574609439    12.000000000000
         C            0.981642845654     2.303311790465    -0.545502609439    12.000000000000
         C            2.717817845654    -1.565756209535     0.332960390561    12.000000000000
         C            3.535660845654    -0.450960209535     0.146988390561    12.000000000000
         H           -2.739047154346     0.285223790465    -1.759593609439     1.007825032230
         H           -3.394577154346    -1.371872209535    -1.577611609439     1.007825032230
         H           -3.202217154346     1.066368790465     1.858992390561     1.007825032230
         H           -2.636993154346     1.756988790465     0.306234390561     1.007825032230
         H           -1.450726154346    -2.001851209535    -0.166847609439     1.007825032230
         H           -0.864165154346    -1.346383209535    -1.707115609439     1.007825032230
         H           -0.674565154346     1.099353790465     1.654158390561     1.007825032230
         H           -1.295929154346    -0.547777209535     1.845823390561     1.007825032230
         H           -4.402931154346     0.180630790465    -0.036494609439     1.007825032230
         H           -3.581858154346    -1.003748209535     0.761281390561     1.007825032230
         H            0.698043845654    -2.295587209535     0.412373390561     1.007825032230
         H            3.611883845654     1.655190790465    -0.285711609439     1.007825032230
         H            0.184746845654     2.213711790465    -1.287938609439     1.007825032230
         H            0.553887845654     2.778707790465     0.345375390561     1.007825032230
         H            1.747866845654     2.977829790465    -0.934938609439     1.007825032230
         H            3.153205845654    -2.537573209535     0.549726390561     1.007825032230
         H            4.616018845654    -0.550495209535     0.208376390561     1.007825032230

  Basis Set: AUG-CC-PVTZ
    Blend: AUG-CC-PVTZ
  Basis Set: (AUG-CC-PVTZ AUX)
    Blend: AUG-CC-PVTZ-JKFIT
	 Reference Energy          =    -535.2565538349214194 [Eh]
	 Singles Energy            =      -0.0000000000000000 [Eh]
	 Same-Spin Energy          =      -0.5884264073156649 [Eh]
	 Opposite-Spin Energy      =      -1.9213838969474926 [Eh]
	 Correlation Energy        =      -2.5098103042631577 [Eh]
	 Total Energy              =    -537.7663641391845886 [Eh]

	 ================> DF-SCS-MP2 Energies <==================
	-----------------------------------------------------------
	 SCS Same-Spin Scale       =       0.3333333333333333 [-]
	 SCS Opposite-Spin Scale   =       1.2000000000000000 [-]
	 SCS Same-Spin Energy      =      -0.1961421357718883 [Eh]
	 SCS Opposite-Spin Energy  =      -2.3056606763369909 [Eh]
	 SCS Correlation Energy    =      -2.5018028121088793 [Eh]
	 SCS Total Energy          =    -537.7583566470302685 [Eh]
	-----------------------------------------------------------

  Dipole Moment: [D]
     X:   -12.0847      Y:    -0.7286      Z:     0.5738     Total:    12.1202

*** Psi4 exiting successfully. Buy a developer a beer!
