                               Psi4 1.4a3.dev225

  ==> Input File <==

--------------------------------------------------------------------------
#psi4
#
memory 32 gb

molecule  {
1 1
  N       -3.4197460    -0.1817000     0.1602720
  N       -0.6214370    -0.0078370    -0.1287630
  C       -2.7377630    -0.6049400    -1.1216890
  C       -2.6265040     0.8533270     0.9259500
  C       -1.3397990    -1.0900720    -0.7822260
  C       -1.2267490     0.3141230     1.1574790
  C        0.8091060    -0.1845140    -0.0397240
  C        1.6179690     0.9496740    -0.2359790
  C        1.3698700    -1.4337860     0.2499420
  C        3.0044760     0.7849240    -0.1342920
  C        1.0196790     2.2951990    -0.5492200
  C        2.7558540    -1.5738690     0.3292430
  C        3.5736970    -0.4590730     0.1432710
  H       -2.7010110     0.2771110    -1.7633110
  H       -3.3565410    -1.3799850    -1.5813290
  H       -3.1641810     1.0582560     1.8552750
  H       -2.5989570     1.7488760     0.3025170
  H       -1.4126900    -2.0099640    -0.1705650
  H       -0.8261290    -1.3544960    -1.7108330
  H       -0.6365290     1.0912410     1.6504410
  H       -1.2578930    -0.5558900     1.8421060
  H       -4.3648950     0.1725180    -0.0402120
  H       -3.5438220    -1.0118610     0.7575640
  H        0.7360800    -2.3037000     0.4086560
  H        3.6499200     1.6470780    -0.2894290
  H        0.2373670     2.2072388    -1.2780686
  H        0.5919240     2.7705950     0.3416580
  H        1.7859030     2.9697170    -0.9386560
  H        3.1912420    -2.5456860     0.5460090
  H        4.6540550    -0.5586080     0.2046590
units angstrom
no_reorient  #important for SAPT in psi4, default
symmetry c1  #important for SAPT in psi4, default
}

set PROPERTIES_ORIGIN ["COM"]
properties('MP2/aug-cc-pvtz', properties = ['dipole'])
--------------------------------------------------------------------------

    Molecular point group: c1
  Charge       = 1
  Multiplicity = 1
  Basis Set: AUG-CC-PVTZ
    Blend: AUG-CC-PVTZ
  Basis Set: (AUG-CC-PVTZ AUX)
    Blend: AUG-CC-PVTZ-JKFIT

    Orbital Energies [Eh]
    ---------------------

    Doubly Occupied:

       1A    -15.866672     2A    -15.703129     3A    -11.456848
       4A    -11.456822     5A    -11.417580     6A    -11.417295
       7A    -11.375116     8A    -11.344231     9A    -11.340145
      10A    -11.331740    11A    -11.329775    12A    -11.328525
      13A    -11.321178    14A     -1.497579    15A     -1.390300
      16A     -1.249895    17A     -1.221902    18A     -1.155715
      19A     -1.142933    20A     -1.088165    21A     -1.053537
      22A     -1.033241    23A     -0.996191    24A     -0.935485
      25A     -0.924272    26A     -0.903650    27A     -0.867533
      28A     -0.823775    29A     -0.810317    30A     -0.793576
      31A     -0.788534    32A     -0.754977    33A     -0.744988
      34A     -0.734700    35A     -0.714575    36A     -0.704805
      37A     -0.687782    38A     -0.676198    39A     -0.669912
      40A     -0.659990    41A     -0.656076    42A     -0.641471
      43A     -0.599831    44A     -0.591953    45A     -0.588234
      46A     -0.521798    47A     -0.433513    48A     -0.423465

  @DF-RHF Final Energy:  -535.30894123330916

   => Energetics <=

    Nuclear Repulsion Energy =            820.3696057263024386
    One-Electron Energy =               -2339.0172473800698754
    Two-Electron Energy =                 983.3387004204583945
    Total Energy =                       -535.3089412333091559
  Basis Set: (AUG-CC-PVTZ AUX)
    Blend: AUG-CC-PVTZ-RI
    Molecular point group: c1

    Geometry (in Angstrom), charge = 1, multiplicity = 1:

       Center              X                  Y                   Z               Mass
    ------------   -----------------  -----------------  -----------------  -----------------
         N           -3.470340899403    -0.169267102621     0.160882637205    14.003074004430
         N           -0.672031899403     0.004595897379    -0.128152362795    14.003074004430
         C           -2.788357899403    -0.592507102621    -1.121078362795    12.000000000000
         C           -2.677098899403     0.865759897379     0.926560637205    12.000000000000
         C           -1.390393899403    -1.077639102621    -0.781615362795    12.000000000000
         C           -1.277343899403     0.326555897379     1.158089637205    12.000000000000
         C            0.758511100597    -0.172081102621    -0.039113362795    12.000000000000
         C            1.567374100597     0.962106897379    -0.235368362795    12.000000000000
         C            1.319275100597    -1.421353102621     0.250552637205    12.000000000000
         C            2.953881100597     0.797356897379    -0.133681362795    12.000000000000
         C            0.969084100597     2.307631897379    -0.548609362795    12.000000000000
         C            2.705259100597    -1.561436102621     0.329853637205    12.000000000000
         C            3.523102100597    -0.446640102621     0.143881637205    12.000000000000
         H           -2.751605899403     0.289543897379    -1.762700362795     1.007825032230
         H           -3.407135899403    -1.367552102621    -1.580718362795     1.007825032230
         H           -3.214775899403     1.070688897379     1.855885637205     1.007825032230
         H           -2.649551899403     1.761308897379     0.303127637205     1.007825032230
         H           -1.463284899403    -1.997531102621    -0.169954362795     1.007825032230
         H           -0.876723899403    -1.342063102621    -1.710222362795     1.007825032230
         H           -0.687123899403     1.103673897379     1.651051637205     1.007825032230
         H           -1.308487899403    -0.543457102621     1.842716637205     1.007825032230
         H           -4.415489899403     0.184950897379    -0.039601362795     1.007825032230
         H           -3.594416899403    -0.999428102621     0.758174637205     1.007825032230
         H            0.685485100597    -2.291267102621     0.409266637205     1.007825032230
         H            3.599325100597     1.659510897379    -0.288818362795     1.007825032230
         H            0.186772100597     2.219671697379    -1.277457962795     1.007825032230
         H            0.541329100597     2.783027897379     0.342268637205     1.007825032230
         H            1.735308100597     2.982149897379    -0.938045362795     1.007825032230
         H            3.140647100597    -2.533253102621     0.546619637205     1.007825032230
         H            4.603460100597    -0.546175102621     0.205269637205     1.007825032230

  Basis Set: AUG-CC-PVTZ
    Blend: AUG-CC-PVTZ
  Basis Set: (AUG-CC-PVTZ AUX)
    Blend: AUG-CC-PVTZ-JKFIT
	 Reference Energy          =    -535.3089412333091559 [Eh]
	 Singles Energy            =      -0.0000000000000000 [Eh]
	 Same-Spin Energy          =      -0.5852734240687504 [Eh]
	 Opposite-Spin Energy      =      -1.9170143725043287 [Eh]
	 Correlation Energy        =      -2.5022877965730790 [Eh]
	 Total Energy              =    -537.8112290298822700 [Eh]

	 ================> DF-SCS-MP2 Energies <==================
	-----------------------------------------------------------
	 SCS Same-Spin Scale       =       0.3333333333333333 [-]
	 SCS Opposite-Spin Scale   =       1.2000000000000000 [-]
	 SCS Same-Spin Energy      =      -0.1950911413562501 [Eh]
	 SCS Opposite-Spin Energy  =      -2.3004172470051945 [Eh]
	 SCS Correlation Energy    =      -2.4955083883614444 [Eh]
	 SCS Total Energy          =    -537.8044496216706420 [Eh]
	-----------------------------------------------------------

  Dipole Moment: [D]
     X:   -12.1138      Y:    -0.6810      Z:     0.7267     Total:    12.1547

*** Psi4 exiting successfully. Buy a developer a beer!
