                               Psi4 1.4a3.dev225

  ==> Input File <==

--------------------------------------------------------------------------
#psi4
#
memory 32 gb

molecule  {
1 1
  N       -3.4197460    -0.1817000     0.1602720
  N       -0.6214370    -0.0078370    -0.1287630
  C       -2.7377630    -0.6049400    -1.1216890
  C       -2.6265040     0.8533270     0.9259500
  C       -1.3397990    -1.0900720    -0.7822260
  C       -1.2267490     0.3141230     1.1574790
  C        0.8091060    -0.1845140    -0.0397240
  C        1.6179690     0.9496740    -0.2359790
  C        1.3698700    -1.4337860     0.2499420
  C        3.0044760     0.7849240    -0.1342920
  C        1.0196790     2.2951990    -0.5492200
  C        2.7558540    -1.5738690     0.3292430
  C        3.5736970    -0.4590730     0.1432710
  H       -2.7010110     0.2771110    -1.7633110
  H       -3.3565410    -1.3799850    -1.5813290
  H       -3.1641810     1.0582560     1.8552750
  H       -2.5989570     1.7488760     0.3025170
  H       -1.4126900    -2.0099640    -0.1705650
  H       -0.8261290    -1.3544960    -1.7108330
  H       -0.6365290     1.0912410     1.6504410
  H       -1.2564870    -0.5166126     1.8111980
  H       -4.3648950     0.1725180    -0.0402120
  H       -3.5438220    -1.0118610     0.7575640
  H        0.7360800    -2.3037000     0.4086560
  H        3.6499200     1.6470780    -0.2894290
  H        0.2227830     2.2055990    -1.2916560
  H        0.5919240     2.7705950     0.3416580
  H        1.7859030     2.9697170    -0.9386560
  H        3.1912420    -2.5456860     0.5460090
  H        4.6540550    -0.5586080     0.2046590
units angstrom
no_reorient  #important for SAPT in psi4, default
symmetry c1  #important for SAPT in psi4, default
}

set PROPERTIES_ORIGIN ["COM"]
properties('MP2/aug-cc-pvtz', properties = ['dipole'])
--------------------------------------------------------------------------

    Molecular point group: c1
  Charge       = 1
  Multiplicity = 1
  Basis Set: AUG-CC-PVTZ
    Blend: AUG-CC-PVTZ
  Basis Set: (AUG-CC-PVTZ AUX)
    Blend: AUG-CC-PVTZ-JKFIT

    Orbital Energies [Eh]
    ---------------------

    Doubly Occupied:

       1A    -15.866697     2A    -15.702075     3A    -11.456748
       4A    -11.456364     5A    -11.417446     6A    -11.411435
       7A    -11.375011     8A    -11.344195     9A    -11.340049
      10A    -11.331725    11A    -11.329778    12A    -11.328492
      13A    -11.323371    14A     -1.497615    15A     -1.390200
      16A     -1.249890    17A     -1.222631    18A     -1.155784
      19A     -1.142563    20A     -1.087947    21A     -1.055177
      22A     -1.031885    23A     -0.998061    24A     -0.936028
      25A     -0.924562    26A     -0.903206    27A     -0.868476
      28A     -0.825858    29A     -0.811068    30A     -0.793959
      31A     -0.788631    32A     -0.754823    33A     -0.744713
      34A     -0.734355    35A     -0.714694    36A     -0.705993
      37A     -0.690946    38A     -0.675010    39A     -0.669427
      40A     -0.660149    41A     -0.655590    42A     -0.640314
      43A     -0.600061    44A     -0.591511    45A     -0.587953
      46A     -0.521875    47A     -0.433417    48A     -0.423314

  @DF-RHF Final Energy:  -535.30828391309774

   => Energetics <=

    Nuclear Repulsion Energy =            820.5639824406783873
    One-Electron Energy =               -2339.4023865009698966
    Two-Electron Energy =                 983.5301201471936565
    Total Energy =                       -535.3082839130977391
  Basis Set: (AUG-CC-PVTZ AUX)
    Blend: AUG-CC-PVTZ-RI
    Molecular point group: c1

    Geometry (in Angstrom), charge = 1, multiplicity = 1:

       Center              X                  Y                   Z               Mass
    ------------   -----------------  -----------------  -----------------  -----------------
         N           -3.470265923789    -0.169481239983     0.161135791700    14.003074004430
         N           -0.671956923789     0.004381760017    -0.127899208300    14.003074004430
         C           -2.788282923789    -0.592721239983    -1.120825208300    12.000000000000
         C           -2.677023923789     0.865545760017     0.926813791700    12.000000000000
         C           -1.390318923789    -1.077853239983    -0.781362208300    12.000000000000
         C           -1.277268923789     0.326341760017     1.158342791700    12.000000000000
         C            0.758586076211    -0.172295239983    -0.038860208300    12.000000000000
         C            1.567449076211     0.961892760017    -0.235115208300    12.000000000000
         C            1.319350076211    -1.421567239983     0.250805791700    12.000000000000
         C            2.953956076211     0.797142760017    -0.133428208300    12.000000000000
         C            0.969159076211     2.307417760017    -0.548356208300    12.000000000000
         C            2.705334076211    -1.561650239983     0.330106791700    12.000000000000
         C            3.523177076211    -0.446854239983     0.144134791700    12.000000000000
         H           -2.751530923789     0.289329760017    -1.762447208300     1.007825032230
         H           -3.407060923789    -1.367766239983    -1.580465208300     1.007825032230
         H           -3.214700923789     1.070474760017     1.856138791700     1.007825032230
         H           -2.649476923789     1.761094760017     0.303380791700     1.007825032230
         H           -1.463209923789    -1.997745239983    -0.169701208300     1.007825032230
         H           -0.876648923789    -1.342277239983    -1.709969208300     1.007825032230
         H           -0.687048923789     1.103459760017     1.651304791700     1.007825032230
         H           -1.307006923789    -0.504393839983     1.812061791700     1.007825032230
         H           -4.415414923789     0.184736760017    -0.039348208300     1.007825032230
         H           -3.594341923789    -0.999642239983     0.758427791700     1.007825032230
         H            0.685560076211    -2.291481239983     0.409519791700     1.007825032230
         H            3.599400076211     1.659296760017    -0.288565208300     1.007825032230
         H            0.172263076211     2.217817760017    -1.290792208300     1.007825032230
         H            0.541404076211     2.782813760017     0.342521791700     1.007825032230
         H            1.735383076211     2.981935760017    -0.937792208300     1.007825032230
         H            3.140722076211    -2.533467239983     0.546872791700     1.007825032230
         H            4.603535076211    -0.546389239983     0.205522791700     1.007825032230

  Basis Set: AUG-CC-PVTZ
    Blend: AUG-CC-PVTZ
  Basis Set: (AUG-CC-PVTZ AUX)
    Blend: AUG-CC-PVTZ-JKFIT
	 Reference Energy          =    -535.3082839130977391 [Eh]
	 Singles Energy            =      -0.0000000000000000 [Eh]
	 Same-Spin Energy          =      -0.5851716049818880 [Eh]
	 Opposite-Spin Energy      =      -1.9167425356519512 [Eh]
	 Correlation Energy        =      -2.5019141406338390 [Eh]
	 Total Energy              =    -537.8101980537315967 [Eh]

	 ================> DF-SCS-MP2 Energies <==================
	-----------------------------------------------------------
	 SCS Same-Spin Scale       =       0.3333333333333333 [-]
	 SCS Opposite-Spin Scale   =       1.2000000000000000 [-]
	 SCS Same-Spin Energy      =      -0.1950572016606293 [Eh]
	 SCS Opposite-Spin Energy  =      -2.3000910427823413 [Eh]
	 SCS Correlation Energy    =      -2.4951482444429707 [Eh]
	 SCS Total Energy          =    -537.8034321575406693 [Eh]
	-----------------------------------------------------------

  Dipole Moment: [D]
     X:   -12.1262      Y:    -0.7025      Z:     0.7643     Total:    12.1706

*** Psi4 exiting successfully. Buy a developer a beer!
