                               Psi4 1.4a3.dev225

  ==> Input File <==

--------------------------------------------------------------------------
#psi4
#
memory 32 gb

molecule  {
1 1
  N       -3.4197460    -0.1817000     0.1602720
  N       -0.6214370    -0.0078370    -0.1287630
  C       -2.7377630    -0.6049400    -1.1216890
  C       -2.6265040     0.8533270     0.9259500
  C       -1.3397990    -1.0900720    -0.7822260
  C       -1.2267490     0.3141230     1.1574790
  C        0.8091060    -0.1845140    -0.0397240
  C        1.6179690     0.9496740    -0.2359790
  C        1.3698700    -1.4337860     0.2499420
  C        3.0044760     0.7849240    -0.1342920
  C        1.0196790     2.2951990    -0.5492200
  C        2.7558540    -1.5738690     0.3292430
  C        3.5736970    -0.4590730     0.1432710
  H       -2.7010110     0.2771110    -1.7633110
  H       -3.3565410    -1.3799850    -1.5813290
  H       -3.1641810     1.0582560     1.8552750
  H       -2.5989570     1.7488760     0.3025170
  H       -1.4126900    -2.0099640    -0.1705650
  H       -0.8261290    -1.3544960    -1.7108330
  H       -0.6365290     1.0912410     1.6504410
  H       -1.2578930    -0.5558900     1.8421060
  H       -4.3648950     0.1725180    -0.0402120
  H       -3.5438220    -1.0118610     0.7575640
  H        0.7360800    -2.3037000     0.4086560
  H        3.6499200     1.6470780    -0.2894290
  H        0.2227830     2.2055990    -1.2916560
  H        0.5687069     2.7404417     0.3457785
  H        1.7859030     2.9697170    -0.9386560
  H        3.1912420    -2.5456860     0.5460090
  H        4.6540550    -0.5586080     0.2046590
units angstrom
no_reorient  #important for SAPT in psi4, default
symmetry c1  #important for SAPT in psi4, default
}

set PROPERTIES_ORIGIN ["COM"]
properties('MP2/aug-cc-pvtz', properties = ['dipole'])
--------------------------------------------------------------------------

    Molecular point group: c1
  Charge       = 1
  Multiplicity = 1
  Basis Set: AUG-CC-PVTZ
    Blend: AUG-CC-PVTZ
  Basis Set: (AUG-CC-PVTZ AUX)
    Blend: AUG-CC-PVTZ-JKFIT

    Orbital Energies [Eh]
    ---------------------

    Doubly Occupied:

       1A    -15.866729     2A    -15.703135     3A    -11.456910
       4A    -11.456874     5A    -11.417608     6A    -11.417440
       7A    -11.375069     8A    -11.344283     9A    -11.340198
      10A    -11.331685    11A    -11.329795    12A    -11.328561
      13A    -11.323845    14A     -1.497634    15A     -1.390343
      16A     -1.249919    17A     -1.221974    18A     -1.155693
      19A     -1.142761    20A     -1.088141    21A     -1.053613
      22A     -1.032027    23A     -0.996189    24A     -0.935525
      25A     -0.924338    26A     -0.903164    27A     -0.867538
      28A     -0.823839    29A     -0.810245    30A     -0.793658
      31A     -0.788600    32A     -0.754791    33A     -0.744945
      34A     -0.734643    35A     -0.714665    36A     -0.704588
      37A     -0.687787    38A     -0.675627    39A     -0.669455
      40A     -0.660087    41A     -0.655704    42A     -0.641314
      43A     -0.599471    44A     -0.591766    45A     -0.588185
      46A     -0.521724    47A     -0.433543    48A     -0.423313

  @DF-RHF Final Energy:  -535.30873147872694

   => Energetics <=

    Nuclear Repulsion Energy =            820.3768778233646799
    One-Electron Energy =               -2339.0333365577098448
    Two-Electron Energy =                 983.3477272556181106
    Total Energy =                       -535.3087314787269406
  Basis Set: (AUG-CC-PVTZ AUX)
    Blend: AUG-CC-PVTZ-RI
    Molecular point group: c1

    Geometry (in Angstrom), charge = 1, multiplicity = 1:

       Center              X                  Y                   Z               Mass
    ------------   -----------------  -----------------  -----------------  -----------------
         N           -3.470125831815    -0.169086217267     0.160936498689    14.003074004430
         N           -0.671816831815     0.004776782733    -0.128098501311    14.003074004430
         C           -2.788142831815    -0.592326217267    -1.121024501311    12.000000000000
         C           -2.676883831815     0.865940782733     0.926614498689    12.000000000000
         C           -1.390178831815    -1.077458217267    -0.781561501311    12.000000000000
         C           -1.277128831815     0.326736782733     1.158143498689    12.000000000000
         C            0.758726168185    -0.171900217267    -0.039059501311    12.000000000000
         C            1.567589168185     0.962287782733    -0.235314501311    12.000000000000
         C            1.319490168185    -1.421172217267     0.250606498689    12.000000000000
         C            2.954096168185     0.797537782733    -0.133627501311    12.000000000000
         C            0.969299168185     2.307812782733    -0.548555501311    12.000000000000
         C            2.705474168185    -1.561255217267     0.329907498689    12.000000000000
         C            3.523317168185    -0.446459217267     0.143935498689    12.000000000000
         H           -2.751390831815     0.289724782733    -1.762646501311     1.007825032230
         H           -3.406920831815    -1.367371217267    -1.580664501311     1.007825032230
         H           -3.214560831815     1.070869782733     1.855939498689     1.007825032230
         H           -2.649336831815     1.761489782733     0.303181498689     1.007825032230
         H           -1.463069831815    -1.997350217267    -0.169900501311     1.007825032230
         H           -0.876508831815    -1.341882217267    -1.710168501311     1.007825032230
         H           -0.686908831815     1.103854782733     1.651105498689     1.007825032230
         H           -1.308272831815    -0.543276217267     1.842770498689     1.007825032230
         H           -4.415274831815     0.185131782733    -0.039547501311     1.007825032230
         H           -3.594201831815    -0.999247217267     0.758228498689     1.007825032230
         H            0.685700168185    -2.291086217267     0.409320498689     1.007825032230
         H            3.599540168185     1.659691782733    -0.288764501311     1.007825032230
         H            0.172403168185     2.218212782733    -1.290991501311     1.007825032230
         H            0.518327068185     2.753055482733     0.346442998689     1.007825032230
         H            1.735523168185     2.982330782733    -0.937991501311     1.007825032230
         H            3.140862168185    -2.533072217267     0.546673498689     1.007825032230
         H            4.603675168185    -0.545994217267     0.205323498689     1.007825032230

  Basis Set: AUG-CC-PVTZ
    Blend: AUG-CC-PVTZ
  Basis Set: (AUG-CC-PVTZ AUX)
    Blend: AUG-CC-PVTZ-JKFIT
	 Reference Energy          =    -535.3087314787269406 [Eh]
	 Singles Energy            =      -0.0000000000000000 [Eh]
	 Same-Spin Energy          =      -0.5853200530491560 [Eh]
	 Opposite-Spin Energy      =      -1.9172010276327949 [Eh]
	 Correlation Energy        =      -2.5025210806819507 [Eh]
	 Total Energy              =    -537.8112525594088993 [Eh]

	 ================> DF-SCS-MP2 Energies <==================
	-----------------------------------------------------------
	 SCS Same-Spin Scale       =       0.3333333333333333 [-]
	 SCS Opposite-Spin Scale   =       1.2000000000000000 [-]
	 SCS Same-Spin Energy      =      -0.1951066843497187 [Eh]
	 SCS Opposite-Spin Energy  =      -2.3006412331593538 [Eh]
	 SCS Correlation Energy    =      -2.4957479175090724 [Eh]
	 SCS Total Energy          =    -537.8044793962360473 [Eh]
	-----------------------------------------------------------

  Dipole Moment: [D]
     X:   -12.1176      Y:    -0.6920      Z:     0.7257     Total:    12.1590

*** Psi4 exiting successfully. Buy a developer a beer!
