                               Psi4 1.4a3.dev225

  ==> Input File <==

--------------------------------------------------------------------------
#psi4
#
memory 32 gb

molecule  {
1 1
  N       -3.4197460    -0.1817000     0.1602720
  N       -0.6214370    -0.0078370    -0.1287630
  C       -2.7377630    -0.6049400    -1.1216890
  C       -2.6265040     0.8533270     0.9259500
  C       -1.3397990    -1.0900720    -0.7822260
  C       -1.2267490     0.3141230     1.1574790
  C        0.8091060    -0.1845140    -0.0397240
  C        1.6179690     0.9496740    -0.2359790
  C        1.3698700    -1.4337860     0.2499420
  C        3.0044760     0.7849240    -0.1342920
  C        1.0196790     2.2951990    -0.5492200
  C        2.7558540    -1.5738690     0.3292430
  C        3.5736970    -0.4590730     0.1432710
  H       -2.7010110     0.2771110    -1.7633110
  H       -3.3565410    -1.3799850    -1.5813290
  H       -3.1641810     1.0582560     1.8552750
  H       -2.5989570     1.7488760     0.3025170
  H       -1.4126900    -2.0099640    -0.1705650
  H       -0.8261290    -1.3544960    -1.7108330
  H       -0.6365290     1.0912410     1.6504410
  H       -1.2578930    -0.5558900     1.8421060
  H       -4.3648950     0.1725180    -0.0402120
  H       -3.5438220    -1.0118610     0.7575640
  H        0.7360800    -2.3037000     0.4086560
  H        3.6499200     1.6470780    -0.2894290
  H        0.2227830     2.2055990    -1.2916560
  H        0.5919240     2.7705950     0.3416580
  H        1.7859030     2.9697170    -0.9386560
  H        3.1992548    -2.5635712     0.5499983
  H        4.6540550    -0.5586080     0.2046590
units angstrom
no_reorient  #important for SAPT in psi4, default
symmetry c1  #important for SAPT in psi4, default
}

set PROPERTIES_ORIGIN ["COM"]
properties('MP2/aug-cc-pvtz', properties = ['dipole'])
--------------------------------------------------------------------------

    Molecular point group: c1
  Charge       = 1
  Multiplicity = 1
  Basis Set: AUG-CC-PVTZ
    Blend: AUG-CC-PVTZ
  Basis Set: (AUG-CC-PVTZ AUX)
    Blend: AUG-CC-PVTZ-JKFIT

    Orbital Energies [Eh]
    ---------------------

    Doubly Occupied:

       1A    -15.866670     2A    -15.703135     3A    -11.456849
       4A    -11.456817     5A    -11.417588     6A    -11.417318
       7A    -11.375281     8A    -11.344440     9A    -11.340357
      10A    -11.333974    11A    -11.330053    12A    -11.328793
      13A    -11.323622    14A     -1.497578    15A     -1.390324
      16A     -1.249928    17A     -1.221904    18A     -1.155461
      19A     -1.142538    20A     -1.088199    21A     -1.053535
      22A     -1.031536    23A     -0.996078    24A     -0.935497
      25A     -0.924318    26A     -0.902729    27A     -0.867224
      28A     -0.823765    29A     -0.809179    30A     -0.793486
      31A     -0.788456    32A     -0.755015    33A     -0.744799
      34A     -0.734599    35A     -0.714267    36A     -0.703954
      37A     -0.687714    38A     -0.675102    39A     -0.668300
      40A     -0.659905    41A     -0.655481    42A     -0.640567
      43A     -0.599156    44A     -0.591793    45A     -0.588060
      46A     -0.521628    47A     -0.433654    48A     -0.423556

  @DF-RHF Final Energy:  -535.30822831949854

   => Energetics <=

    Nuclear Repulsion Energy =            820.1851479010098274
    One-Electron Energy =               -2338.6583751183889035
    Two-Electron Energy =                 983.1649988978806505
    Total Energy =                       -535.3082283194985393
  Basis Set: (AUG-CC-PVTZ AUX)
    Blend: AUG-CC-PVTZ-RI
    Molecular point group: c1

    Geometry (in Angstrom), charge = 1, multiplicity = 1:

       Center              X                  Y                   Z               Mass
    ------------   -----------------  -----------------  -----------------  -----------------
         N           -3.470303512868    -0.169156016048     0.160937245145    14.003074004430
         N           -0.671994512868     0.004706983952    -0.128097754855    14.003074004430
         C           -2.788320512868    -0.592396016048    -1.121023754855    12.000000000000
         C           -2.677061512868     0.865870983952     0.926615245145    12.000000000000
         C           -1.390356512868    -1.077528016048    -0.781560754855    12.000000000000
         C           -1.277306512868     0.326666983952     1.158144245145    12.000000000000
         C            0.758548487132    -0.171970016048    -0.039058754855    12.000000000000
         C            1.567411487132     0.962217983952    -0.235313754855    12.000000000000
         C            1.319312487132    -1.421242016048     0.250607245145    12.000000000000
         C            2.953918487132     0.797467983952    -0.133626754855    12.000000000000
         C            0.969121487132     2.307742983952    -0.548554754855    12.000000000000
         C            2.705296487132    -1.561325016048     0.329908245145    12.000000000000
         C            3.523139487132    -0.446529016048     0.143936245145    12.000000000000
         H           -2.751568512868     0.289654983952    -1.762645754855     1.007825032230
         H           -3.407098512868    -1.367441016048    -1.580663754855     1.007825032230
         H           -3.214738512868     1.070799983952     1.855940245145     1.007825032230
         H           -2.649514512868     1.761419983952     0.303182245145     1.007825032230
         H           -1.463247512868    -1.997420016048    -0.169899754855     1.007825032230
         H           -0.876686512868    -1.341952016048    -1.710167754855     1.007825032230
         H           -0.687086512868     1.103784983952     1.651106245145     1.007825032230
         H           -1.308450512868    -0.543346016048     1.842771245145     1.007825032230
         H           -4.415452512868     0.185061983952    -0.039546754855     1.007825032230
         H           -3.594379512868    -0.999317016048     0.758229245145     1.007825032230
         H            0.685522487132    -2.291156016048     0.409321245145     1.007825032230
         H            3.599362487132     1.659621983952    -0.288763754855     1.007825032230
         H            0.172225487132     2.218142983952    -1.290990754855     1.007825032230
         H            0.541366487132     2.783138983952     0.342323245145     1.007825032230
         H            1.735345487132     2.982260983952    -0.937990754855     1.007825032230
         H            3.148697287132    -2.551027216048     0.550663545145     1.007825032230
         H            4.603497487132    -0.546064016048     0.205324245145     1.007825032230

  Basis Set: AUG-CC-PVTZ
    Blend: AUG-CC-PVTZ
  Basis Set: (AUG-CC-PVTZ AUX)
    Blend: AUG-CC-PVTZ-JKFIT
	 Reference Energy          =    -535.3082283194985393 [Eh]
	 Singles Energy            =      -0.0000000000000000 [Eh]
	 Same-Spin Energy          =      -0.5853358973792927 [Eh]
	 Opposite-Spin Energy      =      -1.9173109688113712 [Eh]
	 Correlation Energy        =      -2.5026468661906640 [Eh]
	 Total Energy              =    -537.8108751856891558 [Eh]

	 ================> DF-SCS-MP2 Energies <==================
	-----------------------------------------------------------
	 SCS Same-Spin Scale       =       0.3333333333333333 [-]
	 SCS Opposite-Spin Scale   =       1.2000000000000000 [-]
	 SCS Same-Spin Energy      =      -0.1951119657930976 [Eh]
	 SCS Opposite-Spin Energy  =      -2.3007731625736452 [Eh]
	 SCS Correlation Energy    =      -2.4958851283667429 [Eh]
	 SCS Total Energy          =    -537.8041134478652339 [Eh]
	-----------------------------------------------------------

  Dipole Moment: [D]
     X:   -12.1090      Y:    -0.6813      Z:     0.7317     Total:    12.1502

*** Psi4 exiting successfully. Buy a developer a beer!
