                               Psi4 1.4a3.dev225

  ==> Input File <==

--------------------------------------------------------------------------
#psi4
#
memory 32 gb

molecule  {
1 1
  N       -3.4197460    -0.1817000     0.1602720
  N       -0.6214370    -0.0078370    -0.1287630
  C       -2.7377630    -0.6049400    -1.1216890
  C       -2.6265040     0.8533270     0.9259500
  C       -1.3397990    -1.0900720    -0.7822260
  C       -1.2267490     0.3141230     1.1574790
  C        0.8091060    -0.1845140    -0.0397240
  C        1.6179690     0.9496740    -0.2359790
  C        1.3698700    -1.4337860     0.2499420
  C        3.0044760     0.7849240    -0.1342920
  C        1.0196790     2.2951990    -0.5492200
  C        2.6423266    -1.4846605     0.3074119
  C        3.5736970    -0.4590730     0.1432710
  H       -2.7010110     0.2771110    -1.7633110
  H       -3.3565410    -1.3799850    -1.5813290
  H       -3.1641810     1.0582560     1.8552750
  H       -2.5989570     1.7488760     0.3025170
  H       -1.4126900    -2.0099640    -0.1705650
  H       -0.8261290    -1.3544960    -1.7108330
  H       -0.6365290     1.0912410     1.6504410
  H       -1.2578930    -0.5558900     1.8421060
  H       -4.3648950     0.1725180    -0.0402120
  H       -3.5438220    -1.0118610     0.7575640
  H        0.7360800    -2.3037000     0.4086560
  H        3.6499200     1.6470780    -0.2894290
  H        0.2227830     2.2055990    -1.2916560
  H        0.5919240     2.7705950     0.3416580
  H        1.7859030     2.9697170    -0.9386560
  H        3.1912420    -2.5456860     0.5460090
  H        4.6540550    -0.5586080     0.2046590
units angstrom
no_reorient  #important for SAPT in psi4, default
symmetry c1  #important for SAPT in psi4, default
}

set PROPERTIES_ORIGIN ["COM"]
properties('MP2/aug-cc-pvtz', properties = ['dipole'])
--------------------------------------------------------------------------

    Molecular point group: c1
  Charge       = 1
  Multiplicity = 1
  Basis Set: AUG-CC-PVTZ
    Blend: AUG-CC-PVTZ
  Basis Set: (AUG-CC-PVTZ AUX)
    Blend: AUG-CC-PVTZ-JKFIT

    Orbital Energies [Eh]
    ---------------------

    Doubly Occupied:

       1A    -15.866945     2A    -15.702688     3A    -11.457278
       4A    -11.457005     5A    -11.418187     6A    -11.417564
       7A    -11.374769     8A    -11.342774     9A    -11.330461
      10A    -11.329311    11A    -11.328505    12A    -11.325463
      13A    -11.323302    14A     -1.497844    15A     -1.390773
      16A     -1.263628    17A     -1.222238    18A     -1.159728
      19A     -1.149672    20A     -1.094209    21A     -1.053911
      22A     -1.030263    23A     -0.995385    24A     -0.936737
      25A     -0.926996    26A     -0.900238    27A     -0.868762
      28A     -0.824087    29A     -0.805439    30A     -0.795456
      31A     -0.788243    32A     -0.761471    33A     -0.749939
      34A     -0.735182    35A     -0.712136    36A     -0.703993
      37A     -0.687601    38A     -0.678721    39A     -0.669473
      40A     -0.660613    41A     -0.646712    42A     -0.642283
      43A     -0.602371    44A     -0.602006    45A     -0.570595
      46A     -0.516540    47A     -0.444947    48A     -0.421938

  @DF-RHF Final Energy:  -535.28038278521058

   => Energetics <=

    Nuclear Repulsion Energy =            823.4292843810902696
    One-Electron Energy =               -2345.0505733563700232
    Two-Electron Energy =                 986.3409061900690631
    Total Energy =                       -535.2803827852105769
  Basis Set: (AUG-CC-PVTZ AUX)
    Blend: AUG-CC-PVTZ-RI
    Molecular point group: c1

    Geometry (in Angstrom), charge = 1, multiplicity = 1:

       Center              X                  Y                   Z               Mass
    ------------   -----------------  -----------------  -----------------  -----------------
         N           -3.462567198687    -0.175301055174     0.162438853802    14.003074004430
         N           -0.664258198687    -0.001438055174    -0.126596146198    14.003074004430
         C           -2.780584198687    -0.598541055174    -1.119522146198    12.000000000000
         C           -2.669325198687     0.859725944826     0.928116853802    12.000000000000
         C           -1.382620198687    -1.083673055174    -0.780059146198    12.000000000000
         C           -1.269570198687     0.320521944826     1.159645853802    12.000000000000
         C            0.766284801313    -0.178115055174    -0.037557146198    12.000000000000
         C            1.575147801313     0.956072944826    -0.233812146198    12.000000000000
         C            1.327048801313    -1.427387055174     0.252108853802    12.000000000000
         C            2.961654801313     0.791322944826    -0.132125146198    12.000000000000
         C            0.976857801313     2.301597944826    -0.547053146198    12.000000000000
         C            2.599505401313    -1.478261555174     0.309578753802    12.000000000000
         C            3.530875801313    -0.452674055174     0.145437853802    12.000000000000
         H           -2.743832198687     0.283509944826    -1.761144146198     1.007825032230
         H           -3.399362198687    -1.373586055174    -1.579162146198     1.007825032230
         H           -3.207002198687     1.064654944826     1.857441853802     1.007825032230
         H           -2.641778198687     1.755274944826     0.304683853802     1.007825032230
         H           -1.455511198687    -2.003565055174    -0.168398146198     1.007825032230
         H           -0.868950198687    -1.348097055174    -1.708666146198     1.007825032230
         H           -0.679350198687     1.097639944826     1.652607853802     1.007825032230
         H           -1.300714198687    -0.549491055174     1.844272853802     1.007825032230
         H           -4.407716198687     0.178916944826    -0.038045146198     1.007825032230
         H           -3.586643198687    -1.005462055174     0.759730853802     1.007825032230
         H            0.693258801313    -2.297301055174     0.410822853802     1.007825032230
         H            3.607098801313     1.653476944826    -0.287262146198     1.007825032230
         H            0.179961801313     2.211997944826    -1.289489146198     1.007825032230
         H            0.549102801313     2.776993944826     0.343824853802     1.007825032230
         H            1.743081801313     2.976115944826    -0.936489146198     1.007825032230
         H            3.148420801313    -2.539287055174     0.548175853802     1.007825032230
         H            4.611233801313    -0.552209055174     0.206825853802     1.007825032230

  Basis Set: AUG-CC-PVTZ
    Blend: AUG-CC-PVTZ
  Basis Set: (AUG-CC-PVTZ AUX)
    Blend: AUG-CC-PVTZ-JKFIT
	 Reference Energy          =    -535.2803827852105769 [Eh]
	 Singles Energy            =      -0.0000000000000000 [Eh]
	 Same-Spin Energy          =      -0.5858308047548947 [Eh]
	 Opposite-Spin Energy      =      -1.9181053247382933 [Eh]
	 Correlation Energy        =      -2.5039361294931881 [Eh]
	 Total Energy              =    -537.7843189147038174 [Eh]

	 ================> DF-SCS-MP2 Energies <==================
	-----------------------------------------------------------
	 SCS Same-Spin Scale       =       0.3333333333333333 [-]
	 SCS Opposite-Spin Scale   =       1.2000000000000000 [-]
	 SCS Same-Spin Energy      =      -0.1952769349182982 [Eh]
	 SCS Opposite-Spin Energy  =      -2.3017263896859519 [Eh]
	 SCS Correlation Energy    =      -2.4970033246042500 [Eh]
	 SCS Total Energy          =    -537.7773861098148700 [Eh]
	-----------------------------------------------------------

  Dipole Moment: [D]
     X:   -12.0978      Y:    -0.6158      Z:     0.7154     Total:    12.1346

*** Psi4 exiting successfully. Buy a developer a beer!
