                               Psi4 1.4a3.dev225

  ==> Input File <==

--------------------------------------------------------------------------
#psi4
#
memory 32 gb

molecule  {
1 1
  N       -3.4197460    -0.1817000     0.1602720
  N       -0.6214370    -0.0078370    -0.1287630
  C       -2.7377630    -0.6049400    -1.1216890
  C       -2.6265040     0.8533270     0.9259500
  C       -1.3397990    -1.0900720    -0.7822260
  C       -1.2267490     0.3141230     1.1574790
  C        0.8091060    -0.1845140    -0.0397240
  C        1.6179690     0.9496740    -0.2359790
  C        1.3698700    -1.4337860     0.2499420
  C        3.0044760     0.7849240    -0.1342920
  C        1.0196790     2.2951990    -0.5492200
  C        2.7558540    -1.5738690     0.3292430
  C        3.5736970    -0.4590730     0.1432710
  H       -2.6993272     0.3175220    -1.7927068
  H       -3.3565410    -1.3799850    -1.5813290
  H       -3.1641810     1.0582560     1.8552750
  H       -2.5989570     1.7488760     0.3025170
  H       -1.4126900    -2.0099640    -0.1705650
  H       -0.8261290    -1.3544960    -1.7108330
  H       -0.6365290     1.0912410     1.6504410
  H       -1.2578930    -0.5558900     1.8421060
  H       -4.3648950     0.1725180    -0.0402120
  H       -3.5438220    -1.0118610     0.7575640
  H        0.7360800    -2.3037000     0.4086560
  H        3.6499200     1.6470780    -0.2894290
  H        0.2227830     2.2055990    -1.2916560
  H        0.5919240     2.7705950     0.3416580
  H        1.7859030     2.9697170    -0.9386560
  H        3.1912420    -2.5456860     0.5460090
  H        4.6540550    -0.5586080     0.2046590
units angstrom
no_reorient  #important for SAPT in psi4, default
symmetry c1  #important for SAPT in psi4, default
}

set PROPERTIES_ORIGIN ["COM"]
properties('MP2/aug-cc-pvtz', properties = ['dipole'])
--------------------------------------------------------------------------

    Molecular point group: c1
  Charge       = 1
  Multiplicity = 1
  Basis Set: AUG-CC-PVTZ
    Blend: AUG-CC-PVTZ
  Basis Set: (AUG-CC-PVTZ AUX)
    Blend: AUG-CC-PVTZ-JKFIT

    Orbital Energies [Eh]
    ---------------------

    Doubly Occupied:

       1A    -15.866927     2A    -15.703008     3A    -11.461958
       4A    -11.456730     5A    -11.417850     6A    -11.417269
       7A    -11.375179     8A    -11.344392     9A    -11.340209
      10A    -11.331826    11A    -11.329899    12A    -11.328625
      13A    -11.323581    14A     -1.497420    15A     -1.390268
      16A     -1.249903    17A     -1.220595    18A     -1.155152
      19A     -1.142285    20A     -1.087420    21A     -1.052528
      22A     -1.031635    23A     -0.994554    24A     -0.935522
      25A     -0.924342    26A     -0.903344    27A     -0.867244
      28A     -0.819347    29A     -0.810049    30A     -0.793484
      31A     -0.788533    32A     -0.754913    33A     -0.744352
      34A     -0.734037    35A     -0.712954    36A     -0.703079
      37A     -0.685177    38A     -0.675060    39A     -0.669510
      40A     -0.659840    41A     -0.655714    42A     -0.640470
      43A     -0.599956    44A     -0.591694    45A     -0.588086
      46A     -0.521681    47A     -0.433571    48A     -0.423493

  @DF-RHF Final Energy:  -535.30657995249726

   => Energetics <=

    Nuclear Repulsion Energy =            820.0552289095794549
    One-Electron Energy =               -2338.4142860248193756
    Two-Electron Energy =                 983.0524771627426617
    Total Energy =                       -535.3065799524972590
  Basis Set: (AUG-CC-PVTZ AUX)
    Blend: AUG-CC-PVTZ-RI
    Molecular point group: c1

    Geometry (in Angstrom), charge = 1, multiplicity = 1:

       Center              X                  Y                   Z               Mass
    ------------   -----------------  -----------------  -----------------  -----------------
         N           -3.470267504319    -0.169487689547     0.161127188108    14.003074004430
         N           -0.671958504319     0.004375310453    -0.127907811892    14.003074004430
         C           -2.788284504319    -0.592727689547    -1.120833811892    12.000000000000
         C           -2.677025504319     0.865539310453     0.926805188108    12.000000000000
         C           -1.390320504319    -1.077859689547    -0.781370811892    12.000000000000
         C           -1.277270504319     0.326335310453     1.158334188108    12.000000000000
         C            0.758584495681    -0.172301689547    -0.038868811892    12.000000000000
         C            1.567447495681     0.961886310453    -0.235123811892    12.000000000000
         C            1.319348495681    -1.421573689547     0.250797188108    12.000000000000
         C            2.953954495681     0.797136310453    -0.133436811892    12.000000000000
         C            0.969157495681     2.307411310453    -0.548364811892    12.000000000000
         C            2.705332495681    -1.561656689547     0.330098188108    12.000000000000
         C            3.523175495681    -0.446860689547     0.144126188108    12.000000000000
         H           -2.749848704319     0.329734310453    -1.791851611892     1.007825032230
         H           -3.407062504319    -1.367772689547    -1.580473811892     1.007825032230
         H           -3.214702504319     1.070468310453     1.856130188108     1.007825032230
         H           -2.649478504319     1.761088310453     0.303372188108     1.007825032230
         H           -1.463211504319    -1.997751689547    -0.169709811892     1.007825032230
         H           -0.876650504319    -1.342283689547    -1.709977811892     1.007825032230
         H           -0.687050504319     1.103453310453     1.651296188108     1.007825032230
         H           -1.308414504319    -0.543677689547     1.842961188108     1.007825032230
         H           -4.415416504319     0.184730310453    -0.039356811892     1.007825032230
         H           -3.594343504319    -0.999648689547     0.758419188108     1.007825032230
         H            0.685558495681    -2.291487689547     0.409511188108     1.007825032230
         H            3.599398495681     1.659290310453    -0.288573811892     1.007825032230
         H            0.172261495681     2.217811310453    -1.290800811892     1.007825032230
         H            0.541402495681     2.782807310453     0.342513188108     1.007825032230
         H            1.735381495681     2.981929310453    -0.937800811892     1.007825032230
         H            3.140720495681    -2.533473689547     0.546864188108     1.007825032230
         H            4.603533495681    -0.546395689547     0.205514188108     1.007825032230

  Basis Set: AUG-CC-PVTZ
    Blend: AUG-CC-PVTZ
  Basis Set: (AUG-CC-PVTZ AUX)
    Blend: AUG-CC-PVTZ-JKFIT
	 Reference Energy          =    -535.3065799524972590 [Eh]
	 Singles Energy            =      -0.0000000000000000 [Eh]
	 Same-Spin Energy          =      -0.5853925411359983 [Eh]
	 Opposite-Spin Energy      =      -1.9175797763489335 [Eh]
	 Correlation Energy        =      -2.5029723174849319 [Eh]
	 Total Energy              =    -537.8095522699821913 [Eh]

	 ================> DF-SCS-MP2 Energies <==================
	-----------------------------------------------------------
	 SCS Same-Spin Scale       =       0.3333333333333333 [-]
	 SCS Opposite-Spin Scale   =       1.2000000000000000 [-]
	 SCS Same-Spin Energy      =      -0.1951308470453327 [Eh]
	 SCS Opposite-Spin Energy  =      -2.3010957316187199 [Eh]
	 SCS Correlation Energy    =      -2.4962265786640527 [Eh]
	 SCS Total Energy          =    -537.8028065311613091 [Eh]
	-----------------------------------------------------------

  Dipole Moment: [D]
     X:   -12.1009      Y:    -0.6841      Z:     0.7311     Total:    12.1423

*** Psi4 exiting successfully. Buy a developer a beer!
