                               Psi4 1.4a3.dev225

  ==> Input File <==

--------------------------------------------------------------------------
#psi4
#
memory 32 gb

molecule  {
1 1
  N       -3.4197460    -0.1817000     0.1602720
  N       -0.6214370    -0.0078370    -0.1287630
  C       -2.7377630    -0.6049400    -1.1216890
  C       -2.6265040     0.8533270     0.9259500
  C       -1.3397990    -1.0900720    -0.7822260
  C       -1.2267490     0.3141230     1.1574790
  C        0.8091060    -0.1845140    -0.0397240
  C        1.6179690     0.9496740    -0.2359790
  C        1.3698700    -1.4337860     0.2499420
  C        3.0044760     0.7849240    -0.1342920
  C        1.0196790     2.2951990    -0.5492200
  C        2.7558540    -1.5738690     0.3292430
  C        3.5736970    -0.4590730     0.1432710
  H       -2.7010110     0.2771110    -1.7633110
  H       -3.3565410    -1.3799850    -1.5813290
  H       -3.1641810     1.0582560     1.8552750
  H       -2.5989570     1.7488760     0.3025170
  H       -1.4126900    -2.0099640    -0.1705650
  H       -0.8261290    -1.3544960    -1.7108330
  H       -0.6365290     1.0912410     1.6504410
  H       -1.2578930    -0.5558900     1.8421060
  H       -4.3648950     0.1725180    -0.0402120
  H       -3.5438220    -1.0118610     0.7575640
  H        0.7360800    -2.3037000     0.4086560
  H        3.6499200     1.6470780    -0.2894290
  H        0.1870646     2.1582550    -1.2436855
  H        0.5919240     2.7705950     0.3416580
  H        1.7859030     2.9697170    -0.9386560
  H        3.1912420    -2.5456860     0.5460090
  H        4.6540550    -0.5586080     0.2046590
units angstrom
no_reorient  #important for SAPT in psi4, default
symmetry c1  #important for SAPT in psi4, default
}

set PROPERTIES_ORIGIN ["COM"]
properties('MP2/aug-cc-pvtz', properties = ['dipole'])
--------------------------------------------------------------------------

    Molecular point group: c1
  Charge       = 1
  Multiplicity = 1
  Basis Set: AUG-CC-PVTZ
    Blend: AUG-CC-PVTZ
  Basis Set: (AUG-CC-PVTZ AUX)
    Blend: AUG-CC-PVTZ-JKFIT

    Orbital Energies [Eh]
    ---------------------

    Doubly Occupied:

       1A    -15.866851     2A    -15.703436     3A    -11.457046
       4A    -11.457035     5A    -11.417768     6A    -11.417509
       7A    -11.375048     8A    -11.344164     9A    -11.340242
      10A    -11.331587    11A    -11.329680    12A    -11.328483
      13A    -11.323656    14A     -1.497773    15A     -1.390596
      16A     -1.249935    17A     -1.222121    18A     -1.155860
      19A     -1.142837    20A     -1.088200    21A     -1.053752
      22A     -1.031963    23A     -0.996378    24A     -0.935659
      25A     -0.924458    26A     -0.902985    27A     -0.867618
      28A     -0.823991    29A     -0.810348    30A     -0.793808
      31A     -0.788765    32A     -0.754860    33A     -0.745589
      34A     -0.734868    35A     -0.714767    36A     -0.704590
      37A     -0.687987    38A     -0.673295    39A     -0.668262
      40A     -0.660090    41A     -0.654694    42A     -0.645940
      43A     -0.599889    44A     -0.592340    45A     -0.586779
      46A     -0.521790    47A     -0.433421    48A     -0.423099

  @DF-RHF Final Energy:  -535.30814978145611

   => Energetics <=

    Nuclear Repulsion Energy =            820.4839694672151609
    One-Electron Energy =               -2339.2406127747990467
    Two-Electron Energy =                 983.4484935261278906
    Total Energy =                       -535.3081497814561089
  Basis Set: (AUG-CC-PVTZ AUX)
    Blend: AUG-CC-PVTZ-RI
    Molecular point group: c1

    Geometry (in Angstrom), charge = 1, multiplicity = 1:

       Center              X                  Y                   Z               Mass
    ------------   -----------------  -----------------  -----------------  -----------------
         N           -3.470054706254    -0.168988411585     0.160687016168    14.003074004430
         N           -0.671745706254     0.004874588415    -0.128347983832    14.003074004430
         C           -2.788071706254    -0.592228411585    -1.121273983832    12.000000000000
         C           -2.676812706254     0.866038588415     0.926365016168    12.000000000000
         C           -1.390107706254    -1.077360411585    -0.781810983832    12.000000000000
         C           -1.277057706254     0.326834588415     1.157894016168    12.000000000000
         C            0.758797293746    -0.171802411585    -0.039308983832    12.000000000000
         C            1.567660293746     0.962385588415    -0.235563983832    12.000000000000
         C            1.319561293746    -1.421074411585     0.250357016168    12.000000000000
         C            2.954167293746     0.797635588415    -0.133876983832    12.000000000000
         C            0.969370293746     2.307910588415    -0.548804983832    12.000000000000
         C            2.705545293746    -1.561157411585     0.329658016168    12.000000000000
         C            3.523388293746    -0.446361411585     0.143686016168    12.000000000000
         H           -2.751319706254     0.289822588415    -1.762895983832     1.007825032230
         H           -3.406849706254    -1.367273411585    -1.580913983832     1.007825032230
         H           -3.214489706254     1.070967588415     1.855690016168     1.007825032230
         H           -2.649265706254     1.761587588415     0.302932016168     1.007825032230
         H           -1.462998706254    -1.997252411585    -0.170149983832     1.007825032230
         H           -0.876437706254    -1.341784411585    -1.710417983832     1.007825032230
         H           -0.686837706254     1.103952588415     1.650856016168     1.007825032230
         H           -1.308201706254    -0.543178411585     1.842521016168     1.007825032230
         H           -4.415203706254     0.185229588415    -0.039796983832     1.007825032230
         H           -3.594130706254    -0.999149411585     0.757979016168     1.007825032230
         H            0.685771293746    -2.290988411585     0.409071016168     1.007825032230
         H            3.599611293746     1.659789588415    -0.289013983832     1.007825032230
         H            0.136755893746     2.170966588415    -1.243270483832     1.007825032230
         H            0.541615293746     2.783306588415     0.342073016168     1.007825032230
         H            1.735594293746     2.982428588415    -0.938240983832     1.007825032230
         H            3.140933293746    -2.532974411585     0.546424016168     1.007825032230
         H            4.603746293746    -0.545896411585     0.205074016168     1.007825032230

  Basis Set: AUG-CC-PVTZ
    Blend: AUG-CC-PVTZ
  Basis Set: (AUG-CC-PVTZ AUX)
    Blend: AUG-CC-PVTZ-JKFIT
	 Reference Energy          =    -535.3081497814561089 [Eh]
	 Singles Energy            =      -0.0000000000000000 [Eh]
	 Same-Spin Energy          =      -0.5854312244174052 [Eh]
	 Opposite-Spin Energy      =      -1.9172994113026904 [Eh]
	 Correlation Energy        =      -2.5027306357200958 [Eh]
	 Total Energy              =    -537.8108804171762358 [Eh]

	 ================> DF-SCS-MP2 Energies <==================
	-----------------------------------------------------------
	 SCS Same-Spin Scale       =       0.3333333333333333 [-]
	 SCS Opposite-Spin Scale   =       1.2000000000000000 [-]
	 SCS Same-Spin Energy      =      -0.1951437414724684 [Eh]
	 SCS Opposite-Spin Energy  =      -2.3007592935632286 [Eh]
	 SCS Correlation Energy    =      -2.4959030350356972 [Eh]
	 SCS Total Energy          =    -537.8040528164917760 [Eh]
	-----------------------------------------------------------

  Dipole Moment: [D]
     X:   -12.1264      Y:    -0.6939      Z:     0.7558     Total:    12.1697

*** Psi4 exiting successfully. Buy a developer a beer!
