                               Psi4 1.4a3.dev225

  ==> Input File <==

--------------------------------------------------------------------------
#psi4
#
memory 32 gb

molecule  {
1 1
  N       -3.4197460    -0.1817000     0.1602720
  N       -0.6214370    -0.0078370    -0.1287630
  C       -2.7377630    -0.6049400    -1.1216890
  C       -2.6265040     0.8533270     0.9259500
  C       -1.3397990    -1.0900720    -0.7822260
  C       -1.2267490     0.3141230     1.1574790
  C        0.8091060    -0.1845140    -0.0397240
  C        1.6179690     0.9496740    -0.2359790
  C        1.3698700    -1.4337860     0.2499420
  C        3.0044760     0.7849240    -0.1342920
  C        1.0196790     2.2951990    -0.5492200
  C        2.7558540    -1.5738690     0.3292430
  C        3.5736970    -0.4590730     0.1432710
  H       -2.7010110     0.2771110    -1.7633110
  H       -3.3565410    -1.3799850    -1.5813290
  H       -3.1641810     1.0582560     1.8552750
  H       -2.5989570     1.7488760     0.3025170
  H       -1.4126900    -2.0099640    -0.1705650
  H       -0.8261290    -1.3544960    -1.7108330
  H       -0.6365290     1.0912410     1.6504410
  H       -1.2578930    -0.5558900     1.8421060
  H       -4.4108178     0.1897287    -0.0499531
  H       -3.5438220    -1.0118610     0.7575640
  H        0.7360800    -2.3037000     0.4086560
  H        3.6499200     1.6470780    -0.2894290
  H        0.2227830     2.2055990    -1.2916560
  H        0.5919240     2.7705950     0.3416580
  H        1.7859030     2.9697170    -0.9386560
  H        3.1912420    -2.5456860     0.5460090
  H        4.6540550    -0.5586080     0.2046590
units angstrom
no_reorient  #important for SAPT in psi4, default
symmetry c1  #important for SAPT in psi4, default
}

set PROPERTIES_ORIGIN ["COM"]
properties('MP2/aug-cc-pvtz', properties = ['dipole'])
--------------------------------------------------------------------------

    Molecular point group: c1
  Charge       = 1
  Multiplicity = 1
  Basis Set: AUG-CC-PVTZ
    Blend: AUG-CC-PVTZ
  Basis Set: (AUG-CC-PVTZ AUX)
    Blend: AUG-CC-PVTZ-JKFIT

    Orbital Energies [Eh]
    ---------------------

    Doubly Occupied:

       1A    -15.869973     2A    -15.702789     3A    -11.456317
       4A    -11.456284     5A    -11.417259     6A    -11.416989
       7A    -11.374995     8A    -11.344233     9A    -11.340026
      10A    -11.331669    11A    -11.329748    12A    -11.328476
      13A    -11.323438    14A     -1.491614    15A     -1.389092
      16A     -1.249527    17A     -1.221359    18A     -1.153821
      19A     -1.141738    20A     -1.086937    21A     -1.052917
      22A     -1.031754    23A     -0.994945    24A     -0.929585
      25A     -0.919069    26A     -0.902034    27A     -0.866823
      28A     -0.823106    29A     -0.809411    30A     -0.793146
      31A     -0.787847    32A     -0.754445    33A     -0.744397
      34A     -0.734127    35A     -0.713644    36A     -0.704188
      37A     -0.687306    38A     -0.675007    39A     -0.669285
      40A     -0.659615    41A     -0.654731    42A     -0.640346
      43A     -0.599788    44A     -0.591474    45A     -0.587921
      46A     -0.521380    47A     -0.433403    48A     -0.423336

  @DF-RHF Final Energy:  -535.30522526584127

   => Energetics <=

    Nuclear Repulsion Energy =            819.9843425983755196
    One-Electron Energy =               -2338.3165124449242285
    Two-Electron Energy =                 983.0269445807075499
    Total Energy =                       -535.3052252658412726
  Basis Set: (AUG-CC-PVTZ AUX)
    Blend: AUG-CC-PVTZ-RI
    Molecular point group: c1

    Geometry (in Angstrom), charge = 1, multiplicity = 1:

       Center              X                  Y                   Z               Mass
    ------------   -----------------  -----------------  -----------------  -----------------
         N           -3.469996648798    -0.169355692527     0.161015363613    14.003074004430
         N           -0.671687648798     0.004507307473    -0.128019636387    14.003074004430
         C           -2.788013648798    -0.592595692527    -1.120945636387    12.000000000000
         C           -2.676754648798     0.865671307473     0.926693363613    12.000000000000
         C           -1.390049648798    -1.077727692527    -0.781482636387    12.000000000000
         C           -1.276999648798     0.326467307473     1.158222363613    12.000000000000
         C            0.758855351202    -0.172169692527    -0.038980636387    12.000000000000
         C            1.567718351202     0.962018307473    -0.235235636387    12.000000000000
         C            1.319619351202    -1.421441692527     0.250685363613    12.000000000000
         C            2.954225351202     0.797268307473    -0.133548636387    12.000000000000
         C            0.969428351202     2.307543307473    -0.548476636387    12.000000000000
         C            2.705603351202    -1.561524692527     0.329986363613    12.000000000000
         C            3.523446351202    -0.446728692527     0.144014363613    12.000000000000
         H           -2.751261648798     0.289455307473    -1.762567636387     1.007825032230
         H           -3.406791648798    -1.367640692527    -1.580585636387     1.007825032230
         H           -3.214431648798     1.070600307473     1.856018363613     1.007825032230
         H           -2.649207648798     1.761220307473     0.303260363613     1.007825032230
         H           -1.462940648798    -1.997619692527    -0.169821636387     1.007825032230
         H           -0.876379648798    -1.342151692527    -1.710089636387     1.007825032230
         H           -0.686779648798     1.103585307473     1.651184363613     1.007825032230
         H           -1.308143648798    -0.543545692527     1.842849363613     1.007825032230
         H           -4.461068448798     0.202073007473    -0.049209736387     1.007825032230
         H           -3.594072648798    -0.999516692527     0.758307363613     1.007825032230
         H            0.685829351202    -2.291355692527     0.409399363613     1.007825032230
         H            3.599669351202     1.659422307473    -0.288685636387     1.007825032230
         H            0.172532351202     2.217943307473    -1.290912636387     1.007825032230
         H            0.541673351202     2.782939307473     0.342401363613     1.007825032230
         H            1.735652351202     2.982061307473    -0.937912636387     1.007825032230
         H            3.140991351202    -2.533341692527     0.546752363613     1.007825032230
         H            4.603804351202    -0.546263692527     0.205402363613     1.007825032230

  Basis Set: AUG-CC-PVTZ
    Blend: AUG-CC-PVTZ
  Basis Set: (AUG-CC-PVTZ AUX)
    Blend: AUG-CC-PVTZ-JKFIT
	 Reference Energy          =    -535.3052252658412726 [Eh]
	 Singles Energy            =      -0.0000000000000000 [Eh]
	 Same-Spin Energy          =      -0.5856364854768156 [Eh]
	 Opposite-Spin Energy      =      -1.9181517739621956 [Eh]
	 Correlation Energy        =      -2.5037882594390113 [Eh]
	 Total Energy              =    -537.8090135252803066 [Eh]

	 ================> DF-SCS-MP2 Energies <==================
	-----------------------------------------------------------
	 SCS Same-Spin Scale       =       0.3333333333333333 [-]
	 SCS Opposite-Spin Scale   =       1.2000000000000000 [-]
	 SCS Same-Spin Energy      =      -0.1952121618256052 [Eh]
	 SCS Opposite-Spin Energy  =      -2.3017821287546347 [Eh]
	 SCS Correlation Energy    =      -2.4969942905802398 [Eh]
	 SCS Total Energy          =    -537.8022195564215053 [Eh]
	-----------------------------------------------------------

  Dipole Moment: [D]
     X:   -12.1723      Y:    -0.6633      Z:     0.7201     Total:    12.2116

*** Psi4 exiting successfully. Buy a developer a beer!
