                               Psi4 1.4a3.dev225

  ==> Input File <==

--------------------------------------------------------------------------
#psi4
#
memory 32 gb

molecule  {
1 1
  N       -3.4041013    -0.2479703     0.2409221
  N       -0.6214370    -0.0078370    -0.1287630
  C       -2.7377630    -0.6049400    -1.1216890
  C       -2.6265040     0.8533270     0.9259500
  C       -1.3397990    -1.0900720    -0.7822260
  C       -1.2267490     0.3141230     1.1574790
  C        0.8091060    -0.1845140    -0.0397240
  C        1.6179690     0.9496740    -0.2359790
  C        1.3698700    -1.4337860     0.2499420
  C        3.0044760     0.7849240    -0.1342920
  C        1.0196790     2.2951990    -0.5492200
  C        2.7558540    -1.5738690     0.3292430
  C        3.5736970    -0.4590730     0.1432710
  H       -2.7010110     0.2771110    -1.7633110
  H       -3.3565410    -1.3799850    -1.5813290
  H       -3.1641810     1.0582560     1.8552750
  H       -2.5989570     1.7488760     0.3025170
  H       -1.4126900    -2.0099640    -0.1705650
  H       -0.8261290    -1.3544960    -1.7108330
  H       -0.6365290     1.0912410     1.6504410
  H       -1.2578930    -0.5558900     1.8421060
  H       -4.3648950     0.1725180    -0.0402120
  H       -3.5438220    -1.0118610     0.7575640
  H        0.7360800    -2.3037000     0.4086560
  H        3.6499200     1.6470780    -0.2894290
  H        0.2227830     2.2055990    -1.2916560
  H        0.5919240     2.7705950     0.3416580
  H        1.7859030     2.9697170    -0.9386560
  H        3.1912420    -2.5456860     0.5460090
  H        4.6540550    -0.5586080     0.2046590
units angstrom
no_reorient  #important for SAPT in psi4, default
symmetry c1  #important for SAPT in psi4, default
}

set PROPERTIES_ORIGIN ["COM"]
properties('MP2/aug-cc-pvtz', properties = ['dipole'])
--------------------------------------------------------------------------

    Molecular point group: c1
  Charge       = 1
  Multiplicity = 1
  Basis Set: AUG-CC-PVTZ
    Blend: AUG-CC-PVTZ
  Basis Set: (AUG-CC-PVTZ AUX)
    Blend: AUG-CC-PVTZ-JKFIT

    Orbital Energies [Eh]
    ---------------------

    Doubly Occupied:

       1A    -15.861300     2A    -15.702713     3A    -11.461834
       4A    -11.456825     5A    -11.416934     6A    -11.415576
       7A    -11.375043     8A    -11.344262     9A    -11.340023
      10A    -11.331684    11A    -11.329773    12A    -11.328485
      13A    -11.323652    14A     -1.496796    15A     -1.390122
      16A     -1.249927    17A     -1.219666    18A     -1.157743
      19A     -1.143385    20A     -1.091241    21A     -1.048407
      22A     -1.033908    23A     -1.005982    24A     -0.932946
      25A     -0.912047    26A     -0.901816    27A     -0.874028
      28A     -0.828400    29A     -0.813780    30A     -0.791820
      31A     -0.780448    32A     -0.754077    33A     -0.746680
      34A     -0.736151    35A     -0.716932    36A     -0.706434
      37A     -0.686182    38A     -0.675187    39A     -0.668863
      40A     -0.657990    41A     -0.652371    42A     -0.640390
      43A     -0.599852    44A     -0.591372    45A     -0.587953
      46A     -0.521410    47A     -0.433402    48A     -0.423348

  @DF-RHF Final Energy:  -535.29362762207029

   => Energetics <=

    Nuclear Repulsion Energy =            820.1650522345855734
    One-Electron Energy =               -2338.5990351509808534
    Two-Electron Energy =                 983.1403552943249906
    Total Energy =                       -535.2936276220702894
  Basis Set: (AUG-CC-PVTZ AUX)
    Blend: AUG-CC-PVTZ-RI
    Molecular point group: c1

    Geometry (in Angstrom), charge = 1, multiplicity = 1:

       Center              X                  Y                   Z               Mass
    ------------   -----------------  -----------------  -----------------  -----------------
         N           -3.455849957589    -0.230289322662     0.235234550449    14.003074004430
         N           -0.673185657589     0.009843977338    -0.134450549551    14.003074004430
         C           -2.789511657589    -0.587259022662    -1.127376549551    12.000000000000
         C           -2.678252657589     0.871007977338     0.920262450449    12.000000000000
         C           -1.391547657589    -1.072391022662    -0.787913549551    12.000000000000
         C           -1.278497657589     0.331803977338     1.151791450449    12.000000000000
         C            0.757357342411    -0.166833022662    -0.045411549551    12.000000000000
         C            1.566220342411     0.967354977338    -0.241666549551    12.000000000000
         C            1.318121342411    -1.416105022662     0.244254450449    12.000000000000
         C            2.952727342411     0.802604977338    -0.139979549551    12.000000000000
         C            0.967930342411     2.312879977338    -0.554907549551    12.000000000000
         C            2.704105342411    -1.556188022662     0.323555450449    12.000000000000
         C            3.521948342411    -0.441392022662     0.137583450449    12.000000000000
         H           -2.752759657589     0.294791977338    -1.768998549551     1.007825032230
         H           -3.408289657589    -1.362304022662    -1.587016549551     1.007825032230
         H           -3.215929657589     1.075936977338     1.849587450449     1.007825032230
         H           -2.650705657589     1.766556977338     0.296829450449     1.007825032230
         H           -1.464438657589    -1.992283022662    -0.176252549551     1.007825032230
         H           -0.877877657589    -1.336815022662    -1.716520549551     1.007825032230
         H           -0.688277657589     1.108921977338     1.644753450449     1.007825032230
         H           -1.309641657589    -0.538209022662     1.836418450449     1.007825032230
         H           -4.416643657589     0.190198977338    -0.045899549551     1.007825032230
         H           -3.595570657589    -0.994180022662     0.751876450449     1.007825032230
         H            0.684331342411    -2.286019022662     0.402968450449     1.007825032230
         H            3.598171342411     1.664758977338    -0.295116549551     1.007825032230
         H            0.171034342411     2.223279977338    -1.297343549551     1.007825032230
         H            0.540175342411     2.788275977338     0.335970450449     1.007825032230
         H            1.734154342411     2.987397977338    -0.944343549551     1.007825032230
         H            3.139493342411    -2.528005022662     0.540321450449     1.007825032230
         H            4.602306342411    -0.540927022662     0.198971450449     1.007825032230

  Basis Set: AUG-CC-PVTZ
    Blend: AUG-CC-PVTZ
  Basis Set: (AUG-CC-PVTZ AUX)
    Blend: AUG-CC-PVTZ-JKFIT
	 Reference Energy          =    -535.2936276220702894 [Eh]
	 Singles Energy            =      -0.0000000000000000 [Eh]
	 Same-Spin Energy          =      -0.5850939011826204 [Eh]
	 Opposite-Spin Energy      =      -1.9174845177979181 [Eh]
	 Correlation Energy        =      -2.5025784189805385 [Eh]
	 Total Energy              =    -537.7962060410508229 [Eh]

	 ================> DF-SCS-MP2 Energies <==================
	-----------------------------------------------------------
	 SCS Same-Spin Scale       =       0.3333333333333333 [-]
	 SCS Opposite-Spin Scale   =       1.2000000000000000 [-]
	 SCS Same-Spin Energy      =      -0.1950313003942068 [Eh]
	 SCS Opposite-Spin Energy  =      -2.3009814213575015 [Eh]
	 SCS Correlation Energy    =      -2.4960127217517081 [Eh]
	 SCS Total Energy          =    -537.7896403438220432 [Eh]
	-----------------------------------------------------------

  Dipole Moment: [D]
     X:   -12.1229      Y:    -0.6368      Z:     0.6244     Total:    12.1557

*** Psi4 exiting successfully. Buy a developer a beer!
