                               Psi4 1.4a3.dev225

  ==> Input File <==

--------------------------------------------------------------------------
#psi4
#
memory 32 gb

molecule  {
1 1
  N       -3.3948528    -0.2791126     0.2825239
  N       -0.6214370    -0.0078370    -0.1287630
  C       -2.7377630    -0.6049400    -1.1216890
  C       -2.6265040     0.8533270     0.9259500
  C       -1.3397990    -1.0900720    -0.7822260
  C       -1.2267490     0.3141230     1.1574790
  C        0.8091060    -0.1845140    -0.0397240
  C        1.6179690     0.9496740    -0.2359790
  C        1.3698700    -1.4337860     0.2499420
  C        3.0044760     0.7849240    -0.1342920
  C        1.0196790     2.2951990    -0.5492200
  C        2.7558540    -1.5738690     0.3292430
  C        3.5736970    -0.4590730     0.1432710
  H       -2.7010110     0.2771110    -1.7633110
  H       -3.3565410    -1.3799850    -1.5813290
  H       -3.1641810     1.0582560     1.8552750
  H       -2.5989570     1.7488760     0.3025170
  H       -1.4126900    -2.0099640    -0.1705650
  H       -0.8261290    -1.3544960    -1.7108330
  H       -0.6365290     1.0912410     1.6504410
  H       -1.2578930    -0.5558900     1.8421060
  H       -4.3648950     0.1725180    -0.0402120
  H       -3.5438220    -1.0118610     0.7575640
  H        0.7360800    -2.3037000     0.4086560
  H        3.6499200     1.6470780    -0.2894290
  H        0.2227830     2.2055990    -1.2916560
  H        0.5919240     2.7705950     0.3416580
  H        1.7859030     2.9697170    -0.9386560
  H        3.1912420    -2.5456860     0.5460090
  H        4.6540550    -0.5586080     0.2046590
units angstrom
no_reorient  #important for SAPT in psi4, default
symmetry c1  #important for SAPT in psi4, default
}

set PROPERTIES_ORIGIN ["COM"]
properties('MP2/aug-cc-pvtz', properties = ['dipole'])
--------------------------------------------------------------------------

    Molecular point group: c1
  Charge       = 1
  Multiplicity = 1
  Basis Set: AUG-CC-PVTZ
    Blend: AUG-CC-PVTZ
  Basis Set: (AUG-CC-PVTZ AUX)
    Blend: AUG-CC-PVTZ-JKFIT

    Orbital Energies [Eh]
    ---------------------

    Doubly Occupied:

       1A    -15.857910     2A    -15.702635     3A    -11.464979
       4A    -11.457243     5A    -11.416854     6A    -11.414756
       7A    -11.375032     8A    -11.344244     9A    -11.339988
      10A    -11.331661    11A    -11.329755    12A    -11.328459
      13A    -11.323726    14A     -1.497552    15A     -1.390397
      16A     -1.250097    17A     -1.218723    18A     -1.160661
      19A     -1.144023    20A     -1.093890    21A     -1.046261
      22A     -1.035070    23A     -1.008758    24A     -0.932924
      25A     -0.907478    26A     -0.897806    27A     -0.877121
      28A     -0.830787    29A     -0.815228    30A     -0.790772
      31A     -0.776692    32A     -0.754327    33A     -0.746642
      34A     -0.736567    35A     -0.718009    36A     -0.705978
      37A     -0.685638    38A     -0.675222    39A     -0.668651
      40A     -0.656691    41A     -0.650104    42A     -0.640293
      43A     -0.599846    44A     -0.591236    45A     -0.587934
      46A     -0.521374    47A     -0.433370    48A     -0.423320

  @DF-RHF Final Energy:  -535.27189507579715

   => Energetics <=

    Nuclear Repulsion Energy =            820.1054049376861030
    One-Electron Energy =               -2338.4412315901995498
    Two-Electron Energy =                 983.0639315767161861
    Total Energy =                       -535.2718950757971470
  Basis Set: (AUG-CC-PVTZ AUX)
    Blend: AUG-CC-PVTZ-RI
    Molecular point group: c1

    Geometry (in Angstrom), charge = 1, multiplicity = 1:

       Center              X                  Y                   Z               Mass
    ------------   -----------------  -----------------  -----------------  -----------------
         N           -3.447332563123    -0.258969784759     0.273547675943    14.003074004430
         N           -0.673916763123     0.012305815241    -0.137739224057    14.003074004430
         C           -2.790242763123    -0.584797184759    -1.130665224057    12.000000000000
         C           -2.678983763123     0.873469815241     0.916973775943    12.000000000000
         C           -1.392278763123    -1.069929184759    -0.791202224057    12.000000000000
         C           -1.279228763123     0.334265815241     1.148502775943    12.000000000000
         C            0.756626236877    -0.164371184759    -0.048700224057    12.000000000000
         C            1.565489236877     0.969816815241    -0.244955224057    12.000000000000
         C            1.317390236877    -1.413643184759     0.240965775943    12.000000000000
         C            2.951996236877     0.805066815241    -0.143268224057    12.000000000000
         C            0.967199236877     2.315341815241    -0.558196224057    12.000000000000
         C            2.703374236877    -1.553726184759     0.320266775943    12.000000000000
         C            3.521217236877    -0.438930184759     0.134294775943    12.000000000000
         H           -2.753490763123     0.297253815241    -1.772287224057     1.007825032230
         H           -3.409020763123    -1.359842184759    -1.590305224057     1.007825032230
         H           -3.216660763123     1.078398815241     1.846298775943     1.007825032230
         H           -2.651436763123     1.769018815241     0.293540775943     1.007825032230
         H           -1.465169763123    -1.989821184759    -0.179541224057     1.007825032230
         H           -0.878608763123    -1.334353184759    -1.719809224057     1.007825032230
         H           -0.689008763123     1.111383815241     1.641464775943     1.007825032230
         H           -1.310372763123    -0.535747184759     1.833129775943     1.007825032230
         H           -4.417374763123     0.192660815241    -0.049188224057     1.007825032230
         H           -3.596301763123    -0.991718184759     0.748587775943     1.007825032230
         H            0.683600236877    -2.283557184759     0.399679775943     1.007825032230
         H            3.597440236877     1.667220815241    -0.298405224057     1.007825032230
         H            0.170303236877     2.225741815241    -1.300632224057     1.007825032230
         H            0.539444236877     2.790737815241     0.332681775943     1.007825032230
         H            1.733423236877     2.989859815241    -0.947632224057     1.007825032230
         H            3.138762236877    -2.525543184759     0.537032775943     1.007825032230
         H            4.601575236877    -0.538465184759     0.195682775943     1.007825032230

  Basis Set: AUG-CC-PVTZ
    Blend: AUG-CC-PVTZ
  Basis Set: (AUG-CC-PVTZ AUX)
    Blend: AUG-CC-PVTZ-JKFIT
	 Reference Energy          =    -535.2718950757971470 [Eh]
	 Singles Energy            =      -0.0000000000000000 [Eh]
	 Same-Spin Energy          =      -0.5852287425323569 [Eh]
	 Opposite-Spin Energy      =      -1.9183304560130918 [Eh]
	 Correlation Energy        =      -2.5035591985454486 [Eh]
	 Total Energy              =    -537.7754542743425645 [Eh]

	 ================> DF-SCS-MP2 Energies <==================
	-----------------------------------------------------------
	 SCS Same-Spin Scale       =       0.3333333333333333 [-]
	 SCS Opposite-Spin Scale   =       1.2000000000000000 [-]
	 SCS Same-Spin Energy      =      -0.1950762475107856 [Eh]
	 SCS Opposite-Spin Energy  =      -2.3019965472157100 [Eh]
	 SCS Correlation Energy    =      -2.4970727947264955 [Eh]
	 SCS Total Energy          =    -537.7689678705236247 [Eh]
	-----------------------------------------------------------

  Dipole Moment: [D]
     X:   -12.1192      Y:    -0.6081      Z:     0.5606     Total:    12.1474

*** Psi4 exiting successfully. Buy a developer a beer!
