                               Psi4 1.4a3.dev225

  ==> Input File <==

--------------------------------------------------------------------------
#psi4
#
memory 32 gb

molecule  {
1 1
  N       -3.4197460    -0.1817000     0.1602720
  N       -0.6214370    -0.0078370    -0.1287630
  C       -2.7377630    -0.6049400    -1.1216890
  C       -2.6388659     0.9454678     0.7978420
  C       -1.3397990    -1.0900720    -0.7822260
  C       -1.2267490     0.3141230     1.1574790
  C        0.8091060    -0.1845140    -0.0397240
  C        1.6179690     0.9496740    -0.2359790
  C        1.3698700    -1.4337860     0.2499420
  C        3.0044760     0.7849240    -0.1342920
  C        1.0196790     2.2951990    -0.5492200
  C        2.7558540    -1.5738690     0.3292430
  C        3.5736970    -0.4590730     0.1432710
  H       -2.7010110     0.2771110    -1.7633110
  H       -3.3565410    -1.3799850    -1.5813290
  H       -3.1641810     1.0582560     1.8552750
  H       -2.5989570     1.7488760     0.3025170
  H       -1.4126900    -2.0099640    -0.1705650
  H       -0.8261290    -1.3544960    -1.7108330
  H       -0.6365290     1.0912410     1.6504410
  H       -1.2578930    -0.5558900     1.8421060
  H       -4.3648950     0.1725180    -0.0402120
  H       -3.5438220    -1.0118610     0.7575640
  H        0.7360800    -2.3037000     0.4086560
  H        3.6499200     1.6470780    -0.2894290
  H        0.2227830     2.2055990    -1.2916560
  H        0.5919240     2.7705950     0.3416580
  H        1.7859030     2.9697170    -0.9386560
  H        3.1912420    -2.5456860     0.5460090
  H        4.6540550    -0.5586080     0.2046590
units angstrom
no_reorient  #important for SAPT in psi4, default
symmetry c1  #important for SAPT in psi4, default
}

set PROPERTIES_ORIGIN ["COM"]
properties('MP2/aug-cc-pvtz', properties = ['dipole'])
--------------------------------------------------------------------------

    Molecular point group: c1
  Charge       = 1
  Multiplicity = 1
  Basis Set: AUG-CC-PVTZ
    Blend: AUG-CC-PVTZ
  Basis Set: (AUG-CC-PVTZ AUX)
    Blend: AUG-CC-PVTZ-JKFIT

    Orbital Energies [Eh]
    ---------------------

    Doubly Occupied:

       1A    -15.868220     2A    -15.701327     3A    -11.456238
       4A    -11.456227     5A    -11.421796     6A    -11.417428
       7A    -11.374601     8A    -11.344159     9A    -11.339919
      10A    -11.331747    11A    -11.329831    12A    -11.328460
      13A    -11.323943    14A     -1.497884    15A     -1.389477
      16A     -1.249533    17A     -1.216336    18A     -1.154505
      19A     -1.142605    20A     -1.091243    21A     -1.053790
      22A     -1.033422    23A     -1.002191    24A     -0.933993
      25A     -0.921905    26A     -0.902584    27A     -0.873622
      28A     -0.842881    29A     -0.811248    30A     -0.789210
      31A     -0.779768    32A     -0.754987    33A     -0.748590
      34A     -0.727276    35A     -0.718178    36A     -0.705141
      37A     -0.692639    38A     -0.675355    39A     -0.669065
      40A     -0.656583    41A     -0.644989    42A     -0.638764
      43A     -0.600051    44A     -0.590050    45A     -0.586971
      46A     -0.520376    47A     -0.433402    48A     -0.423226

  @DF-RHF Final Energy:  -535.27448450675888

   => Energetics <=

    Nuclear Repulsion Energy =            820.1007544329701204
    One-Electron Energy =               -2338.4190006782337150
    Two-Electron Energy =                 983.0437617385048270
    Total Energy =                       -535.2744845067588813
  Basis Set: (AUG-CC-PVTZ AUX)
    Blend: AUG-CC-PVTZ-RI
    Molecular point group: c1

    Geometry (in Angstrom), charge = 1, multiplicity = 1:

       Center              X                  Y                   Z               Mass
    ------------   -----------------  -----------------  -----------------  -----------------
         N           -3.469420487972    -0.175499698982     0.169638406416    14.003074004430
         N           -0.671111487972    -0.001636698982    -0.119396593584    14.003074004430
         C           -2.787437487972    -0.598739698982    -1.112322593584    12.000000000000
         C           -2.688540387972     0.951668101018     0.807208406416    12.000000000000
         C           -1.389473487972    -1.083871698982    -0.772859593584    12.000000000000
         C           -1.276423487972     0.320323301018     1.166845406416    12.000000000000
         C            0.759431512028    -0.178313698982    -0.030357593584    12.000000000000
         C            1.568294512028     0.955874301018    -0.226612593584    12.000000000000
         C            1.320195512028    -1.427585698982     0.259308406416    12.000000000000
         C            2.954801512028     0.791124301018    -0.124925593584    12.000000000000
         C            0.970004512028     2.301399301018    -0.539853593584    12.000000000000
         C            2.706179512028    -1.567668698982     0.338609406416    12.000000000000
         C            3.524022512028    -0.452872698982     0.152637406416    12.000000000000
         H           -2.750685487972     0.283311301018    -1.753944593584     1.007825032230
         H           -3.406215487972    -1.373784698982    -1.571962593584     1.007825032230
         H           -3.213855487972     1.064456301018     1.864641406416     1.007825032230
         H           -2.648631487972     1.755076301018     0.311883406416     1.007825032230
         H           -1.462364487972    -2.003763698982    -0.161198593584     1.007825032230
         H           -0.875803487972    -1.348295698982    -1.701466593584     1.007825032230
         H           -0.686203487972     1.097441301018     1.659807406416     1.007825032230
         H           -1.307567487972    -0.549689698982     1.851472406416     1.007825032230
         H           -4.414569487972     0.178718301018    -0.030845593584     1.007825032230
         H           -3.593496487972    -1.005660698982     0.766930406416     1.007825032230
         H            0.686405512028    -2.297499698982     0.418022406416     1.007825032230
         H            3.600245512028     1.653278301018    -0.280062593584     1.007825032230
         H            0.173108512028     2.211799301018    -1.282289593584     1.007825032230
         H            0.542249512028     2.776795301018     0.351024406416     1.007825032230
         H            1.736228512028     2.975917301018    -0.929289593584     1.007825032230
         H            3.141567512028    -2.539485698982     0.555375406416     1.007825032230
         H            4.604380512028    -0.552407698982     0.214025406416     1.007825032230

  Basis Set: AUG-CC-PVTZ
    Blend: AUG-CC-PVTZ
  Basis Set: (AUG-CC-PVTZ AUX)
    Blend: AUG-CC-PVTZ-JKFIT
	 Reference Energy          =    -535.2744845067588813 [Eh]
	 Singles Energy            =      -0.0000000000000000 [Eh]
	 Same-Spin Energy          =      -0.5855112301136886 [Eh]
	 Opposite-Spin Energy      =      -1.9187297553500775 [Eh]
	 Correlation Energy        =      -2.5042409854637659 [Eh]
	 Total Energy              =    -537.7787254922226339 [Eh]

	 ================> DF-SCS-MP2 Energies <==================
	-----------------------------------------------------------
	 SCS Same-Spin Scale       =       0.3333333333333333 [-]
	 SCS Opposite-Spin Scale   =       1.2000000000000000 [-]
	 SCS Same-Spin Energy      =      -0.1951704100378962 [Eh]
	 SCS Opposite-Spin Energy  =      -2.3024757064200929 [Eh]
	 SCS Correlation Energy    =      -2.4976461164579891 [Eh]
	 SCS Total Energy          =    -537.7721306232168672 [Eh]
	-----------------------------------------------------------

  Dipole Moment: [D]
     X:   -12.0846      Y:    -0.7127      Z:     0.6873     Total:    12.1251

*** Psi4 exiting successfully. Buy a developer a beer!
