                               Psi4 1.4a3.dev225

  ==> Input File <==

--------------------------------------------------------------------------
#psi4
#
memory 32 gb

molecule  {
1 1
  N       -3.4197460    -0.1817000     0.1602720
  N       -0.6214370    -0.0078370    -0.1287630
  C       -2.7377630    -0.6049400    -1.1216890
  C       -2.6265040     0.8533270     0.9259500
  C       -1.3397990    -1.0900720    -0.7822260
  C       -1.2267490     0.3141230     1.1574790
  C        0.8091060    -0.1845140    -0.0397240
  C        1.6179690     0.9496740    -0.2359790
  C        1.3698700    -1.4337860     0.2499420
  C        3.0044760     0.7849240    -0.1342920
  C        1.0196790     2.2951990    -0.5492200
  C        2.7558540    -1.5738690     0.3292430
  C        3.5736970    -0.4590730     0.1432710
  H       -2.6976434     0.3579331    -1.8221026
  H       -3.3565410    -1.3799850    -1.5813290
  H       -3.1641810     1.0582560     1.8552750
  H       -2.5989570     1.7488760     0.3025170
  H       -1.4126900    -2.0099640    -0.1705650
  H       -0.8261290    -1.3544960    -1.7108330
  H       -0.6365290     1.0912410     1.6504410
  H       -1.2578930    -0.5558900     1.8421060
  H       -4.3648950     0.1725180    -0.0402120
  H       -3.5438220    -1.0118610     0.7575640
  H        0.7360800    -2.3037000     0.4086560
  H        3.6499200     1.6470780    -0.2894290
  H        0.2227830     2.2055990    -1.2916560
  H        0.5919240     2.7705950     0.3416580
  H        1.7859030     2.9697170    -0.9386560
  H        3.1912420    -2.5456860     0.5460090
  H        4.6540550    -0.5586080     0.2046590
units angstrom
no_reorient  #important for SAPT in psi4, default
symmetry c1  #important for SAPT in psi4, default
}

set PROPERTIES_ORIGIN ["COM"]
properties('MP2/aug-cc-pvtz', properties = ['dipole'])
--------------------------------------------------------------------------

    Molecular point group: c1
  Charge       = 1
  Multiplicity = 1
  Basis Set: AUG-CC-PVTZ
    Blend: AUG-CC-PVTZ
  Basis Set: (AUG-CC-PVTZ AUX)
    Blend: AUG-CC-PVTZ-JKFIT

    Orbital Energies [Eh]
    ---------------------

    Doubly Occupied:

       1A    -15.867247     2A    -15.702956     3A    -11.466858
       4A    -11.456676     5A    -11.418184     6A    -11.417263
       7A    -11.375186     8A    -11.344393     9A    -11.340228
      10A    -11.331842    11A    -11.329908    12A    -11.328632
      13A    -11.323576    14A     -1.497359    15A     -1.390278
      16A     -1.249889    17A     -1.219596    18A     -1.154797
      19A     -1.141973    20A     -1.086876    21A     -1.051750
      22A     -1.031306    23A     -0.993122    24A     -0.935564
      25A     -0.924425    26A     -0.903343    27A     -0.867105
      28A     -0.815756    29A     -0.809729    30A     -0.793386
      31A     -0.788560    32A     -0.754855    33A     -0.744038
      34A     -0.733642    35A     -0.711823    36A     -0.701515
      37A     -0.681736    38A     -0.674719    39A     -0.669415
      40A     -0.659592    41A     -0.655798    42A     -0.640417
      43A     -0.599962    44A     -0.591702    45A     -0.588093
      46A     -0.521703    47A     -0.433583    48A     -0.423493

  @DF-RHF Final Energy:  -535.30190341276193

   => Energetics <=

    Nuclear Repulsion Energy =            819.8300156805312326
    One-Electron Energy =               -2337.9761486423717542
    Two-Electron Energy =                 982.8442295490785909
    Total Energy =                       -535.3019034127619307
  Basis Set: (AUG-CC-PVTZ AUX)
    Blend: AUG-CC-PVTZ-RI
    Molecular point group: c1

    Geometry (in Angstrom), charge = 1, multiplicity = 1:

       Center              X                  Y                   Z               Mass
    ------------   -----------------  -----------------  -----------------  -----------------
         N           -3.470277084221    -0.169717606608     0.161294434136    14.003074004430
         N           -0.671968084221     0.004145393392    -0.127740565864    14.003074004430
         C           -2.788294084221    -0.592957606608    -1.120666565864    12.000000000000
         C           -2.677035084221     0.865309393392     0.926972434136    12.000000000000
         C           -1.390330084221    -1.078089606608    -0.781203565864    12.000000000000
         C           -1.277280084221     0.326105393392     1.158501434136    12.000000000000
         C            0.758574915779    -0.172531606608    -0.038701565864    12.000000000000
         C            1.567437915779     0.961656393392    -0.234956565864    12.000000000000
         C            1.319338915779    -1.421803606608     0.250964434136    12.000000000000
         C            2.953944915779     0.796906393392    -0.133269565864    12.000000000000
         C            0.969147915779     2.307181393392    -0.548197565864    12.000000000000
         C            2.705322915779    -1.561886606608     0.330265434136    12.000000000000
         C            3.523165915779    -0.447090606608     0.144293434136    12.000000000000
         H           -2.748174484221     0.369915493392    -1.821080165864     1.007825032230
         H           -3.407072084221    -1.368002606608    -1.580306565864     1.007825032230
         H           -3.214712084221     1.070238393392     1.856297434136     1.007825032230
         H           -2.649488084221     1.760858393392     0.303539434136     1.007825032230
         H           -1.463221084221    -1.997981606608    -0.169542565864     1.007825032230
         H           -0.876660084221    -1.342513606608    -1.709810565864     1.007825032230
         H           -0.687060084221     1.103223393392     1.651463434136     1.007825032230
         H           -1.308424084221    -0.543907606608     1.843128434136     1.007825032230
         H           -4.415426084221     0.184500393392    -0.039189565864     1.007825032230
         H           -3.594353084221    -0.999878606608     0.758586434136     1.007825032230
         H            0.685548915779    -2.291717606608     0.409678434136     1.007825032230
         H            3.599388915779     1.659060393392    -0.288406565864     1.007825032230
         H            0.172251915779     2.217581393392    -1.290633565864     1.007825032230
         H            0.541392915779     2.782577393392     0.342680434136     1.007825032230
         H            1.735371915779     2.981699393392    -0.937633565864     1.007825032230
         H            3.140710915779    -2.533703606608     0.547031434136     1.007825032230
         H            4.603523915779    -0.546625606608     0.205681434136     1.007825032230

  Basis Set: AUG-CC-PVTZ
    Blend: AUG-CC-PVTZ
  Basis Set: (AUG-CC-PVTZ AUX)
    Blend: AUG-CC-PVTZ-JKFIT
	 Reference Energy          =    -535.3019034127619307 [Eh]
	 Singles Energy            =      -0.0000000000000000 [Eh]
	 Same-Spin Energy          =      -0.5854992791889492 [Eh]
	 Opposite-Spin Energy      =      -1.9180638685899185 [Eh]
	 Correlation Energy        =      -2.5035631477788676 [Eh]
	 Total Energy              =    -537.8054665605408218 [Eh]

	 ================> DF-SCS-MP2 Energies <==================
	-----------------------------------------------------------
	 SCS Same-Spin Scale       =       0.3333333333333333 [-]
	 SCS Opposite-Spin Scale   =       1.2000000000000000 [-]
	 SCS Same-Spin Energy      =      -0.1951664263963164 [Eh]
	 SCS Opposite-Spin Energy  =      -2.3016766423079020 [Eh]
	 SCS Correlation Energy    =      -2.4968430687042185 [Eh]
	 SCS Total Energy          =    -537.7987464814661962 [Eh]
	-----------------------------------------------------------

  Dipole Moment: [D]
     X:   -12.0949      Y:    -0.6841      Z:     0.7310     Total:    12.1363

*** Psi4 exiting successfully. Buy a developer a beer!
