                               Psi4 1.4a3.dev225

  ==> Input File <==

--------------------------------------------------------------------------
#psi4
#
memory 32 gb

molecule  {
1 1
  N       -3.4197460    -0.1817000     0.1602720
  N       -0.6214370    -0.0078370    -0.1287630
  C       -2.7377630    -0.6049400    -1.1216890
  C       -2.6265040     0.8533270     0.9259500
  C       -1.3397990    -1.0900720    -0.7822260
  C       -1.2267490     0.3141230     1.1574790
  C        0.8091060    -0.1845140    -0.0397240
  C        1.6179690     0.9496740    -0.2359790
  C        1.3698700    -1.4337860     0.2499420
  C        3.0044760     0.7849240    -0.1342920
  C        1.0196790     2.2951990    -0.5492200
  C        2.7558540    -1.5738690     0.3292430
  C        3.5736970    -0.4590730     0.1432710
  H       -2.7003375     0.2932754    -1.7750693
  H       -3.3565410    -1.3799850    -1.5813290
  H       -3.1641810     1.0582560     1.8552750
  H       -2.5989570     1.7488760     0.3025170
  H       -1.4126900    -2.0099640    -0.1705650
  H       -0.8261290    -1.3544960    -1.7108330
  H       -0.6365290     1.0912410     1.6504410
  H       -1.2578930    -0.5558900     1.8421060
  H       -4.3648950     0.1725180    -0.0402120
  H       -3.5438220    -1.0118610     0.7575640
  H        0.7360800    -2.3037000     0.4086560
  H        3.6499200     1.6470780    -0.2894290
  H        0.2227830     2.2055990    -1.2916560
  H        0.5919240     2.7705950     0.3416580
  H        1.7859030     2.9697170    -0.9386560
  H        3.1912420    -2.5456860     0.5460090
  H        4.6540550    -0.5586080     0.2046590
units angstrom
no_reorient  #important for SAPT in psi4, default
symmetry c1  #important for SAPT in psi4, default
}

set PROPERTIES_ORIGIN ["COM"]
properties('MP2/aug-cc-pvtz', properties = ['dipole'])
--------------------------------------------------------------------------

    Molecular point group: c1
  Charge       = 1
  Multiplicity = 1
  Basis Set: AUG-CC-PVTZ
    Blend: AUG-CC-PVTZ
  Basis Set: (AUG-CC-PVTZ AUX)
    Blend: AUG-CC-PVTZ-JKFIT

    Orbital Energies [Eh]
    ---------------------

    Doubly Occupied:

       1A    -15.866754     2A    -15.703045     3A    -11.458903
       4A    -11.456766     5A    -11.417669     6A    -11.417277
       7A    -11.375178     8A    -11.344394     9A    -11.340201
      10A    -11.331819    11A    -11.329895    12A    -11.328623
      13A    -11.323584    14A     -1.497491    15A     -1.390268
      16A     -1.249918    17A     -1.221326    18A     -1.155419
      19A     -1.142500    20A     -1.087818    21A     -1.053093
      22A     -1.031854    23A     -0.995476    24A     -0.935505
      25A     -0.924302    26A     -0.903353    27A     -0.867374
      28A     -0.821901    29A     -0.810155    30A     -0.793541
      31A     -0.788517    32A     -0.754959    33A     -0.744597
      34A     -0.734344    35A     -0.713889    36A     -0.703986
      37A     -0.686834    38A     -0.675157    39A     -0.669537
      40A     -0.659931    41A     -0.655671    42A     -0.640495
      43A     -0.599953    44A     -0.591692    45A     -0.588084
      46A     -0.521671    47A     -0.433566    48A     -0.423496

  @DF-RHF Final Energy:  -535.30828917666406

   => Energetics <=

    Nuclear Repulsion Energy =            820.1956771662064511
    One-Electron Energy =               -2338.6843705324895382
    Two-Electron Energy =                 983.1804041896190256
    Total Energy =                       -535.3082891766640614
  Basis Set: (AUG-CC-PVTZ AUX)
    Blend: AUG-CC-PVTZ-RI
    Molecular point group: c1

    Geometry (in Angstrom), charge = 1, multiplicity = 1:

       Center              X                  Y                   Z               Mass
    ------------   -----------------  -----------------  -----------------  -----------------
         N           -3.470261756265    -0.169349739652     0.161026840378    14.003074004430
         N           -0.671952756265     0.004513260348    -0.128008159622    14.003074004430
         C           -2.788278756265    -0.592589739652    -1.120934159622    12.000000000000
         C           -2.677019756265     0.865677260348     0.926704840378    12.000000000000
         C           -1.390314756265    -1.077721739652    -0.781471159622    12.000000000000
         C           -1.277264756265     0.326473260348     1.158233840378    12.000000000000
         C            0.758590243735    -0.172163739652    -0.038969159622    12.000000000000
         C            1.567453243735     0.962024260348    -0.235224159622    12.000000000000
         C            1.319354243735    -1.421435739652     0.250696840378    12.000000000000
         C            2.953960243735     0.797274260348    -0.133537159622    12.000000000000
         C            0.969163243735     2.307549260348    -0.548465159622    12.000000000000
         C            2.705338243735    -1.561518739652     0.329997840378    12.000000000000
         C            3.523181243735    -0.446722739652     0.144025840378    12.000000000000
         H           -2.750853256265     0.305625660348    -1.774314459622     1.007825032230
         H           -3.407056756265    -1.367634739652    -1.580574159622     1.007825032230
         H           -3.214696756265     1.070606260348     1.856029840378     1.007825032230
         H           -2.649472756265     1.761226260348     0.303271840378     1.007825032230
         H           -1.463205756265    -1.997613739652    -0.169810159622     1.007825032230
         H           -0.876644756265    -1.342145739652    -1.710078159622     1.007825032230
         H           -0.687044756265     1.103591260348     1.651195840378     1.007825032230
         H           -1.308408756265    -0.543539739652     1.842860840378     1.007825032230
         H           -4.415410756265     0.184868260348    -0.039457159622     1.007825032230
         H           -3.594337756265    -0.999510739652     0.758318840378     1.007825032230
         H            0.685564243735    -2.291349739652     0.409410840378     1.007825032230
         H            3.599404243735     1.659428260348    -0.288674159622     1.007825032230
         H            0.172267243735     2.217949260348    -1.290901159622     1.007825032230
         H            0.541408243735     2.782945260348     0.342412840378     1.007825032230
         H            1.735387243735     2.982067260348    -0.937901159622     1.007825032230
         H            3.140726243735    -2.533335739652     0.546763840378     1.007825032230
         H            4.603539243735    -0.546257739652     0.205413840378     1.007825032230

  Basis Set: AUG-CC-PVTZ
    Blend: AUG-CC-PVTZ
  Basis Set: (AUG-CC-PVTZ AUX)
    Blend: AUG-CC-PVTZ-JKFIT
	 Reference Energy          =    -535.3082891766640614 [Eh]
	 Singles Energy            =      -0.0000000000000000 [Eh]
	 Same-Spin Energy          =      -0.5853329331807841 [Eh]
	 Opposite-Spin Energy      =      -1.9173146588452958 [Eh]
	 Correlation Energy        =      -2.5026475920260798 [Eh]
	 Total Energy              =    -537.8109367686901123 [Eh]

	 ================> DF-SCS-MP2 Energies <==================
	-----------------------------------------------------------
	 SCS Same-Spin Scale       =       0.3333333333333333 [-]
	 SCS Opposite-Spin Scale   =       1.2000000000000000 [-]
	 SCS Same-Spin Energy      =      -0.1951109777269280 [Eh]
	 SCS Opposite-Spin Energy  =      -2.3007775906143548 [Eh]
	 SCS Correlation Energy    =      -2.4958885683412828 [Eh]
	 SCS Total Energy          =    -537.8041777450052905 [Eh]
	-----------------------------------------------------------

  Dipole Moment: [D]
     X:   -12.1043      Y:    -0.6844      Z:     0.7317     Total:    12.1457

*** Psi4 exiting successfully. Buy a developer a beer!
