                               Psi4 1.4a3.dev225

  ==> Input File <==

--------------------------------------------------------------------------
#psi4
#
memory 32 gb

molecule  {
1 1
  N       -3.4197460    -0.1817000     0.1602720
  N       -0.6214370    -0.0078370    -0.1287630
  C       -2.7377630    -0.6049400    -1.1216890
  C       -2.6265040     0.8533270     0.9259500
  C       -1.3397990    -1.0900720    -0.7822260
  C       -1.2267490     0.3141230     1.1574790
  C        0.8091060    -0.1845140    -0.0397240
  C        1.6179690     0.9496740    -0.2359790
  C        1.3698700    -1.4337860     0.2499420
  C        3.0044760     0.7849240    -0.1342920
  C        1.0196790     2.2951990    -0.5492200
  C        2.7558540    -1.5738690     0.3292430
  C        3.5736970    -0.4590730     0.1432710
  H       -2.7010110     0.2771110    -1.7633110
  H       -3.3565410    -1.3799850    -1.5813290
  H       -3.1641810     1.0582560     1.8552750
  H       -2.5989570     1.7488760     0.3025170
  H       -1.3577185    -2.0643909    -0.2568451
  H       -0.8261290    -1.3544960    -1.7108330
  H       -0.6365290     1.0912410     1.6504410
  H       -1.2578930    -0.5558900     1.8421060
  H       -4.3648950     0.1725180    -0.0402120
  H       -3.5438220    -1.0118610     0.7575640
  H        0.7360800    -2.3037000     0.4086560
  H        3.6499200     1.6470780    -0.2894290
  H        0.2227830     2.2055990    -1.2916560
  H        0.5919240     2.7705950     0.3416580
  H        1.7859030     2.9697170    -0.9386560
  H        3.1912420    -2.5456860     0.5460090
  H        4.6540550    -0.5586080     0.2046590
units angstrom
no_reorient  #important for SAPT in psi4, default
symmetry c1  #important for SAPT in psi4, default
}

set PROPERTIES_ORIGIN ["COM"]
properties('MP2/aug-cc-pvtz', properties = ['dipole'])
--------------------------------------------------------------------------

    Molecular point group: c1
  Charge       = 1
  Multiplicity = 1
  Basis Set: AUG-CC-PVTZ
    Blend: AUG-CC-PVTZ
  Basis Set: (AUG-CC-PVTZ AUX)
    Blend: AUG-CC-PVTZ-JKFIT

    Orbital Energies [Eh]
    ---------------------

    Doubly Occupied:

       1A    -15.866363     2A    -15.704046     3A    -11.457587
       4A    -11.456643     5A    -11.417067     6A    -11.416197
       7A    -11.375390     8A    -11.344542     9A    -11.340398
      10A    -11.331971    11A    -11.330016    12A    -11.328734
      13A    -11.323661    14A     -1.497235    15A     -1.390088
      16A     -1.249945    17A     -1.221516    18A     -1.155515
      19A     -1.142710    20A     -1.088211    21A     -1.054117
      22A     -1.032042    23A     -0.995717    24A     -0.935773
      25A     -0.925378    26A     -0.903458    27A     -0.867376
      28A     -0.823362    29A     -0.810694    30A     -0.792361
      31A     -0.787444    32A     -0.755091    33A     -0.744631
      34A     -0.734374    35A     -0.715703    36A     -0.703592
      37A     -0.689509    38A     -0.675201    39A     -0.669736
      40A     -0.656338    41A     -0.654830    42A     -0.640251
      43A     -0.599986    44A     -0.591789    45A     -0.588207
      46A     -0.522231    47A     -0.433714    48A     -0.423615

  @DF-RHF Final Energy:  -535.30741839396603

   => Energetics <=

    Nuclear Repulsion Energy =            820.1423606707506906
    One-Electron Energy =               -2338.5708482660429581
    Two-Electron Energy =                 983.1210692013261223
    Total Energy =                       -535.3074183939660315
  Basis Set: (AUG-CC-PVTZ AUX)
    Blend: AUG-CC-PVTZ-RI
    Molecular point group: c1

    Geometry (in Angstrom), charge = 1, multiplicity = 1:

       Center              X                  Y                   Z               Mass
    ------------   -----------------  -----------------  -----------------  -----------------
         N           -3.470570682193    -0.168948113757     0.161450828669    14.003074004430
         N           -0.672261682193     0.004914886243    -0.127584171331    14.003074004430
         C           -2.788587682193    -0.592188113757    -1.120510171331    12.000000000000
         C           -2.677328682193     0.866078886243     0.927128828669    12.000000000000
         C           -1.390623682193    -1.077320113757    -0.781047171331    12.000000000000
         C           -1.277573682193     0.326874886243     1.158657828669    12.000000000000
         C            0.758281317807    -0.171762113757    -0.038545171331    12.000000000000
         C            1.567144317807     0.962425886243    -0.234800171331    12.000000000000
         C            1.319045317807    -1.421034113757     0.251120828669    12.000000000000
         C            2.953651317807     0.797675886243    -0.133113171331    12.000000000000
         C            0.968854317807     2.307950886243    -0.548041171331    12.000000000000
         C            2.705029317807    -1.561117113757     0.330421828669    12.000000000000
         C            3.522872317807    -0.446321113757     0.144449828669    12.000000000000
         H           -2.751835682193     0.289862886243    -1.762132171331     1.007825032230
         H           -3.407365682193    -1.367233113757    -1.580150171331     1.007825032230
         H           -3.215005682193     1.071007886243     1.856453828669     1.007825032230
         H           -2.649781682193     1.761627886243     0.303695828669     1.007825032230
         H           -1.408543182193    -2.051639013757    -0.255666271331     1.007825032230
         H           -0.876953682193    -1.341744113757    -1.709654171331     1.007825032230
         H           -0.687353682193     1.103992886243     1.651619828669     1.007825032230
         H           -1.308717682193    -0.543138113757     1.843284828669     1.007825032230
         H           -4.415719682193     0.185269886243    -0.039033171331     1.007825032230
         H           -3.594646682193    -0.999109113757     0.758742828669     1.007825032230
         H            0.685255317807    -2.290948113757     0.409834828669     1.007825032230
         H            3.599095317807     1.659829886243    -0.288250171331     1.007825032230
         H            0.171958317807     2.218350886243    -1.290477171331     1.007825032230
         H            0.541099317807     2.783346886243     0.342836828669     1.007825032230
         H            1.735078317807     2.982468886243    -0.937477171331     1.007825032230
         H            3.140417317807    -2.532934113757     0.547187828669     1.007825032230
         H            4.603230317807    -0.545856113757     0.205837828669     1.007825032230

  Basis Set: AUG-CC-PVTZ
    Blend: AUG-CC-PVTZ
  Basis Set: (AUG-CC-PVTZ AUX)
    Blend: AUG-CC-PVTZ-JKFIT
	 Reference Energy          =    -535.3074183939660315 [Eh]
	 Singles Energy            =      -0.0000000000000000 [Eh]
	 Same-Spin Energy          =      -0.5853154867292870 [Eh]
	 Opposite-Spin Energy      =      -1.9171546716852332 [Eh]
	 Correlation Energy        =      -2.5024701584145204 [Eh]
	 Total Energy              =    -537.8098885523805848 [Eh]

	 ================> DF-SCS-MP2 Energies <==================
	-----------------------------------------------------------
	 SCS Same-Spin Scale       =       0.3333333333333333 [-]
	 SCS Opposite-Spin Scale   =       1.2000000000000000 [-]
	 SCS Same-Spin Energy      =      -0.1951051622430957 [Eh]
	 SCS Opposite-Spin Energy  =      -2.3005856060222798 [Eh]
	 SCS Correlation Energy    =      -2.4956907682653755 [Eh]
	 SCS Total Energy          =    -537.8031091622314079 [Eh]
	-----------------------------------------------------------

  Dipole Moment: [D]
     X:   -12.0871      Y:    -0.7115      Z:     0.7311     Total:    12.1300

*** Psi4 exiting successfully. Buy a developer a beer!
