                               Psi4 1.4a3.dev225

  ==> Input File <==

--------------------------------------------------------------------------
#psi4
#
memory 32 gb

molecule  {
1 1
  N       -3.4197460    -0.1817000     0.1602720
  N       -0.6214370    -0.0078370    -0.1287630
  C       -2.7377630    -0.6049400    -1.1216890
  C       -2.6265040     0.8533270     0.9259500
  C       -1.3397990    -1.0900720    -0.7822260
  C       -1.2267490     0.3141230     1.1574790
  C        0.8091060    -0.1845140    -0.0397240
  C        1.6179690     0.9496740    -0.2359790
  C        1.3698700    -1.4337860     0.2499420
  C        3.0044760     0.7849240    -0.1342920
  C        1.0196790     2.2951990    -0.5492200
  C        2.7558540    -1.5738690     0.3292430
  C        3.5736970    -0.4590730     0.1432710
  H       -2.7010110     0.2771110    -1.7633110
  H       -3.3565410    -1.3799850    -1.5813290
  H       -3.1641810     1.0582560     1.8552750
  H       -2.5989570     1.7488760     0.3025170
  H       -1.4126900    -2.0099640    -0.1705650
  H       -0.8261290    -1.3544960    -1.7108330
  H       -0.6365290     1.0912410     1.6504410
  H       -1.2607050    -0.6344449     1.9039221
  H       -4.3648950     0.1725180    -0.0402120
  H       -3.5438220    -1.0118610     0.7575640
  H        0.7360800    -2.3037000     0.4086560
  H        3.6499200     1.6470780    -0.2894290
  H        0.2227830     2.2055990    -1.2916560
  H        0.5919240     2.7705950     0.3416580
  H        1.7859030     2.9697170    -0.9386560
  H        3.1912420    -2.5456860     0.5460090
  H        4.6540550    -0.5586080     0.2046590
units angstrom
no_reorient  #important for SAPT in psi4, default
symmetry c1  #important for SAPT in psi4, default
}

set PROPERTIES_ORIGIN ["COM"]
properties('MP2/aug-cc-pvtz', properties = ['dipole'])
--------------------------------------------------------------------------

    Molecular point group: c1
  Charge       = 1
  Multiplicity = 1
  Basis Set: AUG-CC-PVTZ
    Blend: AUG-CC-PVTZ
  Basis Set: (AUG-CC-PVTZ AUX)
    Blend: AUG-CC-PVTZ-JKFIT

    Orbital Energies [Eh]
    ---------------------

    Doubly Occupied:

       1A    -15.866597     2A    -15.705410     3A    -11.457825
       4A    -11.457037     5A    -11.428328     6A    -11.417858
       7A    -11.375586     8A    -11.344868     9A    -11.340535
      10A    -11.332026    11A    -11.330166    12A    -11.328925
      13A    -11.324093    14A     -1.497516    15A     -1.390775
      16A     -1.250141    17A     -1.220948    18A     -1.155569
      19A     -1.142934    20A     -1.088525    21A     -1.051425
      22A     -1.032343    23A     -0.992952    24A     -0.934834
      25A     -0.923867    26A     -0.903730    27A     -0.866131
      28A     -0.821107    29A     -0.808308    30A     -0.792963
      31A     -0.787815    32A     -0.755424    33A     -0.745012
      34A     -0.735160    35A     -0.714679    36A     -0.702950
      37A     -0.680223    38A     -0.675566    39A     -0.669787
      40A     -0.659317    41A     -0.655100    42A     -0.640960
      43A     -0.599614    44A     -0.592114    45A     -0.588381
      46A     -0.521099    47A     -0.433897    48A     -0.423923

  @DF-RHF Final Energy:  -535.30235480850206

   => Energetics <=

    Nuclear Repulsion Energy =            819.7831867100959471
    One-Electron Energy =               -2337.8423956778642605
    Two-Electron Energy =                 982.7568541592663678
    Total Energy =                       -535.3023548085020593
  Basis Set: (AUG-CC-PVTZ AUX)
    Blend: AUG-CC-PVTZ-RI
    Molecular point group: c1

    Geometry (in Angstrom), charge = 1, multiplicity = 1:

       Center              X                  Y                   Z               Mass
    ------------   -----------------  -----------------  -----------------  -----------------
         N           -3.470241925676    -0.168810838631     0.160608242275    14.003074004430
         N           -0.671932925676     0.005052161369    -0.128426757725    14.003074004430
         C           -2.788258925676    -0.592050838631    -1.121352757725    12.000000000000
         C           -2.676999925676     0.866216161369     0.926286242275    12.000000000000
         C           -1.390294925676    -1.077182838631    -0.781889757725    12.000000000000
         C           -1.277244925676     0.327012161369     1.157815242275    12.000000000000
         C            0.758610074324    -0.171624838631    -0.039387757725    12.000000000000
         C            1.567473074324     0.962563161369    -0.235642757725    12.000000000000
         C            1.319374074324    -1.420896838631     0.250278242275    12.000000000000
         C            2.953980074324     0.797813161369    -0.133955757725    12.000000000000
         C            0.969183074324     2.308088161369    -0.548883757725    12.000000000000
         C            2.705358074324    -1.560979838631     0.329579242275    12.000000000000
         C            3.523201074324    -0.446183838631     0.143607242275    12.000000000000
         H           -2.751506925676     0.290000161369    -1.762974757725     1.007825032230
         H           -3.407036925676    -1.367095838631    -1.580992757725     1.007825032230
         H           -3.214676925676     1.071145161369     1.855611242275     1.007825032230
         H           -2.649452925676     1.761765161369     0.302853242275     1.007825032230
         H           -1.463185925676    -1.997074838631    -0.170228757725     1.007825032230
         H           -0.876624925676    -1.341606838631    -1.710496757725     1.007825032230
         H           -0.687024925676     1.104130161369     1.650777242275     1.007825032230
         H           -1.311200925676    -0.621555738631     1.904258342275     1.007825032230
         H           -4.415390925676     0.185407161369    -0.039875757725     1.007825032230
         H           -3.594317925676    -0.998971838631     0.757900242275     1.007825032230
         H            0.685584074324    -2.290810838631     0.408992242275     1.007825032230
         H            3.599424074324     1.659967161369    -0.289092757725     1.007825032230
         H            0.172287074324     2.218488161369    -1.291319757725     1.007825032230
         H            0.541428074324     2.783484161369     0.341994242275     1.007825032230
         H            1.735407074324     2.982606161369    -0.938319757725     1.007825032230
         H            3.140746074324    -2.532796838631     0.546345242275     1.007825032230
         H            4.603559074324    -0.545718838631     0.204995242275     1.007825032230

  Basis Set: AUG-CC-PVTZ
    Blend: AUG-CC-PVTZ
  Basis Set: (AUG-CC-PVTZ AUX)
    Blend: AUG-CC-PVTZ-JKFIT
	 Reference Energy          =    -535.3023548085020593 [Eh]
	 Singles Energy            =      -0.0000000000000000 [Eh]
	 Same-Spin Energy          =      -0.5855822175535117 [Eh]
	 Opposite-Spin Energy      =      -1.9181396412579357 [Eh]
	 Correlation Energy        =      -2.5037218588114474 [Eh]
	 Total Energy              =    -537.8060766673135049 [Eh]

	 ================> DF-SCS-MP2 Energies <==================
	-----------------------------------------------------------
	 SCS Same-Spin Scale       =       0.3333333333333333 [-]
	 SCS Opposite-Spin Scale   =       1.2000000000000000 [-]
	 SCS Same-Spin Energy      =      -0.1951940725178372 [Eh]
	 SCS Opposite-Spin Energy  =      -2.3017675695095225 [Eh]
	 SCS Correlation Energy    =      -2.4969616420273599 [Eh]
	 SCS Total Energy          =    -537.7993164505294317 [Eh]
	-----------------------------------------------------------

  Dipole Moment: [D]
     X:   -12.0625      Y:    -0.6422      Z:     0.6556     Total:    12.0974

*** Psi4 exiting successfully. Buy a developer a beer!
