                               Psi4 1.4a3.dev225

  ==> Input File <==

--------------------------------------------------------------------------
#psi4
#
memory 32 gb

molecule  {
1 1
  N       -3.4197460    -0.1817000     0.1602720
  N       -0.6214370    -0.0078370    -0.1287630
  C       -2.7377630    -0.6049400    -1.1216890
  C       -2.6265040     0.8533270     0.9259500
  C       -1.3397990    -1.0900720    -0.7822260
  C       -1.2267490     0.3141230     1.1574790
  C        0.8091060    -0.1845140    -0.0397240
  C        1.6179690     0.9496740    -0.2359790
  C        1.3698700    -1.4337860     0.2499420
  C        3.0044760     0.7849240    -0.1342920
  C        1.0196790     2.2951990    -0.5492200
  C        2.7558540    -1.5738690     0.3292430
  C        3.5736970    -0.4590730     0.1432710
  H       -2.7010110     0.2771110    -1.7633110
  H       -3.3565410    -1.3799850    -1.5813290
  H       -3.1641810     1.0582560     1.8552750
  H       -2.5989570     1.7488760     0.3025170
  H       -1.4126900    -2.0099640    -0.1705650
  H       -0.8261290    -1.3544960    -1.7108330
  H       -0.6365290     1.0912410     1.6504410
  H       -1.2578930    -0.5558900     1.8421060
  H       -4.3648950     0.1725180    -0.0402120
  H       -3.5438220    -1.0118610     0.7575640
  H        0.7360800    -2.3037000     0.4086560
  H        3.6499200     1.6470780    -0.2894290
  H        0.2227830     2.2055990    -1.2916560
  H        0.6645859     2.8574362     0.3228107
  H        1.7859030     2.9697170    -0.9386560
  H        3.1912420    -2.5456860     0.5460090
  H        4.6540550    -0.5586080     0.2046590
units angstrom
no_reorient  #important for SAPT in psi4, default
symmetry c1  #important for SAPT in psi4, default
}

set PROPERTIES_ORIGIN ["COM"]
properties('MP2/aug-cc-pvtz', properties = ['dipole'])
--------------------------------------------------------------------------

    Molecular point group: c1
  Charge       = 1
  Multiplicity = 1
  Basis Set: AUG-CC-PVTZ
    Blend: AUG-CC-PVTZ
  Basis Set: (AUG-CC-PVTZ AUX)
    Blend: AUG-CC-PVTZ-JKFIT

    Orbital Energies [Eh]
    ---------------------

    Doubly Occupied:

       1A    -15.866412     2A    -15.702896     3A    -11.456673
       4A    -11.456446     5A    -11.417415     6A    -11.416839
       7A    -11.375474     8A    -11.344837     9A    -11.340199
      10A    -11.332151    11A    -11.330162    12A    -11.328769
      13A    -11.322881    14A     -1.497319    15A     -1.390078
      16A     -1.249976    17A     -1.221597    18A     -1.155446
      19A     -1.142423    20A     -1.088052    21A     -1.053239
      22A     -1.032154    23A     -0.995905    24A     -0.935436
      25A     -0.924126    26A     -0.903995    27A     -0.867332
      28A     -0.823477    29A     -0.810116    30A     -0.793400
      31A     -0.788242    32A     -0.755732    33A     -0.744460
      34A     -0.734395    35A     -0.714584    36A     -0.704375
      37A     -0.687763    38A     -0.675770    39A     -0.669602
      40A     -0.659377    41A     -0.655553    42A     -0.636617
      43A     -0.601068    44A     -0.591583    45A     -0.587016
      46A     -0.521504    47A     -0.433601    48A     -0.423872

  @DF-RHF Final Energy:  -535.30764255518932

   => Energetics <=

    Nuclear Repulsion Energy =            820.0530673678309768
    One-Electron Energy =               -2338.4007403742102724
    Two-Electron Energy =                 983.0400304511900913
    Total Energy =                       -535.3076425551893180
  Basis Set: (AUG-CC-PVTZ AUX)
    Blend: AUG-CC-PVTZ-RI
    Molecular point group: c1

    Geometry (in Angstrom), charge = 1, multiplicity = 1:

       Center              X                  Y                   Z               Mass
    ------------   -----------------  -----------------  -----------------  -----------------
         N           -3.470671330895    -0.169751851996     0.161067172912    14.003074004430
         N           -0.672362330895     0.004111148004    -0.127967827088    14.003074004430
         C           -2.788688330895    -0.592991851996    -1.120893827088    12.000000000000
         C           -2.677429330895     0.865275148004     0.926745172912    12.000000000000
         C           -1.390724330895    -1.078123851996    -0.781430827088    12.000000000000
         C           -1.277674330895     0.326071148004     1.158274172912    12.000000000000
         C            0.758180669105    -0.172565851996    -0.038928827088    12.000000000000
         C            1.567043669105     0.961622148004    -0.235183827088    12.000000000000
         C            1.318944669105    -1.421837851996     0.250737172912    12.000000000000
         C            2.953550669105     0.796872148004    -0.133496827088    12.000000000000
         C            0.968753669105     2.307147148004    -0.548424827088    12.000000000000
         C            2.704928669105    -1.561920851996     0.330038172912    12.000000000000
         C            3.522771669105    -0.447124851996     0.144066172912    12.000000000000
         H           -2.751936330895     0.289059148004    -1.762515827088     1.007825032230
         H           -3.407466330895    -1.368036851996    -1.580533827088     1.007825032230
         H           -3.215106330895     1.070204148004     1.856070172912     1.007825032230
         H           -2.649882330895     1.760824148004     0.303312172912     1.007825032230
         H           -1.463615330895    -1.998015851996    -0.169769827088     1.007825032230
         H           -0.877054330895    -1.342547851996    -1.710037827088     1.007825032230
         H           -0.687454330895     1.103189148004     1.651236172912     1.007825032230
         H           -1.308818330895    -0.543941851996     1.842901172912     1.007825032230
         H           -4.415820330895     0.184466148004    -0.039416827088     1.007825032230
         H           -3.594747330895    -0.999912851996     0.758359172912     1.007825032230
         H            0.685154669105    -2.291751851996     0.409451172912     1.007825032230
         H            3.598994669105     1.659026148004    -0.288633827088     1.007825032230
         H            0.171857669105     2.217547148004    -1.290860827088     1.007825032230
         H            0.613660569105     2.869384348004     0.323605872912     1.007825032230
         H            1.734977669105     2.981665148004    -0.937860827088     1.007825032230
         H            3.140316669105    -2.533737851996     0.546804172912     1.007825032230
         H            4.603129669105    -0.546659851996     0.205454172912     1.007825032230

  Basis Set: AUG-CC-PVTZ
    Blend: AUG-CC-PVTZ
  Basis Set: (AUG-CC-PVTZ AUX)
    Blend: AUG-CC-PVTZ-JKFIT
	 Reference Energy          =    -535.3076425551893180 [Eh]
	 Singles Energy            =      -0.0000000000000000 [Eh]
	 Same-Spin Energy          =      -0.5853163173854948 [Eh]
	 Opposite-Spin Energy      =      -1.9171191767569455 [Eh]
	 Correlation Energy        =      -2.5024354941424405 [Eh]
	 Total Energy              =    -537.8100780493317643 [Eh]

	 ================> DF-SCS-MP2 Energies <==================
	-----------------------------------------------------------
	 SCS Same-Spin Scale       =       0.3333333333333333 [-]
	 SCS Opposite-Spin Scale   =       1.2000000000000000 [-]
	 SCS Same-Spin Energy      =      -0.1951054391284983 [Eh]
	 SCS Opposite-Spin Energy  =      -2.3005430121083346 [Eh]
	 SCS Correlation Energy    =      -2.4956484512368329 [Eh]
	 SCS Total Energy          =    -537.8032910064262069 [Eh]
	-----------------------------------------------------------

  Dipole Moment: [D]
     X:   -12.0708      Y:    -0.6589      Z:     0.7481     Total:    12.1119

*** Psi4 exiting successfully. Buy a developer a beer!
