                               Psi4 1.4a3.dev225

  ==> Input File <==

--------------------------------------------------------------------------
#psi4
#
memory 32 gb

molecule  {
1 1
  N       -3.4197460    -0.1817000     0.1602720
  N       -0.6214370    -0.0078370    -0.1287630
  C       -2.7377630    -0.6049400    -1.1216890
  C       -2.6265040     0.8533270     0.9259500
  C       -1.3397990    -1.0900720    -0.7822260
  C       -1.2267490     0.3141230     1.1574790
  C        0.8091060    -0.1845140    -0.0397240
  C        1.6179690     0.9496740    -0.2359790
  C        1.3698700    -1.4337860     0.2499420
  C        3.0044760     0.7849240    -0.1342920
  C        1.0196790     2.2951990    -0.5492200
  C        2.7558540    -1.5738690     0.3292430
  C        3.5736970    -0.4590730     0.1432710
  H       -2.7010110     0.2771110    -1.7633110
  H       -3.3565410    -1.3799850    -1.5813290
  H       -3.1641810     1.0582560     1.8552750
  H       -2.5989570     1.7488760     0.3025170
  H       -1.4126900    -2.0099640    -0.1705650
  H       -0.8261290    -1.3544960    -1.7108330
  H       -0.6365290     1.0912410     1.6504410
  H       -1.2578930    -0.5558900     1.8421060
  H       -4.3648950     0.1725180    -0.0402120
  H       -3.5438220    -1.0118610     0.7575640
  H        0.7477311    -2.2877082     0.4057383
  H        3.6499200     1.6470780    -0.2894290
  H        0.2227830     2.2055990    -1.2916560
  H        0.5919240     2.7705950     0.3416580
  H        1.7859030     2.9697170    -0.9386560
  H        3.1912420    -2.5456860     0.5460090
  H        4.6540550    -0.5586080     0.2046590
units angstrom
no_reorient  #important for SAPT in psi4, default
symmetry c1  #important for SAPT in psi4, default
}

set PROPERTIES_ORIGIN ["COM"]
properties('MP2/aug-cc-pvtz', properties = ['dipole'])
--------------------------------------------------------------------------

    Molecular point group: c1
  Charge       = 1
  Multiplicity = 1
  Basis Set: AUG-CC-PVTZ
    Blend: AUG-CC-PVTZ
  Basis Set: (AUG-CC-PVTZ AUX)
    Blend: AUG-CC-PVTZ-JKFIT

    Orbital Energies [Eh]
    ---------------------

    Doubly Occupied:

       1A    -15.866685     2A    -15.703079     3A    -11.456883
       4A    -11.456816     5A    -11.417646     6A    -11.417316
       7A    -11.374981     8A    -11.344248     9A    -11.337839
      10A    -11.331612    11A    -11.329790    12A    -11.328490
      13A    -11.323508    14A     -1.497592    15A     -1.390306
      16A     -1.249918    17A     -1.221923    18A     -1.155581
      19A     -1.142976    20A     -1.088477    21A     -1.053560
      22A     -1.031954    23A     -0.996226    24A     -0.936015
      25A     -0.924692    26A     -0.903700    27A     -0.867562
      28A     -0.823792    29A     -0.810268    30A     -0.793944
      31A     -0.788539    32A     -0.756550    33A     -0.744757
      34A     -0.734602    35A     -0.715236    36A     -0.705125
      37A     -0.687838    38A     -0.675142    39A     -0.669980
      40A     -0.660056    41A     -0.655771    42A     -0.640449
      43A     -0.600019    44A     -0.592087    45A     -0.588005
      46A     -0.521681    47A     -0.433466    48A     -0.423374

  @DF-RHF Final Energy:  -535.30904284589985

   => Energetics <=

    Nuclear Repulsion Energy =            820.3927004200144211
    One-Electron Energy =               -2339.0633798795133771
    Two-Electron Energy =                 983.3616366135989892
    Total Energy =                       -535.3090428458998531
  Basis Set: (AUG-CC-PVTZ AUX)
    Blend: AUG-CC-PVTZ-RI
    Molecular point group: c1

    Geometry (in Angstrom), charge = 1, multiplicity = 1:

       Center              X                  Y                   Z               Mass
    ------------   -----------------  -----------------  -----------------  -----------------
         N           -3.470324212806    -0.169348757653     0.160976542199    14.003074004430
         N           -0.672015212806     0.004514242347    -0.128058457801    14.003074004430
         C           -2.788341212806    -0.592588757653    -1.120984457801    12.000000000000
         C           -2.677082212806     0.865678242347     0.926654542199    12.000000000000
         C           -1.390377212806    -1.077720757653    -0.781521457801    12.000000000000
         C           -1.277327212806     0.326474242347     1.158183542199    12.000000000000
         C            0.758527787194    -0.172162757653    -0.039019457801    12.000000000000
         C            1.567390787194     0.962025242347    -0.235274457801    12.000000000000
         C            1.319291787194    -1.421434757653     0.250646542199    12.000000000000
         C            2.953897787194     0.797275242347    -0.133587457801    12.000000000000
         C            0.969100787194     2.307550242347    -0.548515457801    12.000000000000
         C            2.705275787194    -1.561517757653     0.329947542199    12.000000000000
         C            3.523118787194    -0.446721757653     0.143975542199    12.000000000000
         H           -2.751589212806     0.289462242347    -1.762606457801     1.007825032230
         H           -3.407119212806    -1.367633757653    -1.580624457801     1.007825032230
         H           -3.214759212806     1.070607242347     1.855979542199     1.007825032230
         H           -2.649535212806     1.761227242347     0.303221542199     1.007825032230
         H           -1.463268212806    -1.997612757653    -0.169860457801     1.007825032230
         H           -0.876707212806    -1.342144757653    -1.710128457801     1.007825032230
         H           -0.687107212806     1.103592242347     1.651145542199     1.007825032230
         H           -1.308471212806    -0.543538757653     1.842810542199     1.007825032230
         H           -4.415473212806     0.184869242347    -0.039507457801     1.007825032230
         H           -3.594400212806    -0.999509757653     0.758268542199     1.007825032230
         H            0.697152887194    -2.275356957653     0.406442842199     1.007825032230
         H            3.599341787194     1.659429242347    -0.288724457801     1.007825032230
         H            0.172204787194     2.217950242347    -1.290951457801     1.007825032230
         H            0.541345787194     2.782946242347     0.342362542199     1.007825032230
         H            1.735324787194     2.982068242347    -0.937951457801     1.007825032230
         H            3.140663787194    -2.533334757653     0.546713542199     1.007825032230
         H            4.603476787194    -0.546256757653     0.205363542199     1.007825032230

  Basis Set: AUG-CC-PVTZ
    Blend: AUG-CC-PVTZ
  Basis Set: (AUG-CC-PVTZ AUX)
    Blend: AUG-CC-PVTZ-JKFIT
	 Reference Energy          =    -535.3090428458998531 [Eh]
	 Singles Energy            =      -0.0000000000000000 [Eh]
	 Same-Spin Energy          =      -0.5852373890323077 [Eh]
	 Opposite-Spin Energy      =      -1.9169935861872478 [Eh]
	 Correlation Energy        =      -2.5022309752195557 [Eh]
	 Total Energy              =    -537.8112738211193573 [Eh]

	 ================> DF-SCS-MP2 Energies <==================
	-----------------------------------------------------------
	 SCS Same-Spin Scale       =       0.3333333333333333 [-]
	 SCS Opposite-Spin Scale   =       1.2000000000000000 [-]
	 SCS Same-Spin Energy      =      -0.1950791296774359 [Eh]
	 SCS Opposite-Spin Energy  =      -2.3003923034246974 [Eh]
	 SCS Correlation Energy    =      -2.4954714331021330 [Eh]
	 SCS Total Energy          =    -537.8045142790019781 [Eh]
	-----------------------------------------------------------

  Dipole Moment: [D]
     X:   -12.1132      Y:    -0.6896      Z:     0.7329     Total:    12.1549

*** Psi4 exiting successfully. Buy a developer a beer!
