                               Psi4 1.4a3.dev225

  ==> Input File <==

--------------------------------------------------------------------------
#psi4
#
memory 32 gb

molecule  {
1 1
  N       -3.4197460    -0.1817000     0.1602720
  N       -0.6214370    -0.0078370    -0.1287630
  C       -2.7377630    -0.6049400    -1.1216890
  C       -2.6265040     0.8533270     0.9259500
  C       -1.3397990    -1.0900720    -0.7822260
  C       -1.2267490     0.3141230     1.1574790
  C        0.7309365    -0.1272916    -0.0557672
  C        1.6179690     0.9496740    -0.2359790
  C        1.3698700    -1.4337860     0.2499420
  C        3.0044760     0.7849240    -0.1342920
  C        1.0196790     2.2951990    -0.5492200
  C        2.7558540    -1.5738690     0.3292430
  C        3.5736970    -0.4590730     0.1432710
  H       -2.7010110     0.2771110    -1.7633110
  H       -3.3565410    -1.3799850    -1.5813290
  H       -3.1641810     1.0582560     1.8552750
  H       -2.5989570     1.7488760     0.3025170
  H       -1.4126900    -2.0099640    -0.1705650
  H       -0.8261290    -1.3544960    -1.7108330
  H       -0.6365290     1.0912410     1.6504410
  H       -1.2578930    -0.5558900     1.8421060
  H       -4.3648950     0.1725180    -0.0402120
  H       -3.5438220    -1.0118610     0.7575640
  H        0.7360800    -2.3037000     0.4086560
  H        3.6499200     1.6470780    -0.2894290
  H        0.2227830     2.2055990    -1.2916560
  H        0.5919240     2.7705950     0.3416580
  H        1.7859030     2.9697170    -0.9386560
  H        3.1912420    -2.5456860     0.5460090
  H        4.6540550    -0.5586080     0.2046590
units angstrom
no_reorient  #important for SAPT in psi4, default
symmetry c1  #important for SAPT in psi4, default
}

set PROPERTIES_ORIGIN ["COM"]
properties('MP2/aug-cc-pvtz', properties = ['dipole'])
--------------------------------------------------------------------------

    Molecular point group: c1
  Charge       = 1
  Multiplicity = 1
  Basis Set: AUG-CC-PVTZ
    Blend: AUG-CC-PVTZ
  Basis Set: (AUG-CC-PVTZ AUX)
    Blend: AUG-CC-PVTZ-JKFIT

    Orbital Energies [Eh]
    ---------------------

    Doubly Occupied:

       1A    -15.868844     2A    -15.705434     3A    -11.459388
       4A    -11.458899     5A    -11.421805     6A    -11.420931
       7A    -11.376900     8A    -11.344457     9A    -11.342806
      10A    -11.330370    11A    -11.328909    12A    -11.327755
      13A    -11.320564    14A     -1.500416    15A     -1.409572
      16A     -1.241823    17A     -1.225031    18A     -1.164084
      19A     -1.139734    20A     -1.080971    21A     -1.057949
      22A     -1.029637    23A     -1.000513    24A     -0.939449
      25A     -0.927379    26A     -0.899545    27A     -0.868320
      28A     -0.826421    29A     -0.814161    30A     -0.797892
      31A     -0.794914    32A     -0.759075    33A     -0.744215
      34A     -0.737435    35A     -0.708922    36A     -0.704768
      37A     -0.690686    38A     -0.675599    39A     -0.668388
      40A     -0.663212    41A     -0.662743    42A     -0.636587
      43A     -0.600312    44A     -0.595213    45A     -0.578398
      46A     -0.517908    47A     -0.426642    48A     -0.418325

  @DF-RHF Final Energy:  -535.29597982539804

   => Energetics <=

    Nuclear Repulsion Energy =            820.7726810053625286
    One-Electron Energy =               -2339.7107217082530042
    Two-Electron Energy =                 983.6420608774924403
    Total Energy =                       -535.2959798253980352
  Basis Set: (AUG-CC-PVTZ AUX)
    Blend: AUG-CC-PVTZ-RI
    Molecular point group: c1

    Geometry (in Angstrom), charge = 1, multiplicity = 1:

       Center              X                  Y                   Z               Mass
    ------------   -----------------  -----------------  -----------------  -----------------
         N           -3.464962461076    -0.173134209793     0.162046762100    14.003074004430
         N           -0.666653461076     0.000728790207    -0.126988237900    14.003074004430
         C           -2.782979461076    -0.596374209793    -1.119914237900    12.000000000000
         C           -2.671720461076     0.861892790207     0.927724762100    12.000000000000
         C           -1.385015461076    -1.081506209793    -0.780451237900    12.000000000000
         C           -1.271965461076     0.322688790207     1.159253762100    12.000000000000
         C            0.685720038924    -0.118725809793    -0.053992437900    12.000000000000
         C            1.572752538924     0.958239790207    -0.234204237900    12.000000000000
         C            1.324653538924    -1.425220209793     0.251716762100    12.000000000000
         C            2.959259538924     0.793489790207    -0.132517237900    12.000000000000
         C            0.974462538924     2.303764790207    -0.547445237900    12.000000000000
         C            2.710637538924    -1.565303209793     0.331017762100    12.000000000000
         C            3.528480538924    -0.450507209793     0.145045762100    12.000000000000
         H           -2.746227461076     0.285676790207    -1.761536237900     1.007825032230
         H           -3.401757461076    -1.371419209793    -1.579554237900     1.007825032230
         H           -3.209397461076     1.066821790207     1.857049762100     1.007825032230
         H           -2.644173461076     1.757441790207     0.304291762100     1.007825032230
         H           -1.457906461076    -2.001398209793    -0.168790237900     1.007825032230
         H           -0.871345461076    -1.345930209793    -1.709058237900     1.007825032230
         H           -0.681745461076     1.099806790207     1.652215762100     1.007825032230
         H           -1.303109461076    -0.547324209793     1.843880762100     1.007825032230
         H           -4.410111461076     0.181083790207    -0.038437237900     1.007825032230
         H           -3.589038461076    -1.003295209793     0.759338762100     1.007825032230
         H            0.690863538924    -2.295134209793     0.410430762100     1.007825032230
         H            3.604703538924     1.655643790207    -0.287654237900     1.007825032230
         H            0.177566538924     2.214164790207    -1.289881237900     1.007825032230
         H            0.546707538924     2.779160790207     0.343432762100     1.007825032230
         H            1.740686538924     2.978282790207    -0.936881237900     1.007825032230
         H            3.146025538924    -2.537120209793     0.547783762100     1.007825032230
         H            4.608838538924    -0.550042209793     0.206433762100     1.007825032230

  Basis Set: AUG-CC-PVTZ
    Blend: AUG-CC-PVTZ
  Basis Set: (AUG-CC-PVTZ AUX)
    Blend: AUG-CC-PVTZ-JKFIT
	 Reference Energy          =    -535.2959798253980352 [Eh]
	 Singles Energy            =      -0.0000000000000000 [Eh]
	 Same-Spin Energy          =      -0.5863255957771104 [Eh]
	 Opposite-Spin Energy      =      -1.9186433961287244 [Eh]
	 Correlation Energy        =      -2.5049689919058347 [Eh]
	 Total Energy              =    -537.8009488173038335 [Eh]

	 ================> DF-SCS-MP2 Energies <==================
	-----------------------------------------------------------
	 SCS Same-Spin Scale       =       0.3333333333333333 [-]
	 SCS Opposite-Spin Scale   =       1.2000000000000000 [-]
	 SCS Same-Spin Energy      =      -0.1954418652590368 [Eh]
	 SCS Opposite-Spin Energy  =      -2.3023720753544690 [Eh]
	 SCS Correlation Energy    =      -2.4978139406135056 [Eh]
	 SCS Total Energy          =    -537.7937937660115040 [Eh]
	-----------------------------------------------------------

  Dipole Moment: [D]
     X:   -12.3913      Y:    -0.6994      Z:     0.7317     Total:    12.4325

*** Psi4 exiting successfully. Buy a developer a beer!
