                               Psi4 1.4a3.dev225

  ==> Input File <==

--------------------------------------------------------------------------
#psi4
#
memory 32 gb

molecule  {
1 1
  N       -3.4197460    -0.1817000     0.1602720
  N       -0.6214370    -0.0078370    -0.1287630
  C       -2.7377630    -0.6049400    -1.1216890
  C       -2.6265040     0.8533270     0.9259500
  C       -1.3397990    -1.0900720    -0.7822260
  C       -1.1806371     0.2963601     1.1651062
  C        0.8091060    -0.1845140    -0.0397240
  C        1.6179690     0.9496740    -0.2359790
  C        1.3698700    -1.4337860     0.2499420
  C        3.0044760     0.7849240    -0.1342920
  C        1.0196790     2.2951990    -0.5492200
  C        2.7558540    -1.5738690     0.3292430
  C        3.5736970    -0.4590730     0.1432710
  H       -2.7010110     0.2771110    -1.7633110
  H       -3.3565410    -1.3799850    -1.5813290
  H       -3.1641810     1.0582560     1.8552750
  H       -2.5989570     1.7488760     0.3025170
  H       -1.4126900    -2.0099640    -0.1705650
  H       -0.8261290    -1.3544960    -1.7108330
  H       -0.6365290     1.0912410     1.6504410
  H       -1.2578930    -0.5558900     1.8421060
  H       -4.3648950     0.1725180    -0.0402120
  H       -3.5438220    -1.0118610     0.7575640
  H        0.7360800    -2.3037000     0.4086560
  H        3.6499200     1.6470780    -0.2894290
  H        0.2227830     2.2055990    -1.2916560
  H        0.5919240     2.7705950     0.3416580
  H        1.7859030     2.9697170    -0.9386560
  H        3.1912420    -2.5456860     0.5460090
  H        4.6540550    -0.5586080     0.2046590
units angstrom
no_reorient  #important for SAPT in psi4, default
symmetry c1  #important for SAPT in psi4, default
}

set PROPERTIES_ORIGIN ["COM"]
properties('MP2/aug-cc-pvtz', properties = ['dipole'])
--------------------------------------------------------------------------

    Molecular point group: c1
  Charge       = 1
  Multiplicity = 1
  Basis Set: AUG-CC-PVTZ
    Blend: AUG-CC-PVTZ
  Basis Set: (AUG-CC-PVTZ AUX)
    Blend: AUG-CC-PVTZ-JKFIT

    Orbital Energies [Eh]
    ---------------------

    Doubly Occupied:

       1A    -15.865967     2A    -15.703643     3A    -11.456685
       4A    -11.455755     5A    -11.418622     6A    -11.417415
       7A    -11.375155     8A    -11.344565     9A    -11.340413
      10A    -11.332096    11A    -11.330124    12A    -11.328803
      13A    -11.323801    14A     -1.495811    15A     -1.394281
      16A     -1.250040    17A     -1.217406    18A     -1.153152
      19A     -1.141896    20A     -1.087448    21A     -1.056214
      22A     -1.032160    23A     -0.996263    24A     -0.935393
      25A     -0.924083    26A     -0.903442    27A     -0.867625
      28A     -0.822415    29A     -0.809809    30A     -0.796496
      31A     -0.789203    32A     -0.755293    33A     -0.743878
      34A     -0.729675    35A     -0.713673    36A     -0.706819
      37A     -0.687433    38A     -0.675587    39A     -0.670265
      40A     -0.664607    41A     -0.651839    42A     -0.640627
      43A     -0.600460    44A     -0.591044    45A     -0.588110
      46A     -0.522670    47A     -0.433979    48A     -0.423924

  @DF-RHF Final Energy:  -535.30691043705008

   => Energetics <=

    Nuclear Repulsion Energy =            820.2940329397713413
    One-Electron Energy =               -2338.8697587336846482
    Two-Electron Energy =                 983.2688153568632288
    Total Energy =                       -535.3069104370500781
  Basis Set: (AUG-CC-PVTZ AUX)
    Blend: AUG-CC-PVTZ-RI
    Molecular point group: c1

    Geometry (in Angstrom), charge = 1, multiplicity = 1:

       Center              X                  Y                   Z               Mass
    ------------   -----------------  -----------------  -----------------  -----------------
         N           -3.473381698730    -0.168054454807     0.160443250046    14.003074004430
         N           -0.675072698730     0.005808545193    -0.128591749954    14.003074004430
         C           -2.791398698730    -0.591294454807    -1.121517749954    12.000000000000
         C           -2.680139698730     0.866972545193     0.926121250046    12.000000000000
         C           -1.393434698730    -1.076426454807    -0.782054749954    12.000000000000
         C           -1.234272798730     0.310005645193     1.165277450046    12.000000000000
         C            0.755470301270    -0.170868454807    -0.039552749954    12.000000000000
         C            1.564333301270     0.963319545193    -0.235807749954    12.000000000000
         C            1.316234301270    -1.420140454807     0.250113250046    12.000000000000
         C            2.950840301270     0.798569545193    -0.134120749954    12.000000000000
         C            0.966043301270     2.308844545193    -0.549048749954    12.000000000000
         C            2.702218301270    -1.560223454807     0.329414250046    12.000000000000
         C            3.520061301270    -0.445427454807     0.143442250046    12.000000000000
         H           -2.754646698730     0.290756545193    -1.763139749954     1.007825032230
         H           -3.410176698730    -1.366339454807    -1.581157749954     1.007825032230
         H           -3.217816698730     1.071901545193     1.855446250046     1.007825032230
         H           -2.652592698730     1.762521545193     0.302688250046     1.007825032230
         H           -1.466325698730    -1.996318454807    -0.170393749954     1.007825032230
         H           -0.879764698730    -1.340850454807    -1.710661749954     1.007825032230
         H           -0.690164698730     1.104886545193     1.650612250046     1.007825032230
         H           -1.311528698730    -0.542244454807     1.842277250046     1.007825032230
         H           -4.418530698730     0.186163545193    -0.040040749954     1.007825032230
         H           -3.597457698730    -0.998215454807     0.757735250046     1.007825032230
         H            0.682444301270    -2.290054454807     0.408827250046     1.007825032230
         H            3.596284301270     1.660723545193    -0.289257749954     1.007825032230
         H            0.169147301270     2.219244545193    -1.291484749954     1.007825032230
         H            0.538288301270     2.784240545193     0.341829250046     1.007825032230
         H            1.732267301270     2.983362545193    -0.938484749954     1.007825032230
         H            3.137606301270    -2.532040454807     0.546180250046     1.007825032230
         H            4.600419301270    -0.544962454807     0.204830250046     1.007825032230

  Basis Set: AUG-CC-PVTZ
    Blend: AUG-CC-PVTZ
  Basis Set: (AUG-CC-PVTZ AUX)
    Blend: AUG-CC-PVTZ-JKFIT
	 Reference Energy          =    -535.3069104370500781 [Eh]
	 Singles Energy            =      -0.0000000000000000 [Eh]
	 Same-Spin Energy          =      -0.5851064359558449 [Eh]
	 Opposite-Spin Energy      =      -1.9171272331989304 [Eh]
	 Correlation Energy        =      -2.5022336691547755 [Eh]
	 Total Energy              =    -537.8091441062048261 [Eh]

	 ================> DF-SCS-MP2 Energies <==================
	-----------------------------------------------------------
	 SCS Same-Spin Scale       =       0.3333333333333333 [-]
	 SCS Opposite-Spin Scale   =       1.2000000000000000 [-]
	 SCS Same-Spin Energy      =      -0.1950354786519483 [Eh]
	 SCS Opposite-Spin Energy  =      -2.3005526798387166 [Eh]
	 SCS Correlation Energy    =      -2.4955881584906647 [Eh]
	 SCS Total Energy          =    -537.8024985955407828 [Eh]
	-----------------------------------------------------------

  Dipole Moment: [D]
     X:   -12.0692      Y:    -0.7253      Z:     0.7077     Total:    12.1117

*** Psi4 exiting successfully. Buy a developer a beer!
