                               Psi4 1.4a3.dev225

  ==> Input File <==

--------------------------------------------------------------------------
#psi4
#
memory 32 gb

molecule  {
1 1
  N       -3.4197460    -0.1817000     0.1602720
  N       -0.6214370    -0.0078370    -0.1287630
  C       -2.7377630    -0.6049400    -1.1216890
  C       -2.6265040     0.8533270     0.9259500
  C       -1.3397990    -1.0900720    -0.7822260
  C       -1.2267490     0.3141230     1.1574790
  C        0.8091060    -0.1845140    -0.0397240
  C        1.6179690     0.9496740    -0.2359790
  C        1.3698700    -1.4337860     0.2499420
  C        3.0044760     0.7849240    -0.1342920
  C        1.0196790     2.2951990    -0.5492200
  C        2.7558540    -1.5738690     0.3292430
  C        3.5736970    -0.4590730     0.1432710
  H       -2.7010110     0.2771110    -1.7633110
  H       -3.3565410    -1.3799850    -1.5813290
  H       -3.1641810     1.0582560     1.8552750
  H       -2.5989570     1.7488760     0.3025170
  H       -1.4126900    -2.0099640    -0.1705650
  H       -0.8261290    -1.3544960    -1.7108330
  H       -0.6365290     1.0912410     1.6504410
  H       -1.2578930    -0.5558900     1.8421060
  H       -4.3648950     0.1725180    -0.0402120
  H       -3.5438220    -1.0118610     0.7575640
  H        0.7360800    -2.3037000     0.4086560
  H        3.6499200     1.6470780    -0.2894290
  H        0.2592431     2.2096984    -1.2576876
  H        0.5919240     2.7705950     0.3416580
  H        1.7859030     2.9697170    -0.9386560
  H        3.1912420    -2.5456860     0.5460090
  H        4.6540550    -0.5586080     0.2046590
units angstrom
no_reorient  #important for SAPT in psi4, default
symmetry c1  #important for SAPT in psi4, default
}

set PROPERTIES_ORIGIN ["COM"]
properties('MP2/aug-cc-pvtz', properties = ['dipole'])
--------------------------------------------------------------------------

    Molecular point group: c1
  Charge       = 1
  Multiplicity = 1
  Basis Set: AUG-CC-PVTZ
    Blend: AUG-CC-PVTZ
  Basis Set: (AUG-CC-PVTZ AUX)
    Blend: AUG-CC-PVTZ-JKFIT

    Orbital Energies [Eh]
    ---------------------

    Doubly Occupied:

       1A    -15.866706     2A    -15.703214     3A    -11.456881
       4A    -11.456867     5A    -11.417614     6A    -11.417311
       7A    -11.375035     8A    -11.343996     9A    -11.340074
      10A    -11.331638    11A    -11.329613    12A    -11.328387
      13A    -11.317528    14A     -1.497615    15A     -1.390342
      16A     -1.249858    17A     -1.221939    18A     -1.155888
      19A     -1.143418    20A     -1.088261    21A     -1.053570
      22A     -1.035254    23A     -0.996305    24A     -0.935470
      25A     -0.924262    26A     -0.904125    27A     -0.867612
      28A     -0.823819    29A     -0.810498    30A     -0.793576
      31A     -0.788574    32A     -0.754971    33A     -0.745344
      34A     -0.734896    35A     -0.714523    36A     -0.705316
      37A     -0.687821    38A     -0.678211    39A     -0.670240
      40A     -0.660014    41A     -0.656689    42A     -0.642605
      43A     -0.599664    44A     -0.592364    45A     -0.588362
      46A     -0.521983    47A     -0.433444    48A     -0.423423

  @DF-RHF Final Energy:  -535.30797930630251

   => Energetics <=

    Nuclear Repulsion Energy =            820.4903333074348666
    One-Electron Energy =               -2339.2463849625937655
    Two-Electron Energy =                 983.4480723488563854
    Total Energy =                       -535.3079793063025136
  Basis Set: (AUG-CC-PVTZ AUX)
    Blend: AUG-CC-PVTZ-RI
    Molecular point group: c1

    Geometry (in Angstrom), charge = 1, multiplicity = 1:

       Center              X                  Y                   Z               Mass
    ------------   -----------------  -----------------  -----------------  -----------------
         N           -3.470465362449    -0.169281096400     0.160766680460    14.003074004430
         N           -0.672156362449     0.004581903600    -0.128268319540    14.003074004430
         C           -2.788482362449    -0.592521096400    -1.121194319540    12.000000000000
         C           -2.677223362449     0.865745903600     0.926444680460    12.000000000000
         C           -1.390518362449    -1.077653096400    -0.781731319540    12.000000000000
         C           -1.277468362449     0.326541903600     1.157973680460    12.000000000000
         C            0.758386637551    -0.172095096400    -0.039229319540    12.000000000000
         C            1.567249637551     0.962092903600    -0.235484319540    12.000000000000
         C            1.319150637551    -1.421367096400     0.250436680460    12.000000000000
         C            2.953756637551     0.797342903600    -0.133797319540    12.000000000000
         C            0.968959637551     2.307617903600    -0.548725319540    12.000000000000
         C            2.705134637551    -1.561450096400     0.329737680460    12.000000000000
         C            3.522977637551    -0.446654096400     0.143765680460    12.000000000000
         H           -2.751730362449     0.289529903600    -1.762816319540     1.007825032230
         H           -3.407260362449    -1.367566096400    -1.580834319540     1.007825032230
         H           -3.214900362449     1.070674903600     1.855769680460     1.007825032230
         H           -2.649676362449     1.761294903600     0.303011680460     1.007825032230
         H           -1.463409362449    -1.997545096400    -0.170070319540     1.007825032230
         H           -0.876848362449    -1.342077096400    -1.710338319540     1.007825032230
         H           -0.687248362449     1.103659903600     1.650935680460     1.007825032230
         H           -1.308612362449    -0.543471096400     1.842600680460     1.007825032230
         H           -4.415614362449     0.184936903600    -0.039717319540     1.007825032230
         H           -3.594541362449    -0.999442096400     0.758058680460     1.007825032230
         H            0.685360637551    -2.291281096400     0.409150680460     1.007825032230
         H            3.599200637551     1.659496903600    -0.288934319540     1.007825032230
         H            0.208523737551     2.222117303600    -1.257192919540     1.007825032230
         H            0.541204637551     2.783013903600     0.342152680460     1.007825032230
         H            1.735183637551     2.982135903600    -0.938161319540     1.007825032230
         H            3.140522637551    -2.533267096400     0.546503680460     1.007825032230
         H            4.603335637551    -0.546189096400     0.205153680460     1.007825032230

  Basis Set: AUG-CC-PVTZ
    Blend: AUG-CC-PVTZ
  Basis Set: (AUG-CC-PVTZ AUX)
    Blend: AUG-CC-PVTZ-JKFIT
	 Reference Energy          =    -535.3079793063025136 [Eh]
	 Singles Energy            =      -0.0000000000000000 [Eh]
	 Same-Spin Energy          =      -0.5852433485857723 [Eh]
	 Opposite-Spin Energy      =      -1.9168309950817997 [Eh]
	 Correlation Energy        =      -2.5020743436675721 [Eh]
	 Total Energy              =    -537.8100536499700866 [Eh]

	 ================> DF-SCS-MP2 Energies <==================
	-----------------------------------------------------------
	 SCS Same-Spin Scale       =       0.3333333333333333 [-]
	 SCS Opposite-Spin Scale   =       1.2000000000000000 [-]
	 SCS Same-Spin Energy      =      -0.1950811161952574 [Eh]
	 SCS Opposite-Spin Energy  =      -2.3001971940981596 [Eh]
	 SCS Correlation Energy    =      -2.4952783102934171 [Eh]
	 SCS Total Energy          =    -537.8032576165959426 [Eh]
	-----------------------------------------------------------

  Dipole Moment: [D]
     X:   -12.1240      Y:    -0.6758      Z:     0.7190     Total:    12.1641

*** Psi4 exiting successfully. Buy a developer a beer!
