                               Psi4 1.4a3.dev225

  ==> Input File <==

--------------------------------------------------------------------------
#psi4
#
memory 32 gb

molecule  {
1 1
  N       -3.4197460    -0.1817000     0.1602720
  N       -0.6214370    -0.0078370    -0.1287630
  C       -2.7377630    -0.6049400    -1.1216890
  C       -2.6265040     0.8533270     0.9259500
  C       -1.3397990    -1.0900720    -0.7822260
  C       -1.2267490     0.3141230     1.1574790
  C        0.7210790    -0.2264681    -0.0337776
  C        1.6179690     0.9496740    -0.2359790
  C        1.3698700    -1.4337860     0.2499420
  C        3.0044760     0.7849240    -0.1342920
  C        1.0196790     2.2951990    -0.5492200
  C        2.7558540    -1.5738690     0.3292430
  C        3.5736970    -0.4590730     0.1432710
  H       -2.7010110     0.2771110    -1.7633110
  H       -3.3565410    -1.3799850    -1.5813290
  H       -3.1641810     1.0582560     1.8552750
  H       -2.5989570     1.7488760     0.3025170
  H       -1.4126900    -2.0099640    -0.1705650
  H       -0.8261290    -1.3544960    -1.7108330
  H       -0.6365290     1.0912410     1.6504410
  H       -1.2578930    -0.5558900     1.8421060
  H       -4.3648950     0.1725180    -0.0402120
  H       -3.5438220    -1.0118610     0.7575640
  H        0.7360800    -2.3037000     0.4086560
  H        3.6499200     1.6470780    -0.2894290
  H        0.2227830     2.2055990    -1.2916560
  H        0.5919240     2.7705950     0.3416580
  H        1.7859030     2.9697170    -0.9386560
  H        3.1912420    -2.5456860     0.5460090
  H        4.6540550    -0.5586080     0.2046590
units angstrom
no_reorient  #important for SAPT in psi4, default
symmetry c1  #important for SAPT in psi4, default
}

set PROPERTIES_ORIGIN ["COM"]
properties('MP2/aug-cc-pvtz', properties = ['dipole'])
--------------------------------------------------------------------------

    Molecular point group: c1
  Charge       = 1
  Multiplicity = 1
  Basis Set: AUG-CC-PVTZ
    Blend: AUG-CC-PVTZ
  Basis Set: (AUG-CC-PVTZ AUX)
    Blend: AUG-CC-PVTZ-JKFIT

    Orbital Energies [Eh]
    ---------------------

    Doubly Occupied:

       1A    -15.869172     2A    -15.707408     3A    -11.459772
       4A    -11.459286     5A    -11.421684     6A    -11.420758
       7A    -11.376836     8A    -11.349158     9A    -11.339046
      10A    -11.329341    11A    -11.328048    12A    -11.326099
      13A    -11.321604    14A     -1.500868    15A     -1.411354
      16A     -1.239883    17A     -1.225494    18A     -1.162461
      19A     -1.139230    20A     -1.087045    21A     -1.058564
      22A     -1.028360    23A     -1.001122    24A     -0.937226
      25A     -0.925678    26A     -0.898202    27A     -0.868510
      28A     -0.826806    29A     -0.817578    30A     -0.797202
      31A     -0.795857    32A     -0.755982    33A     -0.743853
      34A     -0.737698    35A     -0.713119    36A     -0.703335
      37A     -0.691121    38A     -0.672616    39A     -0.669422
      40A     -0.663673    41A     -0.660634    42A     -0.638018
      43A     -0.601103    44A     -0.589253    45A     -0.579000
      46A     -0.523026    47A     -0.433681    48A     -0.411066

  @DF-RHF Final Energy:  -535.29603213287237

   => Energetics <=

    Nuclear Repulsion Energy =            820.6024258788330599
    One-Electron Energy =               -2339.3644143862593410
    Two-Electron Energy =                 983.4659563745540254
    Total Energy =                       -535.2960321328723694
  Basis Set: (AUG-CC-PVTZ AUX)
    Blend: AUG-CC-PVTZ-RI
    Molecular point group: c1

    Geometry (in Angstrom), charge = 1, multiplicity = 1:

       Center              X                  Y                   Z               Mass
    ------------   -----------------  -----------------  -----------------  -----------------
         N           -3.464294681061    -0.166415662020     0.160557113059    14.003074004430
         N           -0.665985681061     0.007447337980    -0.128477886941    14.003074004430
         C           -2.782311681061    -0.589655662020    -1.121403886941    12.000000000000
         C           -2.671052681061     0.868611337980     0.926235113059    12.000000000000
         C           -1.384347681061    -1.074787662020    -0.781940886941    12.000000000000
         C           -1.271297681061     0.329407337980     1.157764113059    12.000000000000
         C            0.676530318939    -0.211183762020    -0.033492486941    12.000000000000
         C            1.573420318939     0.964958337980    -0.235693886941    12.000000000000
         C            1.325321318939    -1.418501662020     0.250227113059    12.000000000000
         C            2.959927318939     0.800208337980    -0.134006886941    12.000000000000
         C            0.975130318939     2.310483337980    -0.548934886941    12.000000000000
         C            2.711305318939    -1.558584662020     0.329528113059    12.000000000000
         C            3.529148318939    -0.443788662020     0.143556113059    12.000000000000
         H           -2.745559681061     0.292395337980    -1.763025886941     1.007825032230
         H           -3.401089681061    -1.364700662020    -1.581043886941     1.007825032230
         H           -3.208729681061     1.073540337980     1.855560113059     1.007825032230
         H           -2.643505681061     1.764160337980     0.302802113059     1.007825032230
         H           -1.457238681061    -1.994679662020    -0.170279886941     1.007825032230
         H           -0.870677681061    -1.339211662020    -1.710547886941     1.007825032230
         H           -0.681077681061     1.106525337980     1.650726113059     1.007825032230
         H           -1.302441681061    -0.540605662020     1.842391113059     1.007825032230
         H           -4.409443681061     0.187802337980    -0.039926886941     1.007825032230
         H           -3.588370681061    -0.996576662020     0.757849113059     1.007825032230
         H            0.691531318939    -2.288415662020     0.408941113059     1.007825032230
         H            3.605371318939     1.662362337980    -0.289143886941     1.007825032230
         H            0.178234318939     2.220883337980    -1.291370886941     1.007825032230
         H            0.547375318939     2.785879337980     0.341943113059     1.007825032230
         H            1.741354318939     2.985001337980    -0.938370886941     1.007825032230
         H            3.146693318939    -2.530401662020     0.546294113059     1.007825032230
         H            4.609506318939    -0.543323662020     0.204944113059     1.007825032230

  Basis Set: AUG-CC-PVTZ
    Blend: AUG-CC-PVTZ
  Basis Set: (AUG-CC-PVTZ AUX)
    Blend: AUG-CC-PVTZ-JKFIT
	 Reference Energy          =    -535.2960321328723694 [Eh]
	 Singles Energy            =      -0.0000000000000000 [Eh]
	 Same-Spin Energy          =      -0.5863143152415055 [Eh]
	 Opposite-Spin Energy      =      -1.9187361919122004 [Eh]
	 Correlation Energy        =      -2.5050505071537059 [Eh]
	 Total Energy              =    -537.8010826400260385 [Eh]

	 ================> DF-SCS-MP2 Energies <==================
	-----------------------------------------------------------
	 SCS Same-Spin Scale       =       0.3333333333333333 [-]
	 SCS Opposite-Spin Scale   =       1.2000000000000000 [-]
	 SCS Same-Spin Energy      =      -0.1954381050805018 [Eh]
	 SCS Opposite-Spin Energy  =      -2.3024834302946404 [Eh]
	 SCS Correlation Energy    =      -2.4979215353751423 [Eh]
	 SCS Total Energy          =    -537.7939536682474682 [Eh]
	-----------------------------------------------------------

  Dipole Moment: [D]
     X:   -12.4492      Y:    -0.6846      Z:     0.7572     Total:    12.4910

*** Psi4 exiting successfully. Buy a developer a beer!
