                               Psi4 1.4a3.dev225

  ==> Input File <==

--------------------------------------------------------------------------
#psi4
#
memory 32 gb

molecule  {
1 1
  N       -3.4197460    -0.1817000     0.1602720
  N       -0.6214370    -0.0078370    -0.1287630
  C       -2.7377630    -0.6049400    -1.1216890
  C       -2.6265040     0.8533270     0.9259500
  C       -1.3397990    -1.0900720    -0.7822260
  C       -1.2267490     0.3141230     1.1574790
  C        0.8091060    -0.1845140    -0.0397240
  C        1.6179690     0.9496740    -0.2359790
  C        1.3698700    -1.4337860     0.2499420
  C        3.0044760     0.7849240    -0.1342920
  C        1.0594195     2.2058246    -0.5284135
  C        2.7558540    -1.5738690     0.3292430
  C        3.5736970    -0.4590730     0.1432710
  H       -2.7010110     0.2771110    -1.7633110
  H       -3.3565410    -1.3799850    -1.5813290
  H       -3.1641810     1.0582560     1.8552750
  H       -2.5989570     1.7488760     0.3025170
  H       -1.4126900    -2.0099640    -0.1705650
  H       -0.8261290    -1.3544960    -1.7108330
  H       -0.6365290     1.0912410     1.6504410
  H       -1.2578930    -0.5558900     1.8421060
  H       -4.3648950     0.1725180    -0.0402120
  H       -3.5438220    -1.0118610     0.7575640
  H        0.7360800    -2.3037000     0.4086560
  H        3.6499200     1.6470780    -0.2894290
  H        0.2227830     2.2055990    -1.2916560
  H        0.5919240     2.7705950     0.3416580
  H        1.7859030     2.9697170    -0.9386560
  H        3.1912420    -2.5456860     0.5460090
  H        4.6540550    -0.5586080     0.2046590
units angstrom
no_reorient  #important for SAPT in psi4, default
symmetry c1  #important for SAPT in psi4, default
}

set PROPERTIES_ORIGIN ["COM"]
properties('MP2/aug-cc-pvtz', properties = ['dipole'])
--------------------------------------------------------------------------

    Molecular point group: c1
  Charge       = 1
  Multiplicity = 1
  Basis Set: AUG-CC-PVTZ
    Blend: AUG-CC-PVTZ
  Basis Set: (AUG-CC-PVTZ AUX)
    Blend: AUG-CC-PVTZ-JKFIT

    Orbital Energies [Eh]
    ---------------------

    Doubly Occupied:

       1A    -15.866566     2A    -15.703203     3A    -11.456772
       4A    -11.456655     5A    -11.417635     6A    -11.417195
       7A    -11.375582     8A    -11.340674     9A    -11.339504
      10A    -11.332348    11A    -11.330252    12A    -11.328971
      13A    -11.327472    14A     -1.497481    15A     -1.390758
      16A     -1.254464    17A     -1.221808    18A     -1.161272
      19A     -1.149510    20A     -1.089075    21A     -1.053523
      22A     -1.029247    23A     -0.995918    24A     -0.936287
      25A     -0.924975    26A     -0.901727    27A     -0.867719
      28A     -0.823631    29A     -0.811407    30A     -0.793718
      31A     -0.788723    32A     -0.760698    33A     -0.746526
      34A     -0.734708    35A     -0.715974    36A     -0.706969
      37A     -0.689261    38A     -0.680247    39A     -0.668054
      40A     -0.660086    41A     -0.655619    42A     -0.627190
      43A     -0.608652    44A     -0.584375    45A     -0.583199
      46A     -0.521930    47A     -0.433703    48A     -0.421144

  @DF-RHF Final Energy:  -535.29635149926560

   => Energetics <=

    Nuclear Repulsion Energy =            822.1587983590460453
    One-Electron Energy =               -2342.5454800234201684
    Two-Electron Energy =                 985.0903301651084121
    Total Energy =                       -535.2963514992655973
  Basis Set: (AUG-CC-PVTZ AUX)
    Blend: AUG-CC-PVTZ-RI
    Molecular point group: c1

    Geometry (in Angstrom), charge = 1, multiplicity = 1:

       Center              X                  Y                   Z               Mass
    ------------   -----------------  -----------------  -----------------  -----------------
         N           -3.472950078787    -0.163203252316     0.159550440191    14.003074004430
         N           -0.674641078787     0.010659747684    -0.129484559809    14.003074004430
         C           -2.790967078787    -0.586443252316    -1.122410559809    12.000000000000
         C           -2.679708078787     0.871823747684     0.925228440191    12.000000000000
         C           -1.393003078787    -1.071575252316    -0.782947559809    12.000000000000
         C           -1.279953078787     0.332619747684     1.156757440191    12.000000000000
         C            0.755901921213    -0.166017252316    -0.040445559809    12.000000000000
         C            1.564764921213     0.968170747684    -0.236700559809    12.000000000000
         C            1.316665921213    -1.415289252316     0.249220440191    12.000000000000
         C            2.951271921213     0.803420747684    -0.135013559809    12.000000000000
         C            1.006215421213     2.224321347684    -0.529135059809    12.000000000000
         C            2.702649921213    -1.555372252316     0.328521440191    12.000000000000
         C            3.520492921213    -0.440576252316     0.142549440191    12.000000000000
         H           -2.754215078787     0.295607747684    -1.764032559809     1.007825032230
         H           -3.409745078787    -1.361488252316    -1.582050559809     1.007825032230
         H           -3.217385078787     1.076752747684     1.854553440191     1.007825032230
         H           -2.652161078787     1.767372747684     0.301795440191     1.007825032230
         H           -1.465894078787    -1.991467252316    -0.171286559809     1.007825032230
         H           -0.879333078787    -1.335999252316    -1.711554559809     1.007825032230
         H           -0.689733078787     1.109737747684     1.649719440191     1.007825032230
         H           -1.311097078787    -0.537393252316     1.841384440191     1.007825032230
         H           -4.418099078787     0.191014747684    -0.040933559809     1.007825032230
         H           -3.597026078787    -0.993364252316     0.756842440191     1.007825032230
         H            0.682875921213    -2.285203252316     0.407934440191     1.007825032230
         H            3.596715921213     1.665574747684    -0.290150559809     1.007825032230
         H            0.169578921213     2.224095747684    -1.292377559809     1.007825032230
         H            0.538719921213     2.789091747684     0.340936440191     1.007825032230
         H            1.732698921213     2.988213747684    -0.939377559809     1.007825032230
         H            3.138037921213    -2.527189252316     0.545287440191     1.007825032230
         H            4.600850921213    -0.540111252316     0.203937440191     1.007825032230

  Basis Set: AUG-CC-PVTZ
    Blend: AUG-CC-PVTZ
  Basis Set: (AUG-CC-PVTZ AUX)
    Blend: AUG-CC-PVTZ-JKFIT
	 Reference Energy          =    -535.2963514992655973 [Eh]
	 Singles Energy            =      -0.0000000000000000 [Eh]
	 Same-Spin Energy          =      -0.5867207368785572 [Eh]
	 Opposite-Spin Energy      =      -1.9186697109596333 [Eh]
	 Correlation Energy        =      -2.5053904478381908 [Eh]
	 Total Energy              =    -537.8017419471037783 [Eh]

	 ================> DF-SCS-MP2 Energies <==================
	-----------------------------------------------------------
	 SCS Same-Spin Scale       =       0.3333333333333333 [-]
	 SCS Opposite-Spin Scale   =       1.2000000000000000 [-]
	 SCS Same-Spin Energy      =      -0.1955735789595190 [Eh]
	 SCS Opposite-Spin Energy  =      -2.3024036531515599 [Eh]
	 SCS Correlation Energy    =      -2.4979772321110789 [Eh]
	 SCS Total Energy          =    -537.7943287313767087 [Eh]
	-----------------------------------------------------------

  Dipole Moment: [D]
     X:   -12.1188      Y:    -0.6532      Z:     0.7195     Total:    12.1577

*** Psi4 exiting successfully. Buy a developer a beer!
