                               Psi4 1.4a3.dev225

  ==> Input File <==

--------------------------------------------------------------------------
#psi4
#
memory 32 gb

molecule  {
1 1
  N       -3.4197460    -0.1817000     0.1602720
  N       -0.6214370    -0.0078370    -0.1287630
  C       -2.7377630    -0.6049400    -1.1216890
  C       -2.6265040     0.8533270     0.9259500
  C       -1.3397990    -1.0900720    -0.7822260
  C       -1.2267490     0.3141230     1.1574790
  C        0.8091060    -0.1845140    -0.0397240
  C        1.6179690     0.9496740    -0.2359790
  C        1.3698700    -1.4337860     0.2499420
  C        3.0044760     0.7849240    -0.1342920
  C        1.0196790     2.2951990    -0.5492200
  C        2.7558540    -1.5738690     0.3292430
  C        3.5736970    -0.4590730     0.1432710
  H       -2.7010110     0.2771110    -1.7633110
  H       -3.3565410    -1.3799850    -1.5813290
  H       -3.1641810     1.0582560     1.8552750
  H       -2.5989570     1.7488760     0.3025170
  H       -1.4126900    -2.0099640    -0.1705650
  H       -0.8261290    -1.3544960    -1.7108330
  H       -0.6365290     1.0912410     1.6504410
  H       -1.2578930    -0.5558900     1.8421060
  H       -4.3648950     0.1725180    -0.0402120
  H       -3.5438220    -1.0118610     0.7575640
  H        0.7360800    -2.3037000     0.4086560
  H        3.6499200     1.6470780    -0.2894290
  H        0.1707165     2.1348189    -1.2184162
  H        0.5919240     2.7705950     0.3416580
  H        1.7859030     2.9697170    -0.9386560
  H        3.1912420    -2.5456860     0.5460090
  H        4.6540550    -0.5586080     0.2046590
units angstrom
no_reorient  #important for SAPT in psi4, default
symmetry c1  #important for SAPT in psi4, default
}

set PROPERTIES_ORIGIN ["COM"]
properties('MP2/aug-cc-pvtz', properties = ['dipole'])
--------------------------------------------------------------------------

    Molecular point group: c1
  Charge       = 1
  Multiplicity = 1
  Basis Set: AUG-CC-PVTZ
    Blend: AUG-CC-PVTZ
  Basis Set: (AUG-CC-PVTZ AUX)
    Blend: AUG-CC-PVTZ-JKFIT

    Orbital Energies [Eh]
    ---------------------

    Doubly Occupied:

       1A    -15.866958     2A    -15.703643     3A    -11.457172
       4A    -11.457151     5A    -11.417882     6A    -11.417635
       7A    -11.374985     8A    -11.344056     9A    -11.340267
      10A    -11.331474    11A    -11.329576    12A    -11.328399
      13A    -11.323664    14A     -1.497889    15A     -1.390779
      16A     -1.249942    17A     -1.222252    18A     -1.155994
      19A     -1.142942    20A     -1.088246    21A     -1.053880
      22A     -1.031971    23A     -0.996522    24A     -0.935750
      25A     -0.924557    26A     -0.902807    27A     -0.867689
      28A     -0.824121    29A     -0.810430    30A     -0.793944
      31A     -0.788906    32A     -0.754825    33A     -0.746025
      34A     -0.735018    35A     -0.714869    36A     -0.704623
      37A     -0.688110    38A     -0.672778    39A     -0.667468
      40A     -0.660198    41A     -0.654039    42A     -0.648362
      43A     -0.599861    44A     -0.592584    45A     -0.586039
      46A     -0.521848    47A     -0.433350    48A     -0.422888

  @DF-RHF Final Energy:  -535.30737350114396

   => Energetics <=

    Nuclear Repulsion Energy =            820.5833679468433957
    One-Electron Energy =               -2339.4327495227635154
    Two-Electron Energy =                 983.5420080747762768
    Total Energy =                       -535.3073735011439567
  Basis Set: (AUG-CC-PVTZ AUX)
    Blend: AUG-CC-PVTZ-RI
    Molecular point group: c1

    Geometry (in Angstrom), charge = 1, multiplicity = 1:

       Center              X                  Y                   Z               Mass
    ------------   -----------------  -----------------  -----------------  -----------------
         N           -3.469961694505    -0.168855072991     0.160543247669    14.003074004430
         N           -0.671652694505     0.005007927009    -0.128491752331    14.003074004430
         C           -2.787978694505    -0.592095072991    -1.121417752331    12.000000000000
         C           -2.676719694505     0.866171927009     0.926221247669    12.000000000000
         C           -1.390014694505    -1.077227072991    -0.781954752331    12.000000000000
         C           -1.276964694505     0.326967927009     1.157750247669    12.000000000000
         C            0.758890305495    -0.171669072991    -0.039452752331    12.000000000000
         C            1.567753305495     0.962518927009    -0.235707752331    12.000000000000
         C            1.319654305495    -1.420941072991     0.250213247669    12.000000000000
         C            2.954260305495     0.797768927009    -0.134020752331    12.000000000000
         C            0.969463305495     2.308043927009    -0.548948752331    12.000000000000
         C            2.705638305495    -1.561024072991     0.329514247669    12.000000000000
         C            3.523481305495    -0.446228072991     0.143542247669    12.000000000000
         H           -2.751226694505     0.289955927009    -1.763039752331     1.007825032230
         H           -3.406756694505    -1.367140072991    -1.581057752331     1.007825032230
         H           -3.214396694505     1.071100927009     1.855546247669     1.007825032230
         H           -2.649172694505     1.761720927009     0.302788247669     1.007825032230
         H           -1.462905694505    -1.997119072991    -0.170293752331     1.007825032230
         H           -0.876344694505    -1.341651072991    -1.710561752331     1.007825032230
         H           -0.686744694505     1.104085927009     1.650712247669     1.007825032230
         H           -1.308108694505    -0.543045072991     1.842377247669     1.007825032230
         H           -4.415110694505     0.185362927009    -0.039940752331     1.007825032230
         H           -3.594037694505    -0.999016072991     0.757835247669     1.007825032230
         H            0.685864305495    -2.290855072991     0.408927247669     1.007825032230
         H            3.599704305495     1.659922927009    -0.289157752331     1.007825032230
         H            0.120500805495     2.147663827009    -1.218144952331     1.007825032230
         H            0.541708305495     2.783439927009     0.341929247669     1.007825032230
         H            1.735687305495     2.982561927009    -0.938384752331     1.007825032230
         H            3.141026305495    -2.532841072991     0.546280247669     1.007825032230
         H            4.603839305495    -0.545763072991     0.204930247669     1.007825032230

  Basis Set: AUG-CC-PVTZ
    Blend: AUG-CC-PVTZ
  Basis Set: (AUG-CC-PVTZ AUX)
    Blend: AUG-CC-PVTZ-JKFIT
	 Reference Energy          =    -535.3073735011439567 [Eh]
	 Singles Energy            =      -0.0000000000000000 [Eh]
	 Same-Spin Energy          =      -0.5855248897068226 [Eh]
	 Opposite-Spin Energy      =      -1.9174062398229768 [Eh]
	 Correlation Energy        =      -2.5029311295297996 [Eh]
	 Total Energy              =    -537.8103046306737269 [Eh]

	 ================> DF-SCS-MP2 Energies <==================
	-----------------------------------------------------------
	 SCS Same-Spin Scale       =       0.3333333333333333 [-]
	 SCS Opposite-Spin Scale   =       1.2000000000000000 [-]
	 SCS Same-Spin Energy      =      -0.1951749632356075 [Eh]
	 SCS Opposite-Spin Energy  =      -2.3008874877875720 [Eh]
	 SCS Correlation Energy    =      -2.4960624510231795 [Eh]
	 SCS Total Energy          =    -537.8034359521670922 [Eh]
	-----------------------------------------------------------

  Dipole Moment: [D]
     X:   -12.1363      Y:    -0.6989      Z:     0.7676     Total:    12.1806

*** Psi4 exiting successfully. Buy a developer a beer!
