                               Psi4 1.4a3.dev225

  ==> Input File <==

--------------------------------------------------------------------------
#psi4
#
memory 32 gb

molecule  {
1 1
  N       -3.4197460    -0.1817000     0.1602720
  N       -0.6214370    -0.0078370    -0.1287630
  C       -2.7377630    -0.6049400    -1.1216890
  C       -2.6337860     0.9160792     0.8413919
  C       -1.3397990    -1.0900720    -0.7822260
  C       -1.2267490     0.3141230     1.1574790
  C        0.8091060    -0.1845140    -0.0397240
  C        1.6179690     0.9496740    -0.2359790
  C        1.3698700    -1.4337860     0.2499420
  C        3.0044760     0.7849240    -0.1342920
  C        1.0196790     2.2951990    -0.5492200
  C        2.7558540    -1.5738690     0.3292430
  C        3.5736970    -0.4590730     0.1432710
  H       -2.7010110     0.2771110    -1.7633110
  H       -3.3565410    -1.3799850    -1.5813290
  H       -3.1641810     1.0582560     1.8552750
  H       -2.5989570     1.7488760     0.3025170
  H       -1.4126900    -2.0099640    -0.1705650
  H       -0.8261290    -1.3544960    -1.7108330
  H       -0.6365290     1.0912410     1.6504410
  H       -1.2578930    -0.5558900     1.8421060
  H       -4.3648950     0.1725180    -0.0402120
  H       -3.5438220    -1.0118610     0.7575640
  H        0.7360800    -2.3037000     0.4086560
  H        3.6499200     1.6470780    -0.2894290
  H        0.2227830     2.2055990    -1.2916560
  H        0.5919240     2.7705950     0.3416580
  H        1.7859030     2.9697170    -0.9386560
  H        3.1912420    -2.5456860     0.5460090
  H        4.6540550    -0.5586080     0.2046590
units angstrom
no_reorient  #important for SAPT in psi4, default
symmetry c1  #important for SAPT in psi4, default
}

set PROPERTIES_ORIGIN ["COM"]
properties('MP2/aug-cc-pvtz', properties = ['dipole'])
--------------------------------------------------------------------------

    Molecular point group: c1
  Charge       = 1
  Multiplicity = 1
  Basis Set: AUG-CC-PVTZ
    Blend: AUG-CC-PVTZ
  Basis Set: (AUG-CC-PVTZ AUX)
    Blend: AUG-CC-PVTZ-JKFIT

    Orbital Energies [Eh]
    ---------------------

    Doubly Occupied:

       1A    -15.867346     2A    -15.701783     3A    -11.456316
       4A    -11.455849     5A    -11.419915     6A    -11.417374
       7A    -11.374747     8A    -11.344190     9A    -11.339956
      10A    -11.331731    11A    -11.329813    12A    -11.328471
      13A    -11.323819    14A     -1.497567    15A     -1.389644
      16A     -1.249605    17A     -1.217856    18A     -1.154541
      19A     -1.142465    20A     -1.089572    21A     -1.053246
      22A     -1.032877    23A     -1.000429    24A     -0.934331
      25A     -0.922356    26A     -0.902631    27A     -0.868345
      28A     -0.837685    29A     -0.810992    30A     -0.790319
      31A     -0.782190    32A     -0.754686    33A     -0.747353
      34A     -0.726540    35A     -0.719527    36A     -0.707416
      37A     -0.692235    38A     -0.675295    39A     -0.669178
      40A     -0.657846    41A     -0.648709    42A     -0.639982
      43A     -0.600004    44A     -0.590560    45A     -0.587499
      46A     -0.520893    47A     -0.433408    48A     -0.423271

  @DF-RHF Final Energy:  -535.29436478116145

   => Energetics <=

    Nuclear Repulsion Energy =            820.1713128503497501
    One-Electron Energy =               -2338.6066326931659205
    Two-Electron Energy =                 983.1409550616547222
    Total Energy =                       -535.2943647811614483
  Basis Set: (AUG-CC-PVTZ AUX)
    Blend: AUG-CC-PVTZ-RI
    Molecular point group: c1

    Geometry (in Angstrom), charge = 1, multiplicity = 1:

       Center              X                  Y                   Z               Mass
    ------------   -----------------  -----------------  -----------------  -----------------
         N           -3.469764617386    -0.173508816937     0.166688190552    14.003074004430
         N           -0.671455617386     0.000354183063    -0.122346809448    14.003074004430
         C           -2.787781617386    -0.596748816937    -1.115272809448    12.000000000000
         C           -2.683804617386     0.924270383063     0.847808090552    12.000000000000
         C           -1.389817617386    -1.081880816937    -0.775809809448    12.000000000000
         C           -1.276767617386     0.322314183063     1.163895190552    12.000000000000
         C            0.759087382614    -0.176322816937    -0.033307809448    12.000000000000
         C            1.567950382614     0.957865183063    -0.229562809448    12.000000000000
         C            1.319851382614    -1.425594816937     0.256358190552    12.000000000000
         C            2.954457382614     0.793115183063    -0.127875809448    12.000000000000
         C            0.969660382614     2.303390183063    -0.542803809448    12.000000000000
         C            2.705835382614    -1.565677816937     0.335659190552    12.000000000000
         C            3.523678382614    -0.450881816937     0.149687190552    12.000000000000
         H           -2.751029617386     0.285302183063    -1.756894809448     1.007825032230
         H           -3.406559617386    -1.371793816937    -1.574912809448     1.007825032230
         H           -3.214199617386     1.066447183063     1.861691190552     1.007825032230
         H           -2.648975617386     1.757067183063     0.308933190552     1.007825032230
         H           -1.462708617386    -2.001772816937    -0.164148809448     1.007825032230
         H           -0.876147617386    -1.346304816937    -1.704416809448     1.007825032230
         H           -0.686547617386     1.099432183063     1.656857190552     1.007825032230
         H           -1.307911617386    -0.547698816937     1.848522190552     1.007825032230
         H           -4.414913617386     0.180709183063    -0.033795809448     1.007825032230
         H           -3.593840617386    -1.003669816937     0.763980190552     1.007825032230
         H            0.686061382614    -2.295508816937     0.415072190552     1.007825032230
         H            3.599901382614     1.655269183063    -0.283012809448     1.007825032230
         H            0.172764382614     2.213790183063    -1.285239809448     1.007825032230
         H            0.541905382614     2.778786183063     0.348074190552     1.007825032230
         H            1.735884382614     2.977908183063    -0.932239809448     1.007825032230
         H            3.141223382614    -2.537494816937     0.552425190552     1.007825032230
         H            4.604036382614    -0.550416816937     0.211075190552     1.007825032230

  Basis Set: AUG-CC-PVTZ
    Blend: AUG-CC-PVTZ
  Basis Set: (AUG-CC-PVTZ AUX)
    Blend: AUG-CC-PVTZ-JKFIT
	 Reference Energy          =    -535.2943647811614483 [Eh]
	 Singles Energy            =      -0.0000000000000000 [Eh]
	 Same-Spin Energy          =      -0.5852926787623749 [Eh]
	 Opposite-Spin Energy      =      -1.9177775198343363 [Eh]
	 Correlation Energy        =      -2.5030701985967112 [Eh]
	 Total Energy              =    -537.7974349797581226 [Eh]

	 ================> DF-SCS-MP2 Energies <==================
	-----------------------------------------------------------
	 SCS Same-Spin Scale       =       0.3333333333333333 [-]
	 SCS Opposite-Spin Scale   =       1.2000000000000000 [-]
	 SCS Same-Spin Energy      =      -0.1950975595874583 [Eh]
	 SCS Opposite-Spin Energy  =      -2.3013330238012033 [Eh]
	 SCS Correlation Energy    =      -2.4964305833886615 [Eh]
	 SCS Total Energy          =    -537.7907953645501493 [Eh]
	-----------------------------------------------------------

  Dipole Moment: [D]
     X:   -12.0990      Y:    -0.6911      Z:     0.7052     Total:    12.1392

*** Psi4 exiting successfully. Buy a developer a beer!
