                               Psi4 1.4a3.dev225

  ==> Input File <==

--------------------------------------------------------------------------
#psi4
#
memory 32 gb

molecule  {
1 1
  N       -3.4197460    -0.1817000     0.1602720
  N       -0.6214370    -0.0078370    -0.1287630
  C       -2.7377630    -0.6049400    -1.1216890
  C       -2.6265040     0.8533270     0.9259500
  C       -1.3397990    -1.0900720    -0.7822260
  C       -1.2267490     0.3141230     1.1574790
  C        0.8091060    -0.1845140    -0.0397240
  C        1.6179690     0.9496740    -0.2359790
  C        1.3698700    -1.4337860     0.2499420
  C        3.0044760     0.7849240    -0.1342920
  C        1.0196790     2.2951990    -0.5492200
  C        2.7558540    -1.5738690     0.3292430
  C        3.5736970    -0.4590730     0.1432710
  H       -2.7010110     0.2771110    -1.7633110
  H       -3.3565410    -1.3799850    -1.5813290
  H       -3.1641810     1.0582560     1.8552750
  H       -2.5989570     1.7488760     0.3025170
  H       -1.3944253    -2.0292579    -0.1986257
  H       -0.8261290    -1.3544960    -1.7108330
  H       -0.6365290     1.0912410     1.6504410
  H       -1.2578930    -0.5558900     1.8421060
  H       -4.3648950     0.1725180    -0.0402120
  H       -3.5438220    -1.0118610     0.7575640
  H        0.7360800    -2.3037000     0.4086560
  H        3.6499200     1.6470780    -0.2894290
  H        0.2227830     2.2055990    -1.2916560
  H        0.5919240     2.7705950     0.3416580
  H        1.7859030     2.9697170    -0.9386560
  H        3.1912420    -2.5456860     0.5460090
  H        4.6540550    -0.5586080     0.2046590
units angstrom
no_reorient  #important for SAPT in psi4, default
symmetry c1  #important for SAPT in psi4, default
}

set PROPERTIES_ORIGIN ["COM"]
properties('MP2/aug-cc-pvtz', properties = ['dipole'])
--------------------------------------------------------------------------

    Molecular point group: c1
  Charge       = 1
  Multiplicity = 1
  Basis Set: AUG-CC-PVTZ
    Blend: AUG-CC-PVTZ
  Basis Set: (AUG-CC-PVTZ AUX)
    Blend: AUG-CC-PVTZ-JKFIT

    Orbital Energies [Eh]
    ---------------------

    Doubly Occupied:

       1A    -15.866554     2A    -15.703395     3A    -11.457074
       4A    -11.456741     5A    -11.417212     6A    -11.417094
       7A    -11.375246     8A    -11.344443     9A    -11.340263
      10A    -11.331865    11A    -11.329932    12A    -11.328657
      13A    -11.323610    14A     -1.497442    15A     -1.390199
      16A     -1.249930    17A     -1.221746    18A     -1.155581
      19A     -1.142671    20A     -1.088145    21A     -1.053696
      22A     -1.032016    23A     -0.995963    24A     -0.935578
      25A     -0.924633    26A     -0.903391    27A     -0.867440
      28A     -0.823600    29A     -0.810347    30A     -0.793070
      31A     -0.788243    32A     -0.755016    33A     -0.744721
      34A     -0.734467    35A     -0.714980    36A     -0.704212
      37A     -0.688402    38A     -0.675193    39A     -0.669616
      40A     -0.658641    41A     -0.655608    42A     -0.640451
      43A     -0.599975    44A     -0.591725    45A     -0.588122
      46A     -0.521905    47A     -0.433612    48A     -0.423536

  @DF-RHF Final Energy:  -535.30870158353389

   => Energetics <=

    Nuclear Repulsion Energy =            820.2391375338600028
    One-Electron Energy =               -2338.7637616355787031
    Two-Electron Energy =                 983.2159225181848115
    Total Energy =                       -535.3087015835338889
  Basis Set: (AUG-CC-PVTZ AUX)
    Blend: AUG-CC-PVTZ-RI
    Molecular point group: c1

    Geometry (in Angstrom), charge = 1, multiplicity = 1:

       Center              X                  Y                   Z               Mass
    ------------   -----------------  -----------------  -----------------  -----------------
         N           -3.470361840573    -0.169148001315     0.161119592120    14.003074004430
         N           -0.672052840573     0.004714998685    -0.127915407880    14.003074004430
         C           -2.788378840573    -0.592388001315    -1.120841407880    12.000000000000
         C           -2.677119840573     0.865878998685     0.926797592120    12.000000000000
         C           -1.390414840573    -1.077520001315    -0.781378407880    12.000000000000
         C           -1.277364840573     0.326674998685     1.158326592120    12.000000000000
         C            0.758490159427    -0.171962001315    -0.038876407880    12.000000000000
         C            1.567353159427     0.962225998685    -0.235131407880    12.000000000000
         C            1.319254159427    -1.421234001315     0.250789592120    12.000000000000
         C            2.953860159427     0.797475998685    -0.133444407880    12.000000000000
         C            0.969063159427     2.307750998685    -0.548372407880    12.000000000000
         C            2.705238159427    -1.561317001315     0.330090592120    12.000000000000
         C            3.523081159427    -0.446521001315     0.144118592120    12.000000000000
         H           -2.751626840573     0.289662998685    -1.762463407880     1.007825032230
         H           -3.407156840573    -1.367433001315    -1.580481407880     1.007825032230
         H           -3.214796840573     1.070807998685     1.856122592120     1.007825032230
         H           -2.649572840573     1.761427998685     0.303364592120     1.007825032230
         H           -1.445041140573    -2.016705901315    -0.197778107880     1.007825032230
         H           -0.876744840573    -1.341944001315    -1.709985407880     1.007825032230
         H           -0.687144840573     1.103792998685     1.651288592120     1.007825032230
         H           -1.308508840573    -0.543338001315     1.842953592120     1.007825032230
         H           -4.415510840573     0.185069998685    -0.039364407880     1.007825032230
         H           -3.594437840573    -0.999309001315     0.758411592120     1.007825032230
         H            0.685464159427    -2.291148001315     0.409503592120     1.007825032230
         H            3.599304159427     1.659629998685    -0.288581407880     1.007825032230
         H            0.172167159427     2.218150998685    -1.290808407880     1.007825032230
         H            0.541308159427     2.783146998685     0.342505592120     1.007825032230
         H            1.735287159427     2.982268998685    -0.937808407880     1.007825032230
         H            3.140626159427    -2.533134001315     0.546856592120     1.007825032230
         H            4.603439159427    -0.546056001315     0.205506592120     1.007825032230

  Basis Set: AUG-CC-PVTZ
    Blend: AUG-CC-PVTZ
  Basis Set: (AUG-CC-PVTZ AUX)
    Blend: AUG-CC-PVTZ-JKFIT
	 Reference Energy          =    -535.3087015835338889 [Eh]
	 Singles Energy            =      -0.0000000000000000 [Eh]
	 Same-Spin Energy          =      -0.5852851822405538 [Eh]
	 Opposite-Spin Energy      =      -1.9171273834352744 [Eh]
	 Correlation Energy        =      -2.5024125656758285 [Eh]
	 Total Energy              =    -537.8111141492097431 [Eh]

	 ================> DF-SCS-MP2 Energies <==================
	-----------------------------------------------------------
	 SCS Same-Spin Scale       =       0.3333333333333333 [-]
	 SCS Opposite-Spin Scale   =       1.2000000000000000 [-]
	 SCS Same-Spin Energy      =      -0.1950950607468513 [Eh]
	 SCS Opposite-Spin Energy  =      -2.3005528601223291 [Eh]
	 SCS Correlation Energy    =      -2.4956479208691804 [Eh]
	 SCS Total Energy          =    -537.8043495044030351 [Eh]
	-----------------------------------------------------------

  Dipole Moment: [D]
     X:   -12.1009      Y:    -0.6940      Z:     0.7329     Total:    12.1429

*** Psi4 exiting successfully. Buy a developer a beer!
