                               Psi4 1.4a3.dev225

  ==> Input File <==

--------------------------------------------------------------------------
#psi4
#
memory 32 gb

molecule  {
1 1
  N       -3.4197460    -0.1817000     0.1602720
  N       -0.6214370    -0.0078370    -0.1287630
  C       -2.7377630    -0.6049400    -1.1216890
  C       -2.6265040     0.8533270     0.9259500
  C       -1.3397990    -1.0900720    -0.7822260
  C       -1.2267490     0.3141230     1.1574790
  C        0.8091060    -0.1845140    -0.0397240
  C        1.6179690     0.9496740    -0.2359790
  C        1.3698700    -1.4337860     0.2499420
  C        3.0044760     0.7849240    -0.1342920
  C        0.9799385     2.3845734    -0.5700265
  C        2.7558540    -1.5738690     0.3292430
  C        3.5736970    -0.4590730     0.1432710
  H       -2.7010110     0.2771110    -1.7633110
  H       -3.3565410    -1.3799850    -1.5813290
  H       -3.1641810     1.0582560     1.8552750
  H       -2.5989570     1.7488760     0.3025170
  H       -1.4126900    -2.0099640    -0.1705650
  H       -0.8261290    -1.3544960    -1.7108330
  H       -0.6365290     1.0912410     1.6504410
  H       -1.2578930    -0.5558900     1.8421060
  H       -4.3648950     0.1725180    -0.0402120
  H       -3.5438220    -1.0118610     0.7575640
  H        0.7360800    -2.3037000     0.4086560
  H        3.6499200     1.6470780    -0.2894290
  H        0.2227830     2.2055990    -1.2916560
  H        0.5919240     2.7705950     0.3416580
  H        1.7859030     2.9697170    -0.9386560
  H        3.1912420    -2.5456860     0.5460090
  H        4.6540550    -0.5586080     0.2046590
units angstrom
no_reorient  #important for SAPT in psi4, default
symmetry c1  #important for SAPT in psi4, default
}

set PROPERTIES_ORIGIN ["COM"]
properties('MP2/aug-cc-pvtz', properties = ['dipole'])
--------------------------------------------------------------------------

    Molecular point group: c1
  Charge       = 1
  Multiplicity = 1
  Basis Set: AUG-CC-PVTZ
    Blend: AUG-CC-PVTZ
  Basis Set: (AUG-CC-PVTZ AUX)
    Blend: AUG-CC-PVTZ-JKFIT

    Orbital Energies [Eh]
    ---------------------

    Doubly Occupied:

       1A    -15.866704     2A    -15.702937     3A    -11.456897
       4A    -11.456850     5A    -11.417458     6A    -11.417340
       7A    -11.374883     8A    -11.347585     9A    -11.339751
      10A    -11.331362    11A    -11.329629    12A    -11.328308
      13A    -11.322540    14A     -1.497601    15A     -1.389872
      16A     -1.247041    17A     -1.221915    18A     -1.154073
      19A     -1.134789    20A     -1.087240    21A     -1.053483
      22A     -1.035608    23A     -0.996213    24A     -0.934929
      25A     -0.923637    26A     -0.904042    27A     -0.867236
      28A     -0.823825    29A     -0.809337    30A     -0.793445
      31A     -0.788330    32A     -0.751443    33A     -0.743694
      34A     -0.734535    35A     -0.714166    36A     -0.703359
      37A     -0.688380    38A     -0.685209    39A     -0.666261
      40A     -0.658854    41A     -0.657090    42A     -0.649051
      43A     -0.594190    44A     -0.593880    45A     -0.579740
      46A     -0.521047    47A     -0.433412    48A     -0.424507

  @DF-RHF Final Energy:  -535.30185088902851

   => Energetics <=

    Nuclear Repulsion Energy =            818.5274114751849766
    One-Electron Energy =               -2335.3511685105740980
    Two-Electron Energy =                 981.5219061463604930
    Total Energy =                       -535.3018508890285148
  Basis Set: (AUG-CC-PVTZ AUX)
    Blend: AUG-CC-PVTZ-RI
    Molecular point group: c1

    Geometry (in Angstrom), charge = 1, multiplicity = 1:

       Center              X                  Y                   Z               Mass
    ------------   -----------------  -----------------  -----------------  -----------------
         N           -3.467565770049    -0.175312293794     0.162369443971    14.003074004430
         N           -0.669256770049    -0.001449293794    -0.126665556029    14.003074004430
         C           -2.785582770049    -0.598552293794    -1.119591556029    12.000000000000
         C           -2.674323770049     0.859714706206     0.928047443971    12.000000000000
         C           -1.387618770049    -1.083684293794    -0.780128556029    12.000000000000
         C           -1.274568770049     0.320510706206     1.159576443971    12.000000000000
         C            0.761286229951    -0.178126293794    -0.037626556029    12.000000000000
         C            1.570149229951     0.956061706206    -0.233881556029    12.000000000000
         C            1.322050229951    -1.427398293794     0.252039443971    12.000000000000
         C            2.956656229951     0.791311706206    -0.132194556029    12.000000000000
         C            0.932118729951     2.390961106206    -0.567929056029    12.000000000000
         C            2.708034229951    -1.567481293794     0.331340443971    12.000000000000
         C            3.525877229951    -0.452685293794     0.145368443971    12.000000000000
         H           -2.748830770049     0.283498706206    -1.761213556029     1.007825032230
         H           -3.404360770049    -1.373597293794    -1.579231556029     1.007825032230
         H           -3.212000770049     1.064643706206     1.857372443971     1.007825032230
         H           -2.646776770049     1.755263706206     0.304614443971     1.007825032230
         H           -1.460509770049    -2.003576293794    -0.168467556029     1.007825032230
         H           -0.873948770049    -1.348108293794    -1.708735556029     1.007825032230
         H           -0.684348770049     1.097628706206     1.652538443971     1.007825032230
         H           -1.305712770049    -0.549502293794     1.844203443971     1.007825032230
         H           -4.412714770049     0.178905706206    -0.038114556029     1.007825032230
         H           -3.591641770049    -1.005473293794     0.759661443971     1.007825032230
         H            0.688260229951    -2.297312293794     0.410753443971     1.007825032230
         H            3.602100229951     1.653465706206    -0.287331556029     1.007825032230
         H            0.174963229951     2.211986706206    -1.289558556029     1.007825032230
         H            0.544104229951     2.776982706206     0.343755443971     1.007825032230
         H            1.738083229951     2.976104706206    -0.936558556029     1.007825032230
         H            3.143422229951    -2.539298293794     0.548106443971     1.007825032230
         H            4.606235229951    -0.552220293794     0.206756443971     1.007825032230

  Basis Set: AUG-CC-PVTZ
    Blend: AUG-CC-PVTZ
  Basis Set: (AUG-CC-PVTZ AUX)
    Blend: AUG-CC-PVTZ-JKFIT
	 Reference Energy          =    -535.3018508890285148 [Eh]
	 Singles Energy            =      -0.0000000000000000 [Eh]
	 Same-Spin Energy          =      -0.5847421065006486 [Eh]
	 Opposite-Spin Energy      =      -1.9170472405181167 [Eh]
	 Correlation Energy        =      -2.5017893470187653 [Eh]
	 Total Energy              =    -537.8036402360472721 [Eh]

	 ================> DF-SCS-MP2 Energies <==================
	-----------------------------------------------------------
	 SCS Same-Spin Scale       =       0.3333333333333333 [-]
	 SCS Opposite-Spin Scale   =       1.2000000000000000 [-]
	 SCS Same-Spin Energy      =      -0.1949140355002162 [Eh]
	 SCS Opposite-Spin Energy  =      -2.3004566886217401 [Eh]
	 SCS Correlation Energy    =      -2.4953707241219565 [Eh]
	 SCS Total Energy          =    -537.7972216131504410 [Eh]
	-----------------------------------------------------------

  Dipole Moment: [D]
     X:   -12.0886      Y:    -0.7238      Z:     0.7458     Total:    12.1332

*** Psi4 exiting successfully. Buy a developer a beer!
