                               Psi4 1.4a3.dev225

  ==> Input File <==

--------------------------------------------------------------------------
#psi4
#
memory 32 gb

molecule  {
1 1
  N       -3.4197460    -0.1817000     0.1602720
  N       -0.6214370    -0.0078370    -0.1287630
  C       -2.7377630    -0.6049400    -1.1216890
  C       -2.6230866     0.7855322     1.0067778
  C       -1.3397990    -1.0900720    -0.7822260
  C       -1.2267490     0.3141230     1.1574790
  C        0.8091060    -0.1845140    -0.0397240
  C        1.6179690     0.9496740    -0.2359790
  C        1.3698700    -1.4337860     0.2499420
  C        3.0044760     0.7849240    -0.1342920
  C        1.0196790     2.2951990    -0.5492200
  C        2.7558540    -1.5738690     0.3292430
  C        3.5736970    -0.4590730     0.1432710
  H       -2.7010110     0.2771110    -1.7633110
  H       -3.3565410    -1.3799850    -1.5813290
  H       -3.1641810     1.0582560     1.8552750
  H       -2.5989570     1.7488760     0.3025170
  H       -1.4126900    -2.0099640    -0.1705650
  H       -0.8261290    -1.3544960    -1.7108330
  H       -0.6365290     1.0912410     1.6504410
  H       -1.2578930    -0.5558900     1.8421060
  H       -4.3648950     0.1725180    -0.0402120
  H       -3.5438220    -1.0118610     0.7575640
  H        0.7360800    -2.3037000     0.4086560
  H        3.6499200     1.6470780    -0.2894290
  H        0.2227830     2.2055990    -1.2916560
  H        0.5919240     2.7705950     0.3416580
  H        1.7859030     2.9697170    -0.9386560
  H        3.1912420    -2.5456860     0.5460090
  H        4.6540550    -0.5586080     0.2046590
units angstrom
no_reorient  #important for SAPT in psi4, default
symmetry c1  #important for SAPT in psi4, default
}

set PROPERTIES_ORIGIN ["COM"]
properties('MP2/aug-cc-pvtz', properties = ['dipole'])
--------------------------------------------------------------------------

    Molecular point group: c1
  Charge       = 1
  Multiplicity = 1
  Basis Set: AUG-CC-PVTZ
    Blend: AUG-CC-PVTZ
  Basis Set: (AUG-CC-PVTZ AUX)
    Blend: AUG-CC-PVTZ-JKFIT

    Orbital Energies [Eh]
    ---------------------

    Doubly Occupied:

       1A    -15.867319     2A    -15.704816     3A    -11.460140
       4A    -11.457744     5A    -11.418117     6A    -11.416362
       7A    -11.375770     8A    -11.344776     9A    -11.340636
      10A    -11.332041    11A    -11.330124    12A    -11.328918
      13A    -11.323377    14A     -1.498420    15A     -1.391264
      16A     -1.250489    17A     -1.226731    18A     -1.157499
      19A     -1.143165    20A     -1.088276    21A     -1.055545
      22A     -1.031630    23A     -0.992075    24A     -0.937390
      25A     -0.927011    26A     -0.904483    27A     -0.871391
      28A     -0.816359    29A     -0.807369    30A     -0.798589
      31A     -0.793548    32A     -0.756183    33A     -0.751528
      34A     -0.738362    35A     -0.714315    36A     -0.698275
      37A     -0.675313    38A     -0.671510    39A     -0.669030
      40A     -0.662368    41A     -0.655610    42A     -0.640643
      43A     -0.599856    44A     -0.592729    45A     -0.588519
      46A     -0.522182    47A     -0.433897    48A     -0.423887

  @DF-RHF Final Energy:  -535.29605737150450

   => Energetics <=

    Nuclear Repulsion Energy =            820.3586631718246736
    One-Electron Energy =               -2338.9382836170339033
    Two-Electron Energy =                 983.2835630737047268
    Total Energy =                       -535.2960573715045030
  Basis Set: (AUG-CC-PVTZ AUX)
    Blend: AUG-CC-PVTZ-RI
    Molecular point group: c1

    Geometry (in Angstrom), charge = 1, multiplicity = 1:

       Center              X                  Y                   Z               Mass
    ------------   -----------------  -----------------  -----------------  -----------------
         N           -3.470489430522    -0.164665126586     0.155484396607    14.003074004430
         N           -0.672180430522     0.009197873414    -0.133550603393    14.003074004430
         C           -2.788506430522    -0.587905126586    -1.126476603393    12.000000000000
         C           -2.673830030522     0.802567073414     1.001990196607    12.000000000000
         C           -1.390542430522    -1.073037126586    -0.787013603393    12.000000000000
         C           -1.277492430522     0.331157873414     1.152691396607    12.000000000000
         C            0.758362569478    -0.167479126586    -0.044511603393    12.000000000000
         C            1.567225569478     0.966708873414    -0.240766603393    12.000000000000
         C            1.319126569478    -1.416751126586     0.245154396607    12.000000000000
         C            2.953732569478     0.801958873414    -0.139079603393    12.000000000000
         C            0.968935569478     2.312233873414    -0.554007603393    12.000000000000
         C            2.705110569478    -1.556834126586     0.324455396607    12.000000000000
         C            3.522953569478    -0.442038126586     0.138483396607    12.000000000000
         H           -2.751754430522     0.294145873414    -1.768098603393     1.007825032230
         H           -3.407284430522    -1.362950126586    -1.586116603393     1.007825032230
         H           -3.214924430522     1.075290873414     1.850487396607     1.007825032230
         H           -2.649700430522     1.765910873414     0.297729396607     1.007825032230
         H           -1.463433430522    -1.992929126586    -0.175352603393     1.007825032230
         H           -0.876872430522    -1.337461126586    -1.715620603393     1.007825032230
         H           -0.687272430522     1.108275873414     1.645653396607     1.007825032230
         H           -1.308636430522    -0.538855126586     1.837318396607     1.007825032230
         H           -4.415638430522     0.189552873414    -0.044999603393     1.007825032230
         H           -3.594565430522    -0.994826126586     0.752776396607     1.007825032230
         H            0.685336569478    -2.286665126586     0.403868396607     1.007825032230
         H            3.599176569478     1.664112873414    -0.294216603393     1.007825032230
         H            0.172039569478     2.222633873414    -1.296443603393     1.007825032230
         H            0.541180569478     2.787629873414     0.336870396607     1.007825032230
         H            1.735159569478     2.986751873414    -0.943443603393     1.007825032230
         H            3.140498569478    -2.528651126586     0.541221396607     1.007825032230
         H            4.603311569478    -0.541573126586     0.199871396607     1.007825032230

  Basis Set: AUG-CC-PVTZ
    Blend: AUG-CC-PVTZ
  Basis Set: (AUG-CC-PVTZ AUX)
    Blend: AUG-CC-PVTZ-JKFIT
	 Reference Energy          =    -535.2960573715045030 [Eh]
	 Singles Energy            =      -0.0000000000000000 [Eh]
	 Same-Spin Energy          =      -0.5858471911234076 [Eh]
	 Opposite-Spin Energy      =      -1.9180528757625532 [Eh]
	 Correlation Energy        =      -2.5039000668859606 [Eh]
	 Total Energy              =    -537.7999574383904928 [Eh]

	 ================> DF-SCS-MP2 Energies <==================
	-----------------------------------------------------------
	 SCS Same-Spin Scale       =       0.3333333333333333 [-]
	 SCS Opposite-Spin Scale   =       1.2000000000000000 [-]
	 SCS Same-Spin Energy      =      -0.1952823970411358 [Eh]
	 SCS Opposite-Spin Energy  =      -2.3016634509150640 [Eh]
	 SCS Correlation Energy    =      -2.4969458479561997 [Eh]
	 SCS Total Energy          =    -537.7930032194607293 [Eh]
	-----------------------------------------------------------

  Dipole Moment: [D]
     X:   -12.0849      Y:    -0.7259      Z:     0.7493     Total:    12.1299

*** Psi4 exiting successfully. Buy a developer a beer!
