                               Psi4 1.4a3.dev225

  ==> Input File <==

--------------------------------------------------------------------------
#psi4
#
memory 32 gb

molecule  {
1 1
  N       -3.4197460    -0.1817000     0.1602720
  N       -0.6214370    -0.0078370    -0.1287630
  C       -2.7377630    -0.6049400    -1.1216890
  C       -2.6265040     0.8533270     0.9259500
  C       -1.3397990    -1.0900720    -0.7822260
  C       -1.2169608     0.3338781     1.1427942
  C        0.8091060    -0.1845140    -0.0397240
  C        1.6179690     0.9496740    -0.2359790
  C        1.3698700    -1.4337860     0.2499420
  C        3.0044760     0.7849240    -0.1342920
  C        1.0196790     2.2951990    -0.5492200
  C        2.7558540    -1.5738690     0.3292430
  C        3.5736970    -0.4590730     0.1432710
  H       -2.7010110     0.2771110    -1.7633110
  H       -3.3565410    -1.3799850    -1.5813290
  H       -3.1641810     1.0582560     1.8552750
  H       -2.5989570     1.7488760     0.3025170
  H       -1.4126900    -2.0099640    -0.1705650
  H       -0.8261290    -1.3544960    -1.7108330
  H       -0.6365290     1.0912410     1.6504410
  H       -1.2578930    -0.5558900     1.8421060
  H       -4.3648950     0.1725180    -0.0402120
  H       -3.5438220    -1.0118610     0.7575640
  H        0.7360800    -2.3037000     0.4086560
  H        3.6499200     1.6470780    -0.2894290
  H        0.2227830     2.2055990    -1.2916560
  H        0.5919240     2.7705950     0.3416580
  H        1.7859030     2.9697170    -0.9386560
  H        3.1912420    -2.5456860     0.5460090
  H        4.6540550    -0.5586080     0.2046590
units angstrom
no_reorient  #important for SAPT in psi4, default
symmetry c1  #important for SAPT in psi4, default
}

set PROPERTIES_ORIGIN ["COM"]
properties('MP2/aug-cc-pvtz', properties = ['dipole'])
--------------------------------------------------------------------------

    Molecular point group: c1
  Charge       = 1
  Multiplicity = 1
  Basis Set: AUG-CC-PVTZ
    Blend: AUG-CC-PVTZ
  Basis Set: (AUG-CC-PVTZ AUX)
    Blend: AUG-CC-PVTZ-JKFIT

    Orbital Energies [Eh]
    ---------------------

    Doubly Occupied:

       1A    -15.866972     2A    -15.703222     3A    -11.457151
       4A    -11.456556     5A    -11.418250     6A    -11.418113
       7A    -11.375545     8A    -11.344582     9A    -11.340359
      10A    -11.331935    11A    -11.330029    12A    -11.328738
      13A    -11.323864    14A     -1.497736    15A     -1.392751
      16A     -1.250236    17A     -1.222199    18A     -1.155824
      19A     -1.142905    20A     -1.088680    21A     -1.054632
      22A     -1.032257    23A     -0.995066    24A     -0.935515
      25A     -0.925072    26A     -0.903700    27A     -0.867139
      28A     -0.822783    29A     -0.810317    30A     -0.795118
      31A     -0.790515    32A     -0.755812    33A     -0.744996
      34A     -0.735397    35A     -0.714574    36A     -0.704013
      37A     -0.684145    38A     -0.675573    39A     -0.669991
      40A     -0.662585    41A     -0.656332    42A     -0.640864
      43A     -0.599619    44A     -0.591943    45A     -0.588454
      46A     -0.520505    47A     -0.433676    48A     -0.423598

  @DF-RHF Final Energy:  -535.30827558129693

   => Energetics <=

    Nuclear Repulsion Energy =            820.5206757711439423
    One-Electron Energy =               -2339.2982278261938518
    Two-Electron Energy =                 983.4692764737529842
    Total Energy =                       -535.3082755812969253
  Basis Set: (AUG-CC-PVTZ AUX)
    Blend: AUG-CC-PVTZ-RI
    Molecular point group: c1

    Geometry (in Angstrom), charge = 1, multiplicity = 1:

       Center              X                  Y                   Z               Mass
    ------------   -----------------  -----------------  -----------------  -----------------
         N           -3.470921009819    -0.170596049594     0.161954739541    14.003074004430
         N           -0.672612009819     0.003266950406    -0.127080260459    14.003074004430
         C           -2.788938009819    -0.593836049594    -1.120006260459    12.000000000000
         C           -2.677679009819     0.864430950406     0.927632739541    12.000000000000
         C           -1.390974009819    -1.078968049594    -0.780543260459    12.000000000000
         C           -1.268135809819     0.344982050406     1.144476939541    12.000000000000
         C            0.757930990181    -0.173410049594    -0.038041260459    12.000000000000
         C            1.566793990181     0.960777950406    -0.234296260459    12.000000000000
         C            1.318694990181    -1.422682049594     0.251624739541    12.000000000000
         C            2.953300990181     0.796027950406    -0.132609260459    12.000000000000
         C            0.968503990181     2.306302950406    -0.547537260459    12.000000000000
         C            2.704678990181    -1.562765049594     0.330925739541    12.000000000000
         C            3.522521990181    -0.447969049594     0.144953739541    12.000000000000
         H           -2.752186009819     0.288214950406    -1.761628260459     1.007825032230
         H           -3.407716009819    -1.368881049594    -1.579646260459     1.007825032230
         H           -3.215356009819     1.069359950406     1.856957739541     1.007825032230
         H           -2.650132009819     1.759979950406     0.304199739541     1.007825032230
         H           -1.463865009819    -1.998860049594    -0.168882260459     1.007825032230
         H           -0.877304009819    -1.343392049594    -1.709150260459     1.007825032230
         H           -0.687704009819     1.102344950406     1.652123739541     1.007825032230
         H           -1.309068009819    -0.544786049594     1.843788739541     1.007825032230
         H           -4.416070009819     0.183621950406    -0.038529260459     1.007825032230
         H           -3.594997009819    -1.000757049594     0.759246739541     1.007825032230
         H            0.684904990181    -2.292596049594     0.410338739541     1.007825032230
         H            3.598744990181     1.658181950406    -0.287746260459     1.007825032230
         H            0.171607990181     2.216702950406    -1.289973260459     1.007825032230
         H            0.540748990181     2.781698950406     0.343340739541     1.007825032230
         H            1.734727990181     2.980820950406    -0.936973260459     1.007825032230
         H            3.140066990181    -2.534582049594     0.547691739541     1.007825032230
         H            4.602879990181    -0.547504049594     0.206341739541     1.007825032230

  Basis Set: AUG-CC-PVTZ
    Blend: AUG-CC-PVTZ
  Basis Set: (AUG-CC-PVTZ AUX)
    Blend: AUG-CC-PVTZ-JKFIT
	 Reference Energy          =    -535.3082755812969253 [Eh]
	 Singles Energy            =      -0.0000000000000000 [Eh]
	 Same-Spin Energy          =      -0.5853709942717863 [Eh]
	 Opposite-Spin Energy      =      -1.9171257894382179 [Eh]
	 Correlation Energy        =      -2.5024967837100043 [Eh]
	 Total Energy              =    -537.8107723650069829 [Eh]

	 ================> DF-SCS-MP2 Energies <==================
	-----------------------------------------------------------
	 SCS Same-Spin Scale       =       0.3333333333333333 [-]
	 SCS Opposite-Spin Scale   =       1.2000000000000000 [-]
	 SCS Same-Spin Energy      =      -0.1951236647572621 [Eh]
	 SCS Opposite-Spin Energy  =      -2.3005509473258612 [Eh]
	 SCS Correlation Energy    =      -2.4956746120831235 [Eh]
	 SCS Total Energy          =    -537.8039501933800466 [Eh]
	-----------------------------------------------------------

  Dipole Moment: [D]
     X:   -12.0942      Y:    -0.6709      Z:     0.6918     Total:    12.1325

*** Psi4 exiting successfully. Buy a developer a beer!
