                               Psi4 1.4a3.dev225

  ==> Input File <==

--------------------------------------------------------------------------
#psi4
#
memory 32 gb

molecule  {
1 1
  N       -3.4197460    -0.1817000     0.1602720
  N       -0.6214370    -0.0078370    -0.1287630
  C       -2.7377630    -0.6049400    -1.1216890
  C       -2.6265040     0.8533270     0.9259500
  C       -1.3397990    -1.0900720    -0.7822260
  C       -1.2476015     0.2751115     1.1866325
  C        0.8091060    -0.1845140    -0.0397240
  C        1.6179690     0.9496740    -0.2359790
  C        1.3698700    -1.4337860     0.2499420
  C        3.0044760     0.7849240    -0.1342920
  C        1.0196790     2.2951990    -0.5492200
  C        2.7558540    -1.5738690     0.3292430
  C        3.5736970    -0.4590730     0.1432710
  H       -2.7010110     0.2771110    -1.7633110
  H       -3.3565410    -1.3799850    -1.5813290
  H       -3.1641810     1.0582560     1.8552750
  H       -2.5989570     1.7488760     0.3025170
  H       -1.4126900    -2.0099640    -0.1705650
  H       -0.8261290    -1.3544960    -1.7108330
  H       -0.6365290     1.0912410     1.6504410
  H       -1.2578930    -0.5558900     1.8421060
  H       -4.3648950     0.1725180    -0.0402120
  H       -3.5438220    -1.0118610     0.7575640
  H        0.7360800    -2.3037000     0.4086560
  H        3.6499200     1.6470780    -0.2894290
  H        0.2227830     2.2055990    -1.2916560
  H        0.5919240     2.7705950     0.3416580
  H        1.7859030     2.9697170    -0.9386560
  H        3.1912420    -2.5456860     0.5460090
  H        4.6540550    -0.5586080     0.2046590
units angstrom
no_reorient  #important for SAPT in psi4, default
symmetry c1  #important for SAPT in psi4, default
}

set PROPERTIES_ORIGIN ["COM"]
properties('MP2/aug-cc-pvtz', properties = ['dipole'])
--------------------------------------------------------------------------

    Molecular point group: c1
  Charge       = 1
  Multiplicity = 1
  Basis Set: AUG-CC-PVTZ
    Blend: AUG-CC-PVTZ
  Basis Set: (AUG-CC-PVTZ AUX)
    Blend: AUG-CC-PVTZ-JKFIT

    Orbital Energies [Eh]
    ---------------------

    Doubly Occupied:

       1A    -15.866036     2A    -15.703105     3A    -11.457616
       4A    -11.456245     5A    -11.416305     6A    -11.416141
       7A    -11.374529     8A    -11.344092     9A    -11.339913
      10A    -11.331611    11A    -11.329665    12A    -11.328426
      13A    -11.323116    14A     -1.497273    15A     -1.385447
      16A     -1.249369    17A     -1.221438    18A     -1.155355
      19A     -1.142232    20A     -1.087092    21A     -1.051755
      22A     -1.031608    23A     -0.998498    24A     -0.935663
      25A     -0.923050    26A     -0.902746    27A     -0.868566
      28A     -0.826114    29A     -0.810166    30A     -0.790971
      31A     -0.784072    32A     -0.753522    33A     -0.744563
      34A     -0.732988    35A     -0.715849    36A     -0.707065
      37A     -0.693536    38A     -0.674614    39A     -0.668904
      40A     -0.654049    41A     -0.652652    42A     -0.639695
      43A     -0.600451    44A     -0.591226    45A     -0.587274
      46A     -0.523482    47A     -0.433346    48A     -0.423303

  @DF-RHF Final Energy:  -535.30546311598994

   => Energetics <=

    Nuclear Repulsion Energy =            819.8164554095328640
    One-Electron Energy =               -2337.9543553342386986
    Two-Electron Energy =                 982.8324368087158973
    Total Energy =                       -535.3054631159899373
  Basis Set: (AUG-CC-PVTZ AUX)
    Blend: AUG-CC-PVTZ-RI
    Molecular point group: c1

    Geometry (in Angstrom), charge = 1, multiplicity = 1:

       Center              X                  Y                   Z               Mass
    ------------   -----------------  -----------------  -----------------  -----------------
         N           -3.468845306334    -0.166615003584     0.158984986497    14.003074004430
         N           -0.670536306334     0.007247996416    -0.130050013503    14.003074004430
         C           -2.786862306334    -0.589855003584    -1.122976013503    12.000000000000
         C           -2.675603306334     0.868411996416     0.924662986497    12.000000000000
         C           -1.388898306334    -1.074987003584    -0.783513013503    12.000000000000
         C           -1.296700806334     0.290196496416     1.185345486497    12.000000000000
         C            0.760006693666    -0.169429003584    -0.041011013503    12.000000000000
         C            1.568869693666     0.964758996416    -0.237266013503    12.000000000000
         C            1.320770693666    -1.418701003584     0.248654986497    12.000000000000
         C            2.955376693666     0.800008996416    -0.135579013503    12.000000000000
         C            0.970579693666     2.310283996416    -0.550507013503    12.000000000000
         C            2.706754693666    -1.558784003584     0.327955986497    12.000000000000
         C            3.524597693666    -0.443988003584     0.141983986497    12.000000000000
         H           -2.750110306334     0.292195996416    -1.764598013503     1.007825032230
         H           -3.405640306334    -1.364900003584    -1.582616013503     1.007825032230
         H           -3.213280306334     1.073340996416     1.853987986497     1.007825032230
         H           -2.648056306334     1.763960996416     0.301229986497     1.007825032230
         H           -1.461789306334    -1.994879003584    -0.171852013503     1.007825032230
         H           -0.875228306334    -1.339411003584    -1.712120013503     1.007825032230
         H           -0.685628306334     1.106325996416     1.649153986497     1.007825032230
         H           -1.306992306334    -0.540805003584     1.840818986497     1.007825032230
         H           -4.413994306334     0.187602996416    -0.041499013503     1.007825032230
         H           -3.592921306334    -0.996776003584     0.756276986497     1.007825032230
         H            0.686980693666    -2.288615003584     0.407368986497     1.007825032230
         H            3.600820693666     1.662162996416    -0.290716013503     1.007825032230
         H            0.173683693666     2.220683996416    -1.292943013503     1.007825032230
         H            0.542824693666     2.785679996416     0.340370986497     1.007825032230
         H            1.736803693666     2.984801996416    -0.939943013503     1.007825032230
         H            3.142142693666    -2.530601003584     0.544721986497     1.007825032230
         H            4.604955693666    -0.543523003584     0.203371986497     1.007825032230

  Basis Set: AUG-CC-PVTZ
    Blend: AUG-CC-PVTZ
  Basis Set: (AUG-CC-PVTZ AUX)
    Blend: AUG-CC-PVTZ-JKFIT
	 Reference Energy          =    -535.3054631159899373 [Eh]
	 Singles Energy            =      -0.0000000000000000 [Eh]
	 Same-Spin Energy          =      -0.5852621201502562 [Eh]
	 Opposite-Spin Energy      =      -1.9174756016568055 [Eh]
	 Correlation Energy        =      -2.5027377218070619 [Eh]
	 Total Energy              =    -537.8082008377970169 [Eh]

	 ================> DF-SCS-MP2 Energies <==================
	-----------------------------------------------------------
	 SCS Same-Spin Scale       =       0.3333333333333333 [-]
	 SCS Opposite-Spin Scale   =       1.2000000000000000 [-]
	 SCS Same-Spin Energy      =      -0.1950873733834187 [Eh]
	 SCS Opposite-Spin Energy  =      -2.3009707219881665 [Eh]
	 SCS Correlation Energy    =      -2.4960580953715854 [Eh]
	 SCS Total Energy          =    -537.8015212113615462 [Eh]
	-----------------------------------------------------------

  Dipole Moment: [D]
     X:   -12.1253      Y:    -0.7062      Z:     0.7992     Total:    12.1721

*** Psi4 exiting successfully. Buy a developer a beer!
