                               Psi4 1.4a3.dev225

  ==> Input File <==

--------------------------------------------------------------------------
#psi4
#
memory 32 gb

molecule  {
1 1
  N       -3.4197460    -0.1817000     0.1602720
  N       -0.6214370    -0.0078370    -0.1287630
  C       -2.7377630    -0.6049400    -1.1216890
  C       -2.6265040     0.8533270     0.9259500
  C       -1.3397990    -1.0900720    -0.7822260
  C       -1.2267490     0.3141230     1.1574790
  C        0.8091060    -0.1845140    -0.0397240
  C        1.6179690     0.9496740    -0.2359790
  C        1.3698700    -1.4337860     0.2499420
  C        3.0044760     0.7849240    -0.1342920
  C        1.0196790     2.2951990    -0.5492200
  C        2.7558540    -1.5738690     0.3292430
  C        3.5736970    -0.4590730     0.1432710
  H       -2.6942759     0.4387551    -1.8808942
  H       -3.3565410    -1.3799850    -1.5813290
  H       -3.1641810     1.0582560     1.8552750
  H       -2.5989570     1.7488760     0.3025170
  H       -1.4126900    -2.0099640    -0.1705650
  H       -0.8261290    -1.3544960    -1.7108330
  H       -0.6365290     1.0912410     1.6504410
  H       -1.2578930    -0.5558900     1.8421060
  H       -4.3648950     0.1725180    -0.0402120
  H       -3.5438220    -1.0118610     0.7575640
  H        0.7360800    -2.3037000     0.4086560
  H        3.6499200     1.6470780    -0.2894290
  H        0.2227830     2.2055990    -1.2916560
  H        0.5919240     2.7705950     0.3416580
  H        1.7859030     2.9697170    -0.9386560
  H        3.1912420    -2.5456860     0.5460090
  H        4.6540550    -0.5586080     0.2046590
units angstrom
no_reorient  #important for SAPT in psi4, default
symmetry c1  #important for SAPT in psi4, default
}

set PROPERTIES_ORIGIN ["COM"]
properties('MP2/aug-cc-pvtz', properties = ['dipole'])
--------------------------------------------------------------------------

    Molecular point group: c1
  Charge       = 1
  Multiplicity = 1
  Basis Set: AUG-CC-PVTZ
    Blend: AUG-CC-PVTZ
  Basis Set: (AUG-CC-PVTZ AUX)
    Blend: AUG-CC-PVTZ-JKFIT

    Orbital Energies [Eh]
    ---------------------

    Doubly Occupied:

       1A    -15.867995     2A    -15.702889     3A    -11.475899
       4A    -11.456588     5A    -11.418965     6A    -11.417277
       7A    -11.375220     8A    -11.344406     9A    -11.340287
      10A    -11.331889    11A    -11.329939    12A    -11.328659
      13A    -11.323560    14A     -1.497425    15A     -1.390341
      16A     -1.249897    17A     -1.218247    18A     -1.154348
      19A     -1.141513    20A     -1.086131    21A     -1.050704
      22A     -1.030786    23A     -0.990695    24A     -0.935707
      25A     -0.924648    26A     -0.903383    27A     -0.867040
      28A     -0.812008    29A     -0.807609    30A     -0.793186
      31A     -0.788583    32A     -0.754805    33A     -0.743691
      34A     -0.733221    35A     -0.710691    36A     -0.699094
      37A     -0.676657    38A     -0.671391    39A     -0.667760
      40A     -0.657805    41A     -0.656016    42A     -0.640206
      43A     -0.599983    44A     -0.591730    45A     -0.588120
      46A     -0.521769    47A     -0.433624    48A     -0.423504

  @DF-RHF Final Energy:  -535.28768632325102

   => Energetics <=

    Nuclear Repulsion Energy =            819.4086853611654533
    One-Electron Energy =               -2337.1409646835941203
    Two-Electron Energy =                 982.4445929991776438
    Total Energy =                       -535.2876863232510232
  Basis Set: (AUG-CC-PVTZ AUX)
    Blend: AUG-CC-PVTZ-RI
    Molecular point group: c1

    Geometry (in Angstrom), charge = 1, multiplicity = 1:

       Center              X                  Y                   Z               Mass
    ------------   -----------------  -----------------  -----------------  -----------------
         N           -3.470296243454    -0.170177439592     0.161628926191    14.003074004430
         N           -0.671987243454     0.003685560408    -0.127406073809    14.003074004430
         C           -2.788313243454    -0.593417439592    -1.120332073809    12.000000000000
         C           -2.677054243454     0.864849560408     0.927306926191    12.000000000000
         C           -1.390349243454    -1.078549439592    -0.780869073809    12.000000000000
         C           -1.277299243454     0.325645560408     1.158835926191    12.000000000000
         C            0.758555756546    -0.172991439592    -0.038367073809    12.000000000000
         C            1.567418756546     0.961196560408    -0.234622073809    12.000000000000
         C            1.319319756546    -1.422263439592     0.251298926191    12.000000000000
         C            2.953925756546     0.796446560408    -0.132935073809    12.000000000000
         C            0.969128756546     2.306721560408    -0.547863073809    12.000000000000
         C            2.705303756546    -1.562346439592     0.330599926191    12.000000000000
         C            3.523146756546    -0.447550439592     0.144627926191    12.000000000000
         H           -2.744826143454     0.450277660408    -1.879537273809     1.007825032230
         H           -3.407091243454    -1.368462439592    -1.579972073809     1.007825032230
         H           -3.214731243454     1.069778560408     1.856631926191     1.007825032230
         H           -2.649507243454     1.760398560408     0.303873926191     1.007825032230
         H           -1.463240243454    -1.998441439592    -0.169208073809     1.007825032230
         H           -0.876679243454    -1.342973439592    -1.709476073809     1.007825032230
         H           -0.687079243454     1.102763560408     1.651797926191     1.007825032230
         H           -1.308443243454    -0.544367439592     1.843462926191     1.007825032230
         H           -4.415445243454     0.184040560408    -0.038855073809     1.007825032230
         H           -3.594372243454    -1.000338439592     0.758920926191     1.007825032230
         H            0.685529756546    -2.292177439592     0.410012926191     1.007825032230
         H            3.599369756546     1.658600560408    -0.288072073809     1.007825032230
         H            0.172232756546     2.217121560408    -1.290299073809     1.007825032230
         H            0.541373756546     2.782117560408     0.343014926191     1.007825032230
         H            1.735352756546     2.981239560408    -0.937299073809     1.007825032230
         H            3.140691756546    -2.534163439592     0.547365926191     1.007825032230
         H            4.603504756546    -0.547085439592     0.206015926191     1.007825032230

  Basis Set: AUG-CC-PVTZ
    Blend: AUG-CC-PVTZ
  Basis Set: (AUG-CC-PVTZ AUX)
    Blend: AUG-CC-PVTZ-JKFIT
	 Reference Energy          =    -535.2876863232510232 [Eh]
	 Singles Energy            =      -0.0000000000000000 [Eh]
	 Same-Spin Energy          =      -0.5857325007531682 [Eh]
	 Opposite-Spin Energy      =      -1.9191718114302261 [Eh]
	 Correlation Energy        =      -2.5049043121833945 [Eh]
	 Total Energy              =    -537.7925906354344079 [Eh]

	 ================> DF-SCS-MP2 Energies <==================
	-----------------------------------------------------------
	 SCS Same-Spin Scale       =       0.3333333333333333 [-]
	 SCS Opposite-Spin Scale   =       1.2000000000000000 [-]
	 SCS Same-Spin Energy      =      -0.1952441669177227 [Eh]
	 SCS Opposite-Spin Energy  =      -2.3030061737162710 [Eh]
	 SCS Correlation Energy    =      -2.4982503406339935 [Eh]
	 SCS Total Energy          =    -537.7859366638849679 [Eh]
	-----------------------------------------------------------

  Dipole Moment: [D]
     X:   -12.0811      Y:    -0.6858      Z:     0.7337     Total:    12.1228

*** Psi4 exiting successfully. Buy a developer a beer!
