                               Psi4 1.4a3.dev225

  ==> Input File <==

--------------------------------------------------------------------------
#psi4
#
memory 32 gb

molecule  {
1 1
  N       -3.4197460    -0.1817000     0.1602720
  N       -0.6214370    -0.0078370    -0.1287630
  C       -2.7377630    -0.6049400    -1.1216890
  C       -2.6265040     0.8533270     0.9259500
  C       -1.3397990    -1.0900720    -0.7822260
  C       -1.2267490     0.3141230     1.1574790
  C        0.8091060    -0.1845140    -0.0397240
  C        1.6179690     0.9496740    -0.2359790
  C        1.3615181    -1.5769752     0.2774619
  C        3.0044760     0.7849240    -0.1342920
  C        1.0196790     2.2951990    -0.5492200
  C        2.7558540    -1.5738690     0.3292430
  C        3.5736970    -0.4590730     0.1432710
  H       -2.7010110     0.2771110    -1.7633110
  H       -3.3565410    -1.3799850    -1.5813290
  H       -3.1641810     1.0582560     1.8552750
  H       -2.5989570     1.7488760     0.3025170
  H       -1.4126900    -2.0099640    -0.1705650
  H       -0.8261290    -1.3544960    -1.7108330
  H       -0.6365290     1.0912410     1.6504410
  H       -1.2578930    -0.5558900     1.8421060
  H       -4.3648950     0.1725180    -0.0402120
  H       -3.5438220    -1.0118610     0.7575640
  H        0.7360800    -2.3037000     0.4086560
  H        3.6499200     1.6470780    -0.2894290
  H        0.2227830     2.2055990    -1.2916560
  H        0.5919240     2.7705950     0.3416580
  H        1.7859030     2.9697170    -0.9386560
  H        3.1912420    -2.5456860     0.5460090
  H        4.6540550    -0.5586080     0.2046590
units angstrom
no_reorient  #important for SAPT in psi4, default
symmetry c1  #important for SAPT in psi4, default
}

set PROPERTIES_ORIGIN ["COM"]
properties('MP2/aug-cc-pvtz', properties = ['dipole'])
--------------------------------------------------------------------------

    Molecular point group: c1
  Charge       = 1
  Multiplicity = 1
  Basis Set: AUG-CC-PVTZ
    Blend: AUG-CC-PVTZ
  Basis Set: (AUG-CC-PVTZ AUX)
    Blend: AUG-CC-PVTZ-JKFIT

    Orbital Energies [Eh]
    ---------------------

    Doubly Occupied:

       1A    -15.866572     2A    -15.702240     3A    -11.456945
       4A    -11.456473     5A    -11.417861     6A    -11.416847
       7A    -11.386727     8A    -11.345207     9A    -11.342969
      10A    -11.335395    11A    -11.333557    12A    -11.329839
      13A    -11.324491    14A     -1.497444    15A     -1.388162
      16A     -1.241694    17A     -1.221740    18A     -1.155377
      19A     -1.141933    20A     -1.084892    21A     -1.053319
      22A     -1.029622    23A     -0.996160    24A     -0.942808
      25A     -0.927181    26A     -0.902114    27A     -0.864884
      28A     -0.823655    29A     -0.804996    30A     -0.794616
      31A     -0.787607    32A     -0.775246    33A     -0.741786
      34A     -0.733380    35A     -0.715060    36A     -0.705814
      37A     -0.687581    38A     -0.675903    39A     -0.671893
      40A     -0.659776    41A     -0.654550    42A     -0.639961
      43A     -0.604453    44A     -0.591771    45A     -0.579813
      46A     -0.514290    47A     -0.432504    48A     -0.418343

  @DF-RHF Final Energy:  -535.27926492748657

   => Energetics <=

    Nuclear Repulsion Energy =            817.6731750199232920
    One-Electron Energy =               -2333.5539808249000089
    Two-Electron Energy =                 980.6015408774901516
    Total Energy =                       -535.2792649274865653
  Basis Set: (AUG-CC-PVTZ AUX)
    Blend: AUG-CC-PVTZ-RI
    Molecular point group: c1

    Geometry (in Angstrom), charge = 1, multiplicity = 1:

       Center              X                  Y                   Z               Mass
    ------------   -----------------  -----------------  -----------------  -----------------
         N           -3.469692138782    -0.159557657799     0.159095652024    14.003074004430
         N           -0.671383138782     0.014305342201    -0.129939347976    14.003074004430
         C           -2.787709138782    -0.582797657799    -1.122865347976    12.000000000000
         C           -2.676450138782     0.875469342201     0.924773652024    12.000000000000
         C           -1.389745138782    -1.067929657799    -0.783402347976    12.000000000000
         C           -1.276695138782     0.336265342201     1.156302652024    12.000000000000
         C            0.759159861218    -0.162371657799    -0.040900347976    12.000000000000
         C            1.568022861218     0.971816342201    -0.237155347976    12.000000000000
         C            1.311571961218    -1.554832857799     0.276285552024    12.000000000000
         C            2.954529861218     0.807066342201    -0.135468347976    12.000000000000
         C            0.969732861218     2.317341342201    -0.550396347976    12.000000000000
         C            2.705907861218    -1.551726657799     0.328066652024    12.000000000000
         C            3.523750861218    -0.436930657799     0.142094652024    12.000000000000
         H           -2.750957138782     0.299253342201    -1.764487347976     1.007825032230
         H           -3.406487138782    -1.357842657799    -1.582505347976     1.007825032230
         H           -3.214127138782     1.080398342201     1.854098652024     1.007825032230
         H           -2.648903138782     1.771018342201     0.301340652024     1.007825032230
         H           -1.462636138782    -1.987821657799    -0.171741347976     1.007825032230
         H           -0.876075138782    -1.332353657799    -1.712009347976     1.007825032230
         H           -0.686475138782     1.113383342201     1.649264652024     1.007825032230
         H           -1.307839138782    -0.533747657799     1.840929652024     1.007825032230
         H           -4.414841138782     0.194660342201    -0.041388347976     1.007825032230
         H           -3.593768138782    -0.989718657799     0.756387652024     1.007825032230
         H            0.686133861218    -2.281557657799     0.407479652024     1.007825032230
         H            3.599973861218     1.669220342201    -0.290605347976     1.007825032230
         H            0.172836861218     2.227741342201    -1.292832347976     1.007825032230
         H            0.541977861218     2.792737342201     0.340481652024     1.007825032230
         H            1.735956861218     2.991859342201    -0.939832347976     1.007825032230
         H            3.141295861218    -2.523543657799     0.544832652024     1.007825032230
         H            4.604108861218    -0.536465657799     0.203482652024     1.007825032230

  Basis Set: AUG-CC-PVTZ
    Blend: AUG-CC-PVTZ
  Basis Set: (AUG-CC-PVTZ AUX)
    Blend: AUG-CC-PVTZ-JKFIT
	 Reference Energy          =    -535.2792649274865653 [Eh]
	 Singles Energy            =      -0.0000000000000000 [Eh]
	 Same-Spin Energy          =      -0.5856732863127194 [Eh]
	 Opposite-Spin Energy      =      -1.9197226452181906 [Eh]
	 Correlation Energy        =      -2.5053959315309102 [Eh]
	 Total Energy              =    -537.7846608590174355 [Eh]

	 ================> DF-SCS-MP2 Energies <==================
	-----------------------------------------------------------
	 SCS Same-Spin Scale       =       0.3333333333333333 [-]
	 SCS Opposite-Spin Scale   =       1.2000000000000000 [-]
	 SCS Same-Spin Energy      =      -0.1952244287709065 [Eh]
	 SCS Opposite-Spin Energy  =      -2.3036671742618284 [Eh]
	 SCS Correlation Energy    =      -2.4988916030327348 [Eh]
	 SCS Total Energy          =    -537.7781565305192544 [Eh]
	-----------------------------------------------------------

  Dipole Moment: [D]
     X:   -12.1045      Y:    -0.5734      Z:     0.7006     Total:    12.1384

*** Psi4 exiting successfully. Buy a developer a beer!
