                               Psi4 1.4a3.dev225

  ==> Input File <==

--------------------------------------------------------------------------
#psi4
#
memory 32 gb

molecule  {
1 1
  N       -3.4197460    -0.1817000     0.1602720
  N       -0.6214370    -0.0078370    -0.1287630
  C       -2.7377630    -0.6049400    -1.1216890
  C       -2.6265040     0.8533270     0.9259500
  C       -1.3397990    -1.0900720    -0.7822260
  C       -1.2267490     0.3141230     1.1574790
  C        0.6934493    -0.0966944    -0.0641231
  C        1.6179690     0.9496740    -0.2359790
  C        1.3698700    -1.4337860     0.2499420
  C        3.0044760     0.7849240    -0.1342920
  C        1.0196790     2.2951990    -0.5492200
  C        2.7558540    -1.5738690     0.3292430
  C        3.5736970    -0.4590730     0.1432710
  H       -2.7010110     0.2771110    -1.7633110
  H       -3.3565410    -1.3799850    -1.5813290
  H       -3.1641810     1.0582560     1.8552750
  H       -2.5989570     1.7488760     0.3025170
  H       -1.4126900    -2.0099640    -0.1705650
  H       -0.8261290    -1.3544960    -1.7108330
  H       -0.6365290     1.0912410     1.6504410
  H       -1.2578930    -0.5558900     1.8421060
  H       -4.3648950     0.1725180    -0.0402120
  H       -3.5438220    -1.0118610     0.7575640
  H        0.7360800    -2.3037000     0.4086560
  H        3.6499200     1.6470780    -0.2894290
  H        0.2227830     2.2055990    -1.2916560
  H        0.5919240     2.7705950     0.3416580
  H        1.7859030     2.9697170    -0.9386560
  H        3.1912420    -2.5456860     0.5460090
  H        4.6540550    -0.5586080     0.2046590
units angstrom
no_reorient  #important for SAPT in psi4, default
symmetry c1  #important for SAPT in psi4, default
}

set PROPERTIES_ORIGIN ["COM"]
properties('MP2/aug-cc-pvtz', properties = ['dipole'])
--------------------------------------------------------------------------

    Molecular point group: c1
  Charge       = 1
  Multiplicity = 1
  Basis Set: AUG-CC-PVTZ
    Blend: AUG-CC-PVTZ
  Basis Set: (AUG-CC-PVTZ AUX)
    Blend: AUG-CC-PVTZ-JKFIT

    Orbital Energies [Eh]
    ---------------------

    Doubly Occupied:

       1A    -15.870006     2A    -15.706395     3A    -11.460750
       4A    -11.460007     5A    -11.424078     6A    -11.422866
       7A    -11.377998     8A    -11.345591     9A    -11.342196
      10A    -11.329540    11A    -11.328347    12A    -11.327217
      13A    -11.319089    14A     -1.502052    15A     -1.420500
      16A     -1.238594    17A     -1.226682    18A     -1.168822
      19A     -1.139027    20A     -1.077321    21A     -1.060331
      22A     -1.029121    23A     -1.001951    24A     -0.941680
      25A     -0.928991    26A     -0.898842    27A     -0.868106
      28A     -0.827890    29A     -0.816435    30A     -0.800605
      31A     -0.798384    32A     -0.760376    33A     -0.744649
      34A     -0.739006    35A     -0.706600    36A     -0.704133
      37A     -0.692033    38A     -0.677027    39A     -0.669197
      40A     -0.664914    41A     -0.663553    42A     -0.634596
      43A     -0.602123    44A     -0.595211    45A     -0.574017
      46A     -0.513026    47A     -0.426143    48A     -0.412754

  @DF-RHF Final Energy:  -535.28084439002509

   => Energetics <=

    Nuclear Repulsion Energy =            821.0653164037586293
    One-Electron Energy =               -2340.2147746813811864
    Two-Electron Energy =                 983.8686138875975757
    Total Energy =                       -535.2808443900250950
  Basis Set: (AUG-CC-PVTZ AUX)
    Blend: AUG-CC-PVTZ-RI
    Molecular point group: c1

    Geometry (in Angstrom), charge = 1, multiplicity = 1:

       Center              X                  Y                   Z               Mass
    ------------   -----------------  -----------------  -----------------  -----------------
         N           -3.462422952785    -0.175206966443     0.162612818710    14.003074004430
         N           -0.664113952785    -0.001343966443    -0.126422181290    14.003074004430
         C           -2.780439952785    -0.598446966443    -1.119348181290    12.000000000000
         C           -2.669180952785     0.859820033557     0.928290818710    12.000000000000
         C           -1.382475952785    -1.083578966443    -0.779885181290    12.000000000000
         C           -1.269425952785     0.320616033557     1.159819818710    12.000000000000
         C            0.650772347215    -0.090201366443    -0.061782281290    12.000000000000
         C            1.575292047215     0.956167033557    -0.233638181290    12.000000000000
         C            1.327193047215    -1.427292966443     0.252282818710    12.000000000000
         C            2.961799047215     0.791417033557    -0.131951181290    12.000000000000
         C            0.977002047215     2.301692033557    -0.546879181290    12.000000000000
         C            2.713177047215    -1.567375966443     0.331583818710    12.000000000000
         C            3.531020047215    -0.452579966443     0.145611818710    12.000000000000
         H           -2.743687952785     0.283604033557    -1.760970181290     1.007825032230
         H           -3.399217952785    -1.373491966443    -1.578988181290     1.007825032230
         H           -3.206857952785     1.064749033557     1.857615818710     1.007825032230
         H           -2.641633952785     1.755369033557     0.304857818710     1.007825032230
         H           -1.455366952785    -2.003470966443    -0.168224181290     1.007825032230
         H           -0.868805952785    -1.348002966443    -1.708492181290     1.007825032230
         H           -0.679205952785     1.097734033557     1.652781818710     1.007825032230
         H           -1.300569952785    -0.549396966443     1.844446818710     1.007825032230
         H           -4.407571952785     0.179011033557    -0.037871181290     1.007825032230
         H           -3.586498952785    -1.005367966443     0.759904818710     1.007825032230
         H            0.693403047215    -2.297206966443     0.410996818710     1.007825032230
         H            3.607243047215     1.653571033557    -0.287088181290     1.007825032230
         H            0.180106047215     2.212092033557    -1.289315181290     1.007825032230
         H            0.549247047215     2.777088033557     0.343998818710     1.007825032230
         H            1.743226047215     2.976210033557    -0.936315181290     1.007825032230
         H            3.148565047215    -2.539192966443     0.548349818710     1.007825032230
         H            4.611378047215    -0.552114966443     0.206999818710     1.007825032230

  Basis Set: AUG-CC-PVTZ
    Blend: AUG-CC-PVTZ
  Basis Set: (AUG-CC-PVTZ AUX)
    Blend: AUG-CC-PVTZ-JKFIT
	 Reference Energy          =    -535.2808443900250950 [Eh]
	 Singles Energy            =      -0.0000000000000000 [Eh]
	 Same-Spin Energy          =      -0.5870968195253485 [Eh]
	 Opposite-Spin Energy      =      -1.9199530186812501 [Eh]
	 Correlation Energy        =      -2.5070498382065987 [Eh]
	 Total Energy              =    -537.7878942282317212 [Eh]

	 ================> DF-SCS-MP2 Energies <==================
	-----------------------------------------------------------
	 SCS Same-Spin Scale       =       0.3333333333333333 [-]
	 SCS Opposite-Spin Scale   =       1.2000000000000000 [-]
	 SCS Same-Spin Energy      =      -0.1956989398417828 [Eh]
	 SCS Opposite-Spin Energy  =      -2.3039436224175001 [Eh]
	 SCS Correlation Energy    =      -2.4996425622592828 [Eh]
	 SCS Total Energy          =    -537.7804869522843774 [Eh]
	-----------------------------------------------------------

  Dipole Moment: [D]
     X:   -12.5492      Y:    -0.7047      Z:     0.7295     Total:    12.5901

*** Psi4 exiting successfully. Buy a developer a beer!
