                               Psi4 1.4a3.dev225

  ==> Input File <==

--------------------------------------------------------------------------
#psi4
#
memory 32 gb

molecule  {
1 1
  N       -3.4197460    -0.1817000     0.1602720
  N       -0.6214370    -0.0078370    -0.1287630
  C       -2.7377630    -0.6049400    -1.1216890
  C       -2.6265040     0.8533270     0.9259500
  C       -1.3397990    -1.0900720    -0.7822260
  C       -1.0423015     0.2430714     1.1879879
  C        0.8091060    -0.1845140    -0.0397240
  C        1.6179690     0.9496740    -0.2359790
  C        1.3698700    -1.4337860     0.2499420
  C        3.0044760     0.7849240    -0.1342920
  C        1.0196790     2.2951990    -0.5492200
  C        2.7558540    -1.5738690     0.3292430
  C        3.5736970    -0.4590730     0.1432710
  H       -2.7010110     0.2771110    -1.7633110
  H       -3.3565410    -1.3799850    -1.5813290
  H       -3.1641810     1.0582560     1.8552750
  H       -2.5989570     1.7488760     0.3025170
  H       -1.4126900    -2.0099640    -0.1705650
  H       -0.8261290    -1.3544960    -1.7108330
  H       -0.6365290     1.0912410     1.6504410
  H       -1.2578930    -0.5558900     1.8421060
  H       -4.3648950     0.1725180    -0.0402120
  H       -3.5438220    -1.0118610     0.7575640
  H        0.7360800    -2.3037000     0.4086560
  H        3.6499200     1.6470780    -0.2894290
  H        0.2227830     2.2055990    -1.2916560
  H        0.5919240     2.7705950     0.3416580
  H        1.7859030     2.9697170    -0.9386560
  H        3.1912420    -2.5456860     0.5460090
  H        4.6540550    -0.5586080     0.2046590
units angstrom
no_reorient  #important for SAPT in psi4, default
symmetry c1  #important for SAPT in psi4, default
}

set PROPERTIES_ORIGIN ["COM"]
properties('MP2/aug-cc-pvtz', properties = ['dipole'])
--------------------------------------------------------------------------

    Molecular point group: c1
  Charge       = 1
  Multiplicity = 1
  Basis Set: AUG-CC-PVTZ
    Blend: AUG-CC-PVTZ
  Basis Set: (AUG-CC-PVTZ AUX)
    Blend: AUG-CC-PVTZ-JKFIT

    Orbital Energies [Eh]
    ---------------------

    Doubly Occupied:

       1A    -15.862746     2A    -15.706757     3A    -11.455818
       4A    -11.448041     5A    -11.422936     6A    -11.421848
       7A    -11.376402     8A    -11.345906     9A    -11.341990
      10A    -11.333677    11A    -11.331563    12A    -11.330100
      13A    -11.324889    14A     -1.490336    15A     -1.406735
      16A     -1.251330    17A     -1.209771    18A     -1.149792
      19A     -1.136724    20A     -1.084855    21A     -1.062809
      22A     -1.033033    23A     -0.997077    24A     -0.934591
      25A     -0.923990    26A     -0.904298    27A     -0.867458
      28A     -0.820752    29A     -0.809387    30A     -0.805934
      31A     -0.792395    32A     -0.756728    33A     -0.742752
      34A     -0.724106    35A     -0.712747    36A     -0.710140
      37A     -0.684637    38A     -0.678979    39A     -0.676372
      40A     -0.669448    41A     -0.643013    42A     -0.630654
      43A     -0.602120    44A     -0.591866    45A     -0.582626
      46A     -0.522493    47A     -0.435686    48A     -0.425582

  @DF-RHF Final Energy:  -535.27841733097159

   => Energetics <=

    Nuclear Repulsion Energy =            820.3374957452062972
    One-Electron Energy =               -2338.8840493839511510
    Two-Electron Energy =                 983.2681363077732613
    Total Energy =                       -535.2784173309715925
  Basis Set: (AUG-CC-PVTZ AUX)
    Blend: AUG-CC-PVTZ-RI
    Molecular point group: c1

    Geometry (in Angstrom), charge = 1, multiplicity = 1:

       Center              X                  Y                   Z               Mass
    ------------   -----------------  -----------------  -----------------  -----------------
         N           -3.482753014892    -0.164444500063     0.158893167168    14.003074004430
         N           -0.684444014892     0.009418499937    -0.130141832832    14.003074004430
         C           -2.800770014892    -0.587684500063    -1.123067832832    12.000000000000
         C           -2.689511014892     0.870582499937     0.924571167168    12.000000000000
         C           -1.402806014892    -1.072816500063    -0.783604832832    12.000000000000
         C           -1.105308514892     0.260326899937     1.186609067168    12.000000000000
         C            0.746098985108    -0.167258500063    -0.041102832832    12.000000000000
         C            1.554961985108     0.966929499937    -0.237357832832    12.000000000000
         C            1.306862985108    -1.416530500063     0.248563167168    12.000000000000
         C            2.941468985108     0.802179499937    -0.135670832832    12.000000000000
         C            0.956671985108     2.312454499937    -0.550598832832    12.000000000000
         C            2.692846985108    -1.556613500063     0.327864167168    12.000000000000
         C            3.510689985108    -0.441817500063     0.141892167168    12.000000000000
         H           -2.764018014892     0.294366499937    -1.764689832832     1.007825032230
         H           -3.419548014892    -1.362729500063    -1.582707832832     1.007825032230
         H           -3.227188014892     1.075511499937     1.853896167168     1.007825032230
         H           -2.661964014892     1.766131499937     0.301138167168     1.007825032230
         H           -1.475697014892    -1.992708500063    -0.171943832832     1.007825032230
         H           -0.889136014892    -1.337240500063    -1.712211832832     1.007825032230
         H           -0.699536014892     1.108496499937     1.649062167168     1.007825032230
         H           -1.320900014892    -0.538634500063     1.840727167168     1.007825032230
         H           -4.427902014892     0.189773499937    -0.041590832832     1.007825032230
         H           -3.606829014892    -0.994605500063     0.756185167168     1.007825032230
         H            0.673072985108    -2.286444500063     0.407277167168     1.007825032230
         H            3.586912985108     1.664333499937    -0.290807832832     1.007825032230
         H            0.159775985108     2.222854499937    -1.293034832832     1.007825032230
         H            0.528916985108     2.787850499937     0.340279167168     1.007825032230
         H            1.722895985108     2.986972499937    -0.940034832832     1.007825032230
         H            3.128234985108    -2.528430500063     0.544630167168     1.007825032230
         H            4.591047985108    -0.541352500063     0.203280167168     1.007825032230

  Basis Set: AUG-CC-PVTZ
    Blend: AUG-CC-PVTZ
  Basis Set: (AUG-CC-PVTZ AUX)
    Blend: AUG-CC-PVTZ-JKFIT
	 Reference Energy          =    -535.2784173309715925 [Eh]
	 Singles Energy            =      -0.0000000000000000 [Eh]
	 Same-Spin Energy          =      -0.5858450280682931 [Eh]
	 Opposite-Spin Energy      =      -1.9192452509857614 [Eh]
	 Correlation Energy        =      -2.5050902790540546 [Eh]
	 Total Energy              =    -537.7835076100255947 [Eh]

	 ================> DF-SCS-MP2 Energies <==================
	-----------------------------------------------------------
	 SCS Same-Spin Scale       =       0.3333333333333333 [-]
	 SCS Opposite-Spin Scale   =       1.2000000000000000 [-]
	 SCS Same-Spin Energy      =      -0.1952816760227644 [Eh]
	 SCS Opposite-Spin Energy  =      -2.3030943011829135 [Eh]
	 SCS Correlation Energy    =      -2.4983759772056779 [Eh]
	 SCS Total Energy          =    -537.7767933081772753 [Eh]
	-----------------------------------------------------------

  Dipole Moment: [D]
     X:   -11.8480      Y:    -0.8640      Z:     0.6232     Total:    11.8958

*** Psi4 exiting successfully. Buy a developer a beer!
