                               Psi4 1.4a3.dev225

  ==> Input File <==

--------------------------------------------------------------------------
#psi4
#
memory 32 gb

molecule  {
1 1
  N       -3.4197460    -0.1817000     0.1602720
  N       -0.6214370    -0.0078370    -0.1287630
  C       -2.7377630    -0.6049400    -1.1216890
  C       -2.6265040     0.8533270     0.9259500
  C       -1.3397990    -1.0900720    -0.7822260
  C       -1.2267490     0.3141230     1.1574790
  C        0.7647238    -0.2047423    -0.0369255
  C        1.6179690     0.9496740    -0.2359790
  C        1.3698700    -1.4337860     0.2499420
  C        3.0044760     0.7849240    -0.1342920
  C        1.0196790     2.2951990    -0.5492200
  C        2.7558540    -1.5738690     0.3292430
  C        3.5736970    -0.4590730     0.1432710
  H       -2.7010110     0.2771110    -1.7633110
  H       -3.3565410    -1.3799850    -1.5813290
  H       -3.1641810     1.0582560     1.8552750
  H       -2.5989570     1.7488760     0.3025170
  H       -1.4126900    -2.0099640    -0.1705650
  H       -0.8261290    -1.3544960    -1.7108330
  H       -0.6365290     1.0912410     1.6504410
  H       -1.2578930    -0.5558900     1.8421060
  H       -4.3648950     0.1725180    -0.0402120
  H       -3.5438220    -1.0118610     0.7575640
  H        0.7360800    -2.3037000     0.4086560
  H        3.6499200     1.6470780    -0.2894290
  H        0.2227830     2.2055990    -1.2916560
  H        0.5919240     2.7705950     0.3416580
  H        1.7859030     2.9697170    -0.9386560
  H        3.1912420    -2.5456860     0.5460090
  H        4.6540550    -0.5586080     0.2046590
units angstrom
no_reorient  #important for SAPT in psi4, default
symmetry c1  #important for SAPT in psi4, default
}

set PROPERTIES_ORIGIN ["COM"]
properties('MP2/aug-cc-pvtz', properties = ['dipole'])
--------------------------------------------------------------------------

    Molecular point group: c1
  Charge       = 1
  Multiplicity = 1
  Basis Set: AUG-CC-PVTZ
    Blend: AUG-CC-PVTZ
  Basis Set: (AUG-CC-PVTZ AUX)
    Blend: AUG-CC-PVTZ-JKFIT

    Orbital Energies [Eh]
    ---------------------

    Doubly Occupied:

       1A    -15.867915     2A    -15.705381     3A    -11.458283
       4A    -11.458070     5A    -11.419458     6A    -11.419162
       7A    -11.375875     8A    -11.347021     9A    -11.339520
      10A    -11.330502    11A    -11.328846    12A    -11.327535
      13A    -11.322537    14A     -1.499170    15A     -1.400343
      16A     -1.244633    17A     -1.223675    18A     -1.158474
      19A     -1.141278    20A     -1.087622    21A     -1.056001
      22A     -1.029885    23A     -0.998716    24A     -0.936034
      25A     -0.924622    26A     -0.901093    27A     -0.868311
      28A     -0.825269    29A     -0.813710    30A     -0.795324
      31A     -0.792066    32A     -0.755282    33A     -0.744367
      34A     -0.736217    35A     -0.713958    36A     -0.704008
      37A     -0.689427    38A     -0.673735    39A     -0.668962
      40A     -0.662004    41A     -0.658380    42A     -0.639541
      43A     -0.600380    44A     -0.590290    45A     -0.583589
      46A     -0.523483    47A     -0.433590    48A     -0.417190

  @DF-RHF Final Energy:  -535.30532723803219

   => Energetics <=

    Nuclear Repulsion Energy =            820.4299209222793934
    One-Electron Energy =               -2339.0890319053391977
    Two-Electron Energy =                 983.3537837450274992
    Total Energy =                       -535.3053272380321914
  Basis Set: (AUG-CC-PVTZ AUX)
    Blend: AUG-CC-PVTZ-RI
    Molecular point group: c1

    Geometry (in Angstrom), charge = 1, multiplicity = 1:

       Center              X                  Y                   Z               Mass
    ------------   -----------------  -----------------  -----------------  -----------------
         N           -3.467251325768    -0.167887440367     0.160770362332    14.003074004430
         N           -0.668942325768     0.005975559633    -0.128264637668    14.003074004430
         C           -2.785268325768    -0.591127440367    -1.121190637668    12.000000000000
         C           -2.674009325768     0.867139559633     0.926448362332    12.000000000000
         C           -1.387304325768    -1.076259440367    -0.781727637668    12.000000000000
         C           -1.274254325768     0.327935559633     1.157977362332    12.000000000000
         C            0.717218474232    -0.190929740367    -0.036427137668    12.000000000000
         C            1.570463674232     0.963486559633    -0.235480637668    12.000000000000
         C            1.322364674232    -1.419973440367     0.250440362332    12.000000000000
         C            2.956970674232     0.798736559633    -0.133793637668    12.000000000000
         C            0.972173674232     2.309011559633    -0.548721637668    12.000000000000
         C            2.708348674232    -1.560056440367     0.329741362332    12.000000000000
         C            3.526191674232    -0.445260440367     0.143769362332    12.000000000000
         H           -2.748516325768     0.290923559633    -1.762812637668     1.007825032230
         H           -3.404046325768    -1.366172440367    -1.580830637668     1.007825032230
         H           -3.211686325768     1.072068559633     1.855773362332     1.007825032230
         H           -2.646462325768     1.762688559633     0.303015362332     1.007825032230
         H           -1.460195325768    -1.996151440367    -0.170066637668     1.007825032230
         H           -0.873634325768    -1.340683440367    -1.710334637668     1.007825032230
         H           -0.684034325768     1.105053559633     1.650939362332     1.007825032230
         H           -1.305398325768    -0.542077440367     1.842604362332     1.007825032230
         H           -4.412400325768     0.186330559633    -0.039713637668     1.007825032230
         H           -3.591327325768    -0.998048440367     0.758062362332     1.007825032230
         H            0.688574674232    -2.289887440367     0.409154362332     1.007825032230
         H            3.602414674232     1.660890559633    -0.288930637668     1.007825032230
         H            0.175277674232     2.219411559633    -1.291157637668     1.007825032230
         H            0.544418674232     2.784407559633     0.342156362332     1.007825032230
         H            1.738397674232     2.983529559633    -0.938157637668     1.007825032230
         H            3.143736674232    -2.531873440367     0.546507362332     1.007825032230
         H            4.606549674232    -0.544795440367     0.205157362332     1.007825032230

  Basis Set: AUG-CC-PVTZ
    Blend: AUG-CC-PVTZ
  Basis Set: (AUG-CC-PVTZ AUX)
    Blend: AUG-CC-PVTZ-JKFIT
	 Reference Energy          =    -535.3053272380321914 [Eh]
	 Singles Energy            =      -0.0000000000000000 [Eh]
	 Same-Spin Energy          =      -0.5857228958505722 [Eh]
	 Opposite-Spin Energy      =      -1.9177525059569054 [Eh]
	 Correlation Energy        =      -2.5034754018074779 [Eh]
	 Total Energy              =    -537.8088026398396551 [Eh]

	 ================> DF-SCS-MP2 Energies <==================
	-----------------------------------------------------------
	 SCS Same-Spin Scale       =       0.3333333333333333 [-]
	 SCS Opposite-Spin Scale   =       1.2000000000000000 [-]
	 SCS Same-Spin Energy      =      -0.1952409652835241 [Eh]
	 SCS Opposite-Spin Energy  =      -2.3013030071482863 [Eh]
	 SCS Correlation Energy    =      -2.4965439724318101 [Eh]
	 SCS Total Energy          =    -537.8018712104640144 [Eh]
	-----------------------------------------------------------

  Dipole Moment: [D]
     X:   -12.2772      Y:    -0.6858      Z:     0.7447     Total:    12.3188

*** Psi4 exiting successfully. Buy a developer a beer!
