                               Psi4 1.4a3.dev225

  ==> Input File <==

--------------------------------------------------------------------------
#psi4
#
memory 32 gb

molecule  {
1 1
  N       -3.4197460    -0.1817000     0.1602720
  N       -0.6214370    -0.0078370    -0.1287630
  C       -2.7377630    -0.6049400    -1.1216890
  C       -2.6265040     0.8533270     0.9259500
  C       -1.3892029    -1.1645005    -0.8271666
  C       -1.2267490     0.3141230     1.1574790
  C        0.8091060    -0.1845140    -0.0397240
  C        1.6179690     0.9496740    -0.2359790
  C        1.3698700    -1.4337860     0.2499420
  C        3.0044760     0.7849240    -0.1342920
  C        1.0196790     2.2951990    -0.5492200
  C        2.7558540    -1.5738690     0.3292430
  C        3.5736970    -0.4590730     0.1432710
  H       -2.7010110     0.2771110    -1.7633110
  H       -3.3565410    -1.3799850    -1.5813290
  H       -3.1641810     1.0582560     1.8552750
  H       -2.5989570     1.7488760     0.3025170
  H       -1.4126900    -2.0099640    -0.1705650
  H       -0.8261290    -1.3544960    -1.7108330
  H       -0.6365290     1.0912410     1.6504410
  H       -1.2578930    -0.5558900     1.8421060
  H       -4.3648950     0.1725180    -0.0402120
  H       -3.5438220    -1.0118610     0.7575640
  H        0.7360800    -2.3037000     0.4086560
  H        3.6499200     1.6470780    -0.2894290
  H        0.2227830     2.2055990    -1.2916560
  H        0.5919240     2.7705950     0.3416580
  H        1.7859030     2.9697170    -0.9386560
  H        3.1912420    -2.5456860     0.5460090
  H        4.6540550    -0.5586080     0.2046590
units angstrom
no_reorient  #important for SAPT in psi4, default
symmetry c1  #important for SAPT in psi4, default
}

set PROPERTIES_ORIGIN ["COM"]
properties('MP2/aug-cc-pvtz', properties = ['dipole'])
--------------------------------------------------------------------------

    Molecular point group: c1
  Charge       = 1
  Multiplicity = 1
  Basis Set: AUG-CC-PVTZ
    Blend: AUG-CC-PVTZ
  Basis Set: (AUG-CC-PVTZ AUX)
    Blend: AUG-CC-PVTZ-JKFIT

    Orbital Energies [Eh]
    ---------------------

    Doubly Occupied:

       1A    -15.868863     2A    -15.701545     3A    -11.458771
       4A    -11.456204     5A    -11.417409     6A    -11.415360
       7A    -11.373355     8A    -11.342677     9A    -11.338723
      10A    -11.330744    11A    -11.328707    12A    -11.327257
      13A    -11.322142    14A     -1.498333    15A     -1.372529
      16A     -1.247415    17A     -1.226299    18A     -1.156224
      19A     -1.141647    20A     -1.085776    21A     -1.051327
      22A     -1.030397    23A     -0.997683    24A     -0.936893
      25A     -0.923609    26A     -0.900961    27A     -0.867991
      28A     -0.828219    29A     -0.807228    30A     -0.791392
      31A     -0.781139    32A     -0.752704    33A     -0.745136
      34A     -0.735583    35A     -0.720291    36A     -0.705061
      37A     -0.691585    38A     -0.676100    39A     -0.670479
      40A     -0.662720    41A     -0.645976    42A     -0.639428
      43A     -0.598070    44A     -0.589711    45A     -0.584946
      46A     -0.518951    47A     -0.432086    48A     -0.421660

  @DF-RHF Final Energy:  -535.30033103399239

   => Energetics <=

    Nuclear Repulsion Energy =            818.4447096256421901
    One-Electron Energy =               -2335.2554727372089474
    Two-Electron Energy =                 981.5104320775743645
    Total Energy =                       -535.3003310339923928
  Basis Set: (AUG-CC-PVTZ AUX)
    Blend: AUG-CC-PVTZ-RI
    Molecular point group: c1

    Geometry (in Angstrom), charge = 1, multiplicity = 1:

       Center              X                  Y                   Z               Mass
    ------------   -----------------  -----------------  -----------------  -----------------
         N           -3.466911139017    -0.164215737564     0.164004368614    14.003074004430
         N           -0.668602139017     0.009647262436    -0.125030631386    14.003074004430
         C           -2.784928139017    -0.587455737564    -1.117956631386    12.000000000000
         C           -2.673669139017     0.870811262436     0.929682368614    12.000000000000
         C           -1.436368039017    -1.147016237564    -0.823434231386    12.000000000000
         C           -1.273914139017     0.331607262436     1.161211368614    12.000000000000
         C            0.761940860983    -0.167029737564    -0.035991631386    12.000000000000
         C            1.570803860983     0.967158262436    -0.232246631386    12.000000000000
         C            1.322704860983    -1.416301737564     0.253674368614    12.000000000000
         C            2.957310860983     0.802408262436    -0.130559631386    12.000000000000
         C            0.972513860983     2.312683262436    -0.545487631386    12.000000000000
         C            2.708688860983    -1.556384737564     0.332975368614    12.000000000000
         C            3.526531860983    -0.441588737564     0.147003368614    12.000000000000
         H           -2.748176139017     0.294595262436    -1.759578631386     1.007825032230
         H           -3.403706139017    -1.362500737564    -1.577596631386     1.007825032230
         H           -3.211346139017     1.075740262436     1.859007368614     1.007825032230
         H           -2.646122139017     1.766360262436     0.306249368614     1.007825032230
         H           -1.459855139017    -1.992479737564    -0.166832631386     1.007825032230
         H           -0.873294139017    -1.337011737564    -1.707100631386     1.007825032230
         H           -0.683694139017     1.108725262436     1.654173368614     1.007825032230
         H           -1.305058139017    -0.538405737564     1.845838368614     1.007825032230
         H           -4.412060139017     0.190002262436    -0.036479631386     1.007825032230
         H           -3.590987139017    -0.994376737564     0.761296368614     1.007825032230
         H            0.688914860983    -2.286215737564     0.412388368614     1.007825032230
         H            3.602754860983     1.664562262436    -0.285696631386     1.007825032230
         H            0.175617860983     2.223083262436    -1.287923631386     1.007825032230
         H            0.544758860983     2.788079262436     0.345390368614     1.007825032230
         H            1.738737860983     2.987201262436    -0.934923631386     1.007825032230
         H            3.144076860983    -2.528201737564     0.549741368614     1.007825032230
         H            4.606889860983    -0.541123737564     0.208391368614     1.007825032230

  Basis Set: AUG-CC-PVTZ
    Blend: AUG-CC-PVTZ
  Basis Set: (AUG-CC-PVTZ AUX)
    Blend: AUG-CC-PVTZ-JKFIT
	 Reference Energy          =    -535.3003310339923928 [Eh]
	 Singles Energy            =      -0.0000000000000000 [Eh]
	 Same-Spin Energy          =      -0.5852303028598123 [Eh]
	 Opposite-Spin Energy      =      -1.9179400663493289 [Eh]
	 Correlation Energy        =      -2.5031703692091414 [Eh]
	 Total Energy              =    -537.8035014032014942 [Eh]

	 ================> DF-SCS-MP2 Energies <==================
	-----------------------------------------------------------
	 SCS Same-Spin Scale       =       0.3333333333333333 [-]
	 SCS Opposite-Spin Scale   =       1.2000000000000000 [-]
	 SCS Same-Spin Energy      =      -0.1950767676199374 [Eh]
	 SCS Opposite-Spin Energy  =      -2.3015280796191946 [Eh]
	 SCS Correlation Energy    =      -2.4966048472391318 [Eh]
	 SCS Total Energy          =    -537.7969358812315477 [Eh]
	-----------------------------------------------------------

  Dipole Moment: [D]
     X:   -12.2619      Y:    -0.8071      Z:     0.6887     Total:    12.3077

*** Psi4 exiting successfully. Buy a developer a beer!
