                               Psi4 1.4a3.dev225

  ==> Input File <==

--------------------------------------------------------------------------
#psi4
#
memory 32 gb

molecule  {
1 1
  N       -3.4197460    -0.1817000     0.1602720
  N       -0.6214370    -0.0078370    -0.1287630
  C       -2.7377630    -0.6049400    -1.1216890
  C       -2.6265040     0.8533270     0.9259500
  C       -1.3397990    -1.0900720    -0.7822260
  C       -1.2369636     0.2945321     1.1720933
  C        0.8091060    -0.1845140    -0.0397240
  C        1.6179690     0.9496740    -0.2359790
  C        1.3698700    -1.4337860     0.2499420
  C        3.0044760     0.7849240    -0.1342920
  C        1.0196790     2.2951990    -0.5492200
  C        2.7558540    -1.5738690     0.3292430
  C        3.5736970    -0.4590730     0.1432710
  H       -2.7010110     0.2771110    -1.7633110
  H       -3.3565410    -1.3799850    -1.5813290
  H       -3.1641810     1.0582560     1.8552750
  H       -2.5989570     1.7488760     0.3025170
  H       -1.4126900    -2.0099640    -0.1705650
  H       -0.8261290    -1.3544960    -1.7108330
  H       -0.6365290     1.0912410     1.6504410
  H       -1.2578930    -0.5558900     1.8421060
  H       -4.3648950     0.1725180    -0.0402120
  H       -3.5438220    -1.0118610     0.7575640
  H        0.7360800    -2.3037000     0.4086560
  H        3.6499200     1.6470780    -0.2894290
  H        0.2227830     2.2055990    -1.2916560
  H        0.5919240     2.7705950     0.3416580
  H        1.7859030     2.9697170    -0.9386560
  H        3.1912420    -2.5456860     0.5460090
  H        4.6540550    -0.5586080     0.2046590
units angstrom
no_reorient  #important for SAPT in psi4, default
symmetry c1  #important for SAPT in psi4, default
}

set PROPERTIES_ORIGIN ["COM"]
properties('MP2/aug-cc-pvtz', properties = ['dipole'])
--------------------------------------------------------------------------

    Molecular point group: c1
  Charge       = 1
  Multiplicity = 1
  Basis Set: AUG-CC-PVTZ
    Blend: AUG-CC-PVTZ
  Basis Set: (AUG-CC-PVTZ AUX)
    Blend: AUG-CC-PVTZ-JKFIT

    Orbital Energies [Eh]
    ---------------------

    Doubly Occupied:

       1A    -15.866335     2A    -15.703036     3A    -11.457144
       4A    -11.456521     5A    -11.416908     6A    -11.416629
       7A    -11.374841     8A    -11.344233     9A    -11.340048
      10A    -11.331708    11A    -11.329772    12A    -11.328518
      13A    -11.323337    14A     -1.497399    15A     -1.387835
      16A     -1.249642    17A     -1.221622    18A     -1.155468
      19A     -1.142431    20A     -1.087587    21A     -1.052542
      22A     -1.031792    23A     -0.997263    24A     -0.935544
      25A     -0.923605    26A     -0.903044    27A     -0.867960
      28A     -0.824872    29A     -0.810169    30A     -0.792226
      31A     -0.786311    32A     -0.754232    33A     -0.744648
      34A     -0.733735    35A     -0.714940    36A     -0.705579
      37A     -0.691119    38A     -0.674889    39A     -0.669184
      40A     -0.656577    41A     -0.654853    42A     -0.640133
      43A     -0.600227    44A     -0.591452    45A     -0.587692
      46A     -0.522648    47A     -0.433454    48A     -0.423400

  @DF-RHF Final Energy:  -535.30797430051769

   => Energetics <=

    Nuclear Repulsion Energy =            820.0567026603654313
    One-Electron Energy =               -2338.4191432738066396
    Two-Electron Energy =                 983.0544663129236369
    Total Energy =                       -535.3079743005176852
  Basis Set: (AUG-CC-PVTZ AUX)
    Blend: AUG-CC-PVTZ-RI
    Molecular point group: c1

    Geometry (in Angstrom), charge = 1, multiplicity = 1:

       Center              X                  Y                   Z               Mass
    ------------   -----------------  -----------------  -----------------  -----------------
         N           -3.469565953255    -0.167930619974     0.159969920526    14.003074004430
         N           -0.671256953255     0.005932380026    -0.129065079474    14.003074004430
         C           -2.787582953255    -0.591170619974    -1.121991079474    12.000000000000
         C           -2.676323953255     0.867096380026     0.925647920526    12.000000000000
         C           -1.389618953255    -1.076302619974    -0.782528079474    12.000000000000
         C           -1.286783553255     0.308301480026     1.171791220526    12.000000000000
         C            0.759286046745    -0.170744619974    -0.040026079474    12.000000000000
         C            1.568149046745     0.963443380026    -0.236281079474    12.000000000000
         C            1.320050046745    -1.420016619974     0.249639920526    12.000000000000
         C            2.954656046745     0.798693380026    -0.134594079474    12.000000000000
         C            0.969859046745     2.308968380026    -0.549522079474    12.000000000000
         C            2.706034046745    -1.560099619974     0.328940920526    12.000000000000
         C            3.523877046745    -0.445303619974     0.142968920526    12.000000000000
         H           -2.750830953255     0.290880380026    -1.763613079474     1.007825032230
         H           -3.406360953255    -1.366215619974    -1.581631079474     1.007825032230
         H           -3.214000953255     1.072025380026     1.854972920526     1.007825032230
         H           -2.648776953255     1.762645380026     0.302214920526     1.007825032230
         H           -1.462509953255    -1.996194619974    -0.170867079474     1.007825032230
         H           -0.875948953255    -1.340726619974    -1.711135079474     1.007825032230
         H           -0.686348953255     1.105010380026     1.650138920526     1.007825032230
         H           -1.307712953255    -0.542120619974     1.841803920526     1.007825032230
         H           -4.414714953255     0.186287380026    -0.040514079474     1.007825032230
         H           -3.593641953255    -0.998091619974     0.757261920526     1.007825032230
         H            0.686260046745    -2.289930619974     0.408353920526     1.007825032230
         H            3.600100046745     1.660847380026    -0.289731079474     1.007825032230
         H            0.172963046745     2.219368380026    -1.291958079474     1.007825032230
         H            0.542104046745     2.784364380026     0.341355920526     1.007825032230
         H            1.736083046745     2.983486380026    -0.938958079474     1.007825032230
         H            3.141422046745    -2.531916619974     0.545706920526     1.007825032230
         H            4.604235046745    -0.544838619974     0.204356920526     1.007825032230

  Basis Set: AUG-CC-PVTZ
    Blend: AUG-CC-PVTZ
  Basis Set: (AUG-CC-PVTZ AUX)
    Blend: AUG-CC-PVTZ-JKFIT
	 Reference Energy          =    -535.3079743005176852 [Eh]
	 Singles Energy            =      -0.0000000000000000 [Eh]
	 Same-Spin Energy          =      -0.5852588384369702 [Eh]
	 Opposite-Spin Energy      =      -1.9172652291038474 [Eh]
	 Correlation Energy        =      -2.5025240675408176 [Eh]
	 Total Energy              =    -537.8104983680584610 [Eh]

	 ================> DF-SCS-MP2 Energies <==================
	-----------------------------------------------------------
	 SCS Same-Spin Scale       =       0.3333333333333333 [-]
	 SCS Opposite-Spin Scale   =       1.2000000000000000 [-]
	 SCS Same-Spin Energy      =      -0.1950862794789901 [Eh]
	 SCS Opposite-Spin Energy  =      -2.3007182749246167 [Eh]
	 SCS Correlation Energy    =      -2.4958045544036067 [Eh]
	 SCS Total Energy          =    -537.8037788549213474 [Eh]
	-----------------------------------------------------------

  Dipole Moment: [D]
     X:   -12.1167      Y:    -0.6965      Z:     0.7681     Total:    12.1610

*** Psi4 exiting successfully. Buy a developer a beer!
