                               Psi4 1.4a3.dev225

  ==> Input File <==

--------------------------------------------------------------------------
#psi4
#
memory 32 gb

molecule  {
1 1
  N       -3.4197460    -0.1817000     0.1602720
  N       -0.6214370    -0.0078370    -0.1287630
  C       -2.7377630    -0.6049400    -1.1216890
  C       -2.6265040     0.8533270     0.9259500
  C       -1.3397990    -1.0900720    -0.7822260
  C       -1.2267490     0.3141230     1.1574790
  C        0.8091060    -0.1845140    -0.0397240
  C        1.6179690     0.9496740    -0.2359790
  C        1.3698700    -1.4337860     0.2499420
  C        2.9054369     0.7966922    -0.1415556
  C        1.0196790     2.2951990    -0.5492200
  C        2.7558540    -1.5738690     0.3292430
  C        3.5736970    -0.4590730     0.1432710
  H       -2.7010110     0.2771110    -1.7633110
  H       -3.3565410    -1.3799850    -1.5813290
  H       -3.1641810     1.0582560     1.8552750
  H       -2.5989570     1.7488760     0.3025170
  H       -1.4126900    -2.0099640    -0.1705650
  H       -0.8261290    -1.3544960    -1.7108330
  H       -0.6365290     1.0912410     1.6504410
  H       -1.2578930    -0.5558900     1.8421060
  H       -4.3648950     0.1725180    -0.0402120
  H       -3.5438220    -1.0118610     0.7575640
  H        0.7360800    -2.3037000     0.4086560
  H        3.6499200     1.6470780    -0.2894290
  H        0.2227830     2.2055990    -1.2916560
  H        0.5919240     2.7705950     0.3416580
  H        1.7859030     2.9697170    -0.9386560
  H        3.1912420    -2.5456860     0.5460090
  H        4.6540550    -0.5586080     0.2046590
units angstrom
no_reorient  #important for SAPT in psi4, default
symmetry c1  #important for SAPT in psi4, default
}

set PROPERTIES_ORIGIN ["COM"]
properties('MP2/aug-cc-pvtz', properties = ['dipole'])
--------------------------------------------------------------------------

    Molecular point group: c1
  Charge       = 1
  Multiplicity = 1
  Basis Set: AUG-CC-PVTZ
    Blend: AUG-CC-PVTZ
  Basis Set: (AUG-CC-PVTZ AUX)
    Blend: AUG-CC-PVTZ-JKFIT

    Orbital Energies [Eh]
    ---------------------

    Doubly Occupied:

       1A    -15.866753     2A    -15.703408     3A    -11.456936
       4A    -11.456863     5A    -11.417698     6A    -11.417644
       7A    -11.376767     8A    -11.340381     9A    -11.334834
      10A    -11.331727    11A    -11.330687    12A    -11.326705
      13A    -11.322183    14A     -1.497670    15A     -1.390822
      16A     -1.257480    17A     -1.222029    18A     -1.155072
      19A     -1.149716    20A     -1.081320    21A     -1.053812
      22A     -1.034345    23A     -0.998166    24A     -0.937100
      25A     -0.926236    26A     -0.900364    27A     -0.868519
      28A     -0.823851    29A     -0.810460    30A     -0.792669
      31A     -0.788809    32A     -0.755570    33A     -0.746644
      34A     -0.734975    35A     -0.710200    36A     -0.701749
      37A     -0.687549    38A     -0.676648    39A     -0.672522
      40A     -0.660571    41A     -0.655988    42A     -0.637407
      43A     -0.606361    44A     -0.591813    45A     -0.576854
      46A     -0.520284    47A     -0.442365    48A     -0.421439

  @DF-RHF Final Energy:  -535.29542467857527

   => Energetics <=

    Nuclear Repulsion Energy =            821.9415007464972405
    One-Electron Energy =               -2342.1339247142150271
    Two-Electron Energy =                 984.8969992891425136
    Total Energy =                       -535.2954246785752730
  Basis Set: (AUG-CC-PVTZ AUX)
    Blend: AUG-CC-PVTZ-RI
    Molecular point group: c1

    Geometry (in Angstrom), charge = 1, multiplicity = 1:

       Center              X                  Y                   Z               Mass
    ------------   -----------------  -----------------  -----------------  -----------------
         N           -3.463548684581    -0.170054990278     0.161452002636    14.003074004430
         N           -0.665239684581     0.003808009722    -0.127582997364    14.003074004430
         C           -2.781565684581    -0.593294990278    -1.120508997364    12.000000000000
         C           -2.670306684581     0.864972009722     0.927130002636    12.000000000000
         C           -1.383601684581    -1.078426990278    -0.781045997364    12.000000000000
         C           -1.270551684581     0.325768009722     1.158659002636    12.000000000000
         C            0.765303315419    -0.172868990278    -0.038543997364    12.000000000000
         C            1.574166315419     0.961319009722    -0.234798997364    12.000000000000
         C            1.326067315419    -1.422140990278     0.251122002636    12.000000000000
         C            2.861634215419     0.808337209722    -0.140375597364    12.000000000000
         C            0.975876315419     2.306844009722    -0.548039997364    12.000000000000
         C            2.712051315419    -1.562223990278     0.330423002636    12.000000000000
         C            3.529894315419    -0.447427990278     0.144451002636    12.000000000000
         H           -2.744813684581     0.288756009722    -1.762130997364     1.007825032230
         H           -3.400343684581    -1.368339990278    -1.580148997364     1.007825032230
         H           -3.207983684581     1.069901009722     1.856455002636     1.007825032230
         H           -2.642759684581     1.760521009722     0.303697002636     1.007825032230
         H           -1.456492684581    -1.998318990278    -0.169384997364     1.007825032230
         H           -0.869931684581    -1.342850990278    -1.709652997364     1.007825032230
         H           -0.680331684581     1.102886009722     1.651621002636     1.007825032230
         H           -1.301695684581    -0.544244990278     1.843286002636     1.007825032230
         H           -4.408697684581     0.184163009722    -0.039031997364     1.007825032230
         H           -3.587624684581    -1.000215990278     0.758744002636     1.007825032230
         H            0.692277315419    -2.292054990278     0.409836002636     1.007825032230
         H            3.606117315419     1.658723009722    -0.288248997364     1.007825032230
         H            0.178980315419     2.217244009722    -1.290475997364     1.007825032230
         H            0.548121315419     2.782240009722     0.342838002636     1.007825032230
         H            1.742100315419     2.981362009722    -0.937475997364     1.007825032230
         H            3.147439315419    -2.534040990278     0.547189002636     1.007825032230
         H            4.610252315419    -0.546962990278     0.205839002636     1.007825032230

  Basis Set: AUG-CC-PVTZ
    Blend: AUG-CC-PVTZ
  Basis Set: (AUG-CC-PVTZ AUX)
    Blend: AUG-CC-PVTZ-JKFIT
	 Reference Energy          =    -535.2954246785752730 [Eh]
	 Singles Energy            =      -0.0000000000000000 [Eh]
	 Same-Spin Energy          =      -0.5851635882227142 [Eh]
	 Opposite-Spin Energy      =      -1.9176330368604773 [Eh]
	 Correlation Energy        =      -2.5027966250831915 [Eh]
	 Total Energy              =    -537.7982213036584653 [Eh]

	 ================> DF-SCS-MP2 Energies <==================
	-----------------------------------------------------------
	 SCS Same-Spin Scale       =       0.3333333333333333 [-]
	 SCS Opposite-Spin Scale   =       1.2000000000000000 [-]
	 SCS Same-Spin Energy      =      -0.1950545294075714 [Eh]
	 SCS Opposite-Spin Energy  =      -2.3011596442325728 [Eh]
	 SCS Correlation Energy    =      -2.4962141736401442 [Eh]
	 SCS Total Energy          =    -537.7916388522154421 [Eh]
	-----------------------------------------------------------

  Dipole Moment: [D]
     X:   -12.0719      Y:    -0.7577      Z:     0.7492     Total:    12.1189

*** Psi4 exiting successfully. Buy a developer a beer!
