                               Psi4 1.4a3.dev225

  ==> Input File <==

--------------------------------------------------------------------------
#psi4
#
memory 32 gb

molecule  {
1 1
  N       -3.4197460    -0.1817000     0.1602720
  N       -0.6214370    -0.0078370    -0.1287630
  C       -2.7377630    -0.6049400    -1.1216890
  C       -2.6265040     0.8533270     0.9259500
  C       -1.3397990    -1.0900720    -0.7822260
  C       -1.2267490     0.3141230     1.1574790
  C        0.8091060    -0.1845140    -0.0397240
  C        1.6179690     0.9496740    -0.2359790
  C        1.3838866    -1.3390829     0.2320599
  C        3.0044760     0.7849240    -0.1342920
  C        1.0196790     2.2951990    -0.5492200
  C        2.7558540    -1.5738690     0.3292430
  C        3.5736970    -0.4590730     0.1432710
  H       -2.7010110     0.2771110    -1.7633110
  H       -3.3565410    -1.3799850    -1.5813290
  H       -3.1641810     1.0582560     1.8552750
  H       -2.5989570     1.7488760     0.3025170
  H       -1.4126900    -2.0099640    -0.1705650
  H       -0.8261290    -1.3544960    -1.7108330
  H       -0.6365290     1.0912410     1.6504410
  H       -1.2578930    -0.5558900     1.8421060
  H       -4.3648950     0.1725180    -0.0402120
  H       -3.5438220    -1.0118610     0.7575640
  H        0.7360800    -2.3037000     0.4086560
  H        3.6499200     1.6470780    -0.2894290
  H        0.2227830     2.2055990    -1.2916560
  H        0.5919240     2.7705950     0.3416580
  H        1.7859030     2.9697170    -0.9386560
  H        3.1912420    -2.5456860     0.5460090
  H        4.6540550    -0.5586080     0.2046590
units angstrom
no_reorient  #important for SAPT in psi4, default
symmetry c1  #important for SAPT in psi4, default
}

set PROPERTIES_ORIGIN ["COM"]
properties('MP2/aug-cc-pvtz', properties = ['dipole'])
--------------------------------------------------------------------------

    Molecular point group: c1
  Charge       = 1
  Multiplicity = 1
  Basis Set: AUG-CC-PVTZ
    Blend: AUG-CC-PVTZ
  Basis Set: (AUG-CC-PVTZ AUX)
    Blend: AUG-CC-PVTZ-JKFIT

    Orbital Energies [Eh]
    ---------------------

    Doubly Occupied:

       1A    -15.866697     2A    -15.703993     3A    -11.457100
       4A    -11.456741     5A    -11.417693     6A    -11.417200
       7A    -11.366317     8A    -11.344292     9A    -11.339001
      10A    -11.331101    11A    -11.329190    12A    -11.327119
      13A    -11.323167    14A     -1.497635    15A     -1.392020
      16A     -1.258324    17A     -1.221965    18A     -1.156947
      19A     -1.143276    20A     -1.093222    21A     -1.053629
      22A     -1.033678    23A     -0.996687    24A     -0.933426
      25A     -0.921321    26A     -0.907040    27A     -0.868765
      28A     -0.823777    29A     -0.813930    30A     -0.793134
      31A     -0.789166    32A     -0.752630    33A     -0.744732
      34A     -0.735578    35A     -0.715162    36A     -0.699851
      37A     -0.687978    38A     -0.675665    39A     -0.665611
      40A     -0.659988    41A     -0.655726    42A     -0.640257
      43A     -0.602958    44A     -0.595489    45A     -0.576174
      46A     -0.524725    47A     -0.441586    48A     -0.421796

  @DF-RHF Final Energy:  -535.29761151620824

   => Energetics <=

    Nuclear Repulsion Energy =            822.0928355809403456
    One-Electron Energy =               -2342.4339772878624899
    Two-Electron Energy =                 985.0435301907139092
    Total Energy =                       -535.2976115162082351
  Basis Set: (AUG-CC-PVTZ AUX)
    Blend: AUG-CC-PVTZ-RI
    Molecular point group: c1

    Geometry (in Angstrom), charge = 1, multiplicity = 1:

       Center              X                  Y                   Z               Mass
    ------------   -----------------  -----------------  -----------------  -----------------
         N           -3.471207455776    -0.175673277753     0.162171335336    14.003074004430
         N           -0.672898455776    -0.001810277753    -0.126863664664    14.003074004430
         C           -2.789224455776    -0.598913277753    -1.119789664664    12.000000000000
         C           -2.677965455776     0.859353722247     0.927849335336    12.000000000000
         C           -1.391260455776    -1.084045277753    -0.780326664664    12.000000000000
         C           -1.278210455776     0.320149722247     1.159378335336    12.000000000000
         C            0.757644544224    -0.178487277753    -0.037824664664    12.000000000000
         C            1.566507544224     0.955700722247    -0.234079664664    12.000000000000
         C            1.332425144224    -1.333056177753     0.233959235336    12.000000000000
         C            2.953014544224     0.790950722247    -0.132392664664    12.000000000000
         C            0.968217544224     2.301225722247    -0.547320664664    12.000000000000
         C            2.704392544224    -1.567842277753     0.331142335336    12.000000000000
         C            3.522235544224    -0.453046277753     0.145170335336    12.000000000000
         H           -2.752472455776     0.283137722247    -1.761411664664     1.007825032230
         H           -3.408002455776    -1.373958277753    -1.579429664664     1.007825032230
         H           -3.215642455776     1.064282722247     1.857174335336     1.007825032230
         H           -2.650418455776     1.754902722247     0.304416335336     1.007825032230
         H           -1.464151455776    -2.003937277753    -0.168665664664     1.007825032230
         H           -0.877590455776    -1.348469277753    -1.708933664664     1.007825032230
         H           -0.687990455776     1.097267722247     1.652340335336     1.007825032230
         H           -1.309354455776    -0.549863277753     1.844005335336     1.007825032230
         H           -4.416356455776     0.178544722247    -0.038312664664     1.007825032230
         H           -3.595283455776    -1.005834277753     0.759463335336     1.007825032230
         H            0.684618544224    -2.297673277753     0.410555335336     1.007825032230
         H            3.598458544224     1.653104722247    -0.287529664664     1.007825032230
         H            0.171321544224     2.211625722247    -1.289756664664     1.007825032230
         H            0.540462544224     2.776621722247     0.343557335336     1.007825032230
         H            1.734441544224     2.975743722247    -0.936756664664     1.007825032230
         H            3.139780544224    -2.539659277753     0.547908335336     1.007825032230
         H            4.602593544224    -0.552581277753     0.206558335336     1.007825032230

  Basis Set: AUG-CC-PVTZ
    Blend: AUG-CC-PVTZ
  Basis Set: (AUG-CC-PVTZ AUX)
    Blend: AUG-CC-PVTZ-JKFIT
	 Reference Energy          =    -535.2976115162082351 [Eh]
	 Singles Energy            =      -0.0000000000000000 [Eh]
	 Same-Spin Energy          =      -0.5853483667896198 [Eh]
	 Opposite-Spin Energy      =      -1.9171660101441192 [Eh]
	 Correlation Energy        =      -2.5025143769337390 [Eh]
	 Total Energy              =    -537.8001258931419670 [Eh]

	 ================> DF-SCS-MP2 Energies <==================
	-----------------------------------------------------------
	 SCS Same-Spin Scale       =       0.3333333333333333 [-]
	 SCS Opposite-Spin Scale   =       1.2000000000000000 [-]
	 SCS Same-Spin Energy      =      -0.1951161222632066 [Eh]
	 SCS Opposite-Spin Energy  =      -2.3005992121729428 [Eh]
	 SCS Correlation Energy    =      -2.4957153344361496 [Eh]
	 SCS Total Energy          =    -537.7933268506443483 [Eh]
	-----------------------------------------------------------

  Dipole Moment: [D]
     X:   -12.0866      Y:    -0.7307      Z:     0.7493     Total:    12.1318

*** Psi4 exiting successfully. Buy a developer a beer!
