                               Psi4 1.4a3.dev225

  ==> Input File <==

--------------------------------------------------------------------------
#psi4
#
memory 32 gb

molecule  {
1 1
  N       -3.4197460    -0.1817000     0.1602720
  N       -0.6214370    -0.0078370    -0.1287630
  C       -2.7377630    -0.6049400    -1.1216890
  C       -2.6265040     0.8533270     0.9259500
  C       -1.3397990    -1.0900720    -0.7822260
  C       -1.2267490     0.3141230     1.1574790
  C        0.8091060    -0.1845140    -0.0397240
  C        1.6179690     0.9496740    -0.2359790
  C        1.3698700    -1.4337860     0.2499420
  C        3.0044760     0.7849240    -0.1342920
  C        1.0196790     2.2951990    -0.5492200
  C        2.6565217    -1.5638294     0.3235596
  C        3.5736970    -0.4590730     0.1432710
  H       -2.7010110     0.2771110    -1.7633110
  H       -3.3565410    -1.3799850    -1.5813290
  H       -3.1641810     1.0582560     1.8552750
  H       -2.5989570     1.7488760     0.3025170
  H       -1.4126900    -2.0099640    -0.1705650
  H       -0.8261290    -1.3544960    -1.7108330
  H       -0.6365290     1.0912410     1.6504410
  H       -1.2578930    -0.5558900     1.8421060
  H       -4.3648950     0.1725180    -0.0402120
  H       -3.5438220    -1.0118610     0.7575640
  H        0.7360800    -2.3037000     0.4086560
  H        3.6499200     1.6470780    -0.2894290
  H        0.2227830     2.2055990    -1.2916560
  H        0.5919240     2.7705950     0.3416580
  H        1.7859030     2.9697170    -0.9386560
  H        3.1912420    -2.5456860     0.5460090
  H        4.6540550    -0.5586080     0.2046590
units angstrom
no_reorient  #important for SAPT in psi4, default
symmetry c1  #important for SAPT in psi4, default
}

set PROPERTIES_ORIGIN ["COM"]
properties('MP2/aug-cc-pvtz', properties = ['dipole'])
--------------------------------------------------------------------------

    Molecular point group: c1
  Charge       = 1
  Multiplicity = 1
  Basis Set: AUG-CC-PVTZ
    Blend: AUG-CC-PVTZ
  Basis Set: (AUG-CC-PVTZ AUX)
    Blend: AUG-CC-PVTZ-JKFIT

    Orbital Energies [Eh]
    ---------------------

    Doubly Occupied:

       1A    -15.866585     2A    -15.702673     3A    -11.456833
       4A    -11.456667     5A    -11.417525     6A    -11.417014
       7A    -11.373691     8A    -11.344300     9A    -11.334653
      10A    -11.330006    11A    -11.328709    12A    -11.327571
      13A    -11.323563    14A     -1.497473    15A     -1.390103
      16A     -1.255608    17A     -1.221796    18A     -1.156935
      19A     -1.148100    20A     -1.089618    21A     -1.053441
      22A     -1.031749    23A     -0.994169    24A     -0.934453
      25A     -0.924938    26A     -0.901388    27A     -0.868910
      28A     -0.823683    29A     -0.808219    30A     -0.793875
      31A     -0.788222    32A     -0.757415    33A     -0.747303
      34A     -0.734690    35A     -0.712556    36A     -0.700671
      37A     -0.687674    38A     -0.678096    39A     -0.673185
      40A     -0.660040    41A     -0.650879    42A     -0.640686
      43A     -0.601206    44A     -0.595300    45A     -0.579808
      46A     -0.519516    47A     -0.444521    48A     -0.417534

  @DF-RHF Final Energy:  -535.29510274619952

   => Energetics <=

    Nuclear Repulsion Energy =            821.8122404545168820
    One-Electron Energy =               -2341.8875892841629138
    Two-Electron Energy =                 984.7802460834464000
    Total Energy =                       -535.2951027461995182
  Basis Set: (AUG-CC-PVTZ AUX)
    Blend: AUG-CC-PVTZ-RI
    Molecular point group: c1

    Geometry (in Angstrom), charge = 1, multiplicity = 1:

       Center              X                  Y                   Z               Mass
    ------------   -----------------  -----------------  -----------------  -----------------
         N           -3.463528822232    -0.169937889133     0.161344954603    14.003074004430
         N           -0.665219822232     0.003925110867    -0.127690045397    14.003074004430
         C           -2.781545822232    -0.593177889133    -1.120616045397    12.000000000000
         C           -2.670286822232     0.865089110867     0.927022954603    12.000000000000
         C           -1.383581822232    -1.078309889133    -0.781153045397    12.000000000000
         C           -1.270531822232     0.325885110867     1.158551954603    12.000000000000
         C            0.765323177768    -0.172751889133    -0.038651045397    12.000000000000
         C            1.574186177768     0.961436110867    -0.234906045397    12.000000000000
         C            1.326087177768    -1.422023889133     0.251014954603    12.000000000000
         C            2.960693177768     0.796686110867    -0.133219045397    12.000000000000
         C            0.975896177768     2.306961110867    -0.548147045397    12.000000000000
         C            2.612738877768    -1.552067289133     0.324632554603    12.000000000000
         C            3.529914177768    -0.447310889133     0.144343954603    12.000000000000
         H           -2.744793822232     0.288873110867    -1.762238045397     1.007825032230
         H           -3.400323822232    -1.368222889133    -1.580256045397     1.007825032230
         H           -3.207963822232     1.070018110867     1.856347954603     1.007825032230
         H           -2.642739822232     1.760638110867     0.303589954603     1.007825032230
         H           -1.456472822232    -1.998201889133    -0.169492045397     1.007825032230
         H           -0.869911822232    -1.342733889133    -1.709760045397     1.007825032230
         H           -0.680311822232     1.103003110867     1.651513954603     1.007825032230
         H           -1.301675822232    -0.544127889133     1.843178954603     1.007825032230
         H           -4.408677822232     0.184280110867    -0.039139045397     1.007825032230
         H           -3.587604822232    -1.000098889133     0.758636954603     1.007825032230
         H            0.692297177768    -2.291937889133     0.409728954603     1.007825032230
         H            3.606137177768     1.658840110867    -0.288356045397     1.007825032230
         H            0.179000177768     2.217361110867    -1.290583045397     1.007825032230
         H            0.548141177768     2.782357110867     0.342730954603     1.007825032230
         H            1.742120177768     2.981479110867    -0.937583045397     1.007825032230
         H            3.147459177768    -2.533923889133     0.547081954603     1.007825032230
         H            4.610272177768    -0.546845889133     0.205731954603     1.007825032230

  Basis Set: AUG-CC-PVTZ
    Blend: AUG-CC-PVTZ
  Basis Set: (AUG-CC-PVTZ AUX)
    Blend: AUG-CC-PVTZ-JKFIT
	 Reference Energy          =    -535.2951027461995182 [Eh]
	 Singles Energy            =      -0.0000000000000000 [Eh]
	 Same-Spin Energy          =      -0.5852772112523278 [Eh]
	 Opposite-Spin Energy      =      -1.9175844342381321 [Eh]
	 Correlation Energy        =      -2.5028616454904600 [Eh]
	 Total Energy              =    -537.7979643916900159 [Eh]

	 ================> DF-SCS-MP2 Energies <==================
	-----------------------------------------------------------
	 SCS Same-Spin Scale       =       0.3333333333333333 [-]
	 SCS Opposite-Spin Scale   =       1.2000000000000000 [-]
	 SCS Same-Spin Energy      =      -0.1950924037507759 [Eh]
	 SCS Opposite-Spin Energy  =      -2.3011013210857585 [Eh]
	 SCS Correlation Energy    =      -2.4961937248365342 [Eh]
	 SCS Total Energy          =    -537.7912964710360484 [Eh]
	-----------------------------------------------------------

  Dipole Moment: [D]
     X:   -12.0655      Y:    -0.6639      Z:     0.7282     Total:    12.1057

*** Psi4 exiting successfully. Buy a developer a beer!
