                               Psi4 1.4a3.dev225

  ==> Input File <==

--------------------------------------------------------------------------
#psi4
#
memory 32 gb

molecule  {
1 1
  N       -3.4197460    -0.1817000     0.1602720
  N       -0.6214370    -0.0078370    -0.1287630
  C       -2.7377630    -0.6049400    -1.1216890
  C       -2.6252864     0.8368386     0.9465224
  C       -1.3397990    -1.0900720    -0.7822260
  C       -1.2267490     0.3141230     1.1574790
  C        0.8091060    -0.1845140    -0.0397240
  C        1.6179690     0.9496740    -0.2359790
  C        1.3698700    -1.4337860     0.2499420
  C        3.0044760     0.7849240    -0.1342920
  C        1.0196790     2.2951990    -0.5492200
  C        2.7558540    -1.5738690     0.3292430
  C        3.5736970    -0.4590730     0.1432710
  H       -2.7010110     0.2771110    -1.7633110
  H       -3.3565410    -1.3799850    -1.5813290
  H       -3.1641810     1.0582560     1.8552750
  H       -2.5989570     1.7488760     0.3025170
  H       -1.4126900    -2.0099640    -0.1705650
  H       -0.8261290    -1.3544960    -1.7108330
  H       -0.6365290     1.0912410     1.6504410
  H       -1.2578930    -0.5558900     1.8421060
  H       -4.3648950     0.1725180    -0.0402120
  H       -3.5438220    -1.0118610     0.7575640
  H        0.7360800    -2.3037000     0.4086560
  H        3.6499200     1.6470780    -0.2894290
  H        0.2227830     2.2055990    -1.2916560
  H        0.5919240     2.7705950     0.3416580
  H        1.7859030     2.9697170    -0.9386560
  H        3.1912420    -2.5456860     0.5460090
  H        4.6540550    -0.5586080     0.2046590
units angstrom
no_reorient  #important for SAPT in psi4, default
symmetry c1  #important for SAPT in psi4, default
}

set PROPERTIES_ORIGIN ["COM"]
properties('MP2/aug-cc-pvtz', properties = ['dipole'])
--------------------------------------------------------------------------

    Molecular point group: c1
  Charge       = 1
  Multiplicity = 1
  Basis Set: AUG-CC-PVTZ
    Blend: AUG-CC-PVTZ
  Basis Set: (AUG-CC-PVTZ AUX)
    Blend: AUG-CC-PVTZ-JKFIT

    Orbital Energies [Eh]
    ---------------------

    Doubly Occupied:

       1A    -15.866689     2A    -15.703468     3A    -11.457392
       4A    -11.457017     5A    -11.417662     6A    -11.416887
       7A    -11.375313     8A    -11.344476     9A    -11.340289
      10A    -11.331859    11A    -11.329937    12A    -11.328684
      13A    -11.323532    14A     -1.497685    15A     -1.390487
      16A     -1.250049    17A     -1.223033    18A     -1.156038
      19A     -1.142764    20A     -1.088044    21A     -1.053872
      22A     -1.031867    23A     -0.995013    24A     -0.935896
      25A     -0.924915    26A     -0.903617    27A     -0.868246
      28A     -0.820965    29A     -0.809798    30A     -0.794722
      31A     -0.789951    32A     -0.755152    33A     -0.745472
      34A     -0.736466    35A     -0.714211    36A     -0.702296
      37A     -0.684600    38A     -0.675174    39A     -0.669665
      40A     -0.660472    41A     -0.656833    42A     -0.640555
      43A     -0.599941    44A     -0.591963    45A     -0.588194
      46A     -0.521816    47A     -0.433631    48A     -0.423582

  @DF-RHF Final Energy:  -535.30794094712121

   => Energetics <=

    Nuclear Repulsion Energy =            820.3147343718007960
    One-Electron Energy =               -2338.9049649398707516
    Two-Electron Energy =                 983.2822896209487453
    Total Energy =                       -535.3079409471212102
  Basis Set: (AUG-CC-PVTZ AUX)
    Blend: AUG-CC-PVTZ-RI
    Molecular point group: c1

    Geometry (in Angstrom), charge = 1, multiplicity = 1:

       Center              X                  Y                   Z               Mass
    ------------   -----------------  -----------------  -----------------  -----------------
         N           -3.470340408714    -0.168140793699     0.159566298907    14.003074004430
         N           -0.672031408714     0.005722206301    -0.129468701093    14.003074004430
         C           -2.788357408714    -0.591380793699    -1.122394701093    12.000000000000
         C           -2.675880808714     0.850397806301     0.945816698907    12.000000000000
         C           -1.390393408714    -1.076512793699    -0.782931701093    12.000000000000
         C           -1.277343408714     0.327682206301     1.156773298907    12.000000000000
         C            0.758511591286    -0.170954793699    -0.040429701093    12.000000000000
         C            1.567374591286     0.963233206301    -0.236684701093    12.000000000000
         C            1.319275591286    -1.420226793699     0.249236298907    12.000000000000
         C            2.953881591286     0.798483206301    -0.134997701093    12.000000000000
         C            0.969084591286     2.308758206301    -0.549925701093    12.000000000000
         C            2.705259591286    -1.560309793699     0.328537298907    12.000000000000
         C            3.523102591286    -0.445513793699     0.142565298907    12.000000000000
         H           -2.751605408714     0.290670206301    -1.764016701093     1.007825032230
         H           -3.407135408714    -1.366425793699    -1.582034701093     1.007825032230
         H           -3.214775408714     1.071815206301     1.854569298907     1.007825032230
         H           -2.649551408714     1.762435206301     0.301811298907     1.007825032230
         H           -1.463284408714    -1.996404793699    -0.171270701093     1.007825032230
         H           -0.876723408714    -1.340936793699    -1.711538701093     1.007825032230
         H           -0.687123408714     1.104800206301     1.649735298907     1.007825032230
         H           -1.308487408714    -0.542330793699     1.841400298907     1.007825032230
         H           -4.415489408714     0.186077206301    -0.040917701093     1.007825032230
         H           -3.594416408714    -0.998301793699     0.756858298907     1.007825032230
         H            0.685485591286    -2.290140793699     0.407950298907     1.007825032230
         H            3.599325591286     1.660637206301    -0.290134701093     1.007825032230
         H            0.172188591286     2.219158206301    -1.292361701093     1.007825032230
         H            0.541329591286     2.784154206301     0.340952298907     1.007825032230
         H            1.735308591286     2.983276206301    -0.939361701093     1.007825032230
         H            3.140647591286    -2.532126793699     0.545303298907     1.007825032230
         H            4.603460591286    -0.545048793699     0.203953298907     1.007825032230

  Basis Set: AUG-CC-PVTZ
    Blend: AUG-CC-PVTZ
  Basis Set: (AUG-CC-PVTZ AUX)
    Blend: AUG-CC-PVTZ-JKFIT
	 Reference Energy          =    -535.3079409471212102 [Eh]
	 Singles Energy            =      -0.0000000000000000 [Eh]
	 Same-Spin Energy          =      -0.5853835314083156 [Eh]
	 Opposite-Spin Energy      =      -1.9172403672028124 [Eh]
	 Correlation Energy        =      -2.5026238986111280 [Eh]
	 Total Energy              =    -537.8105648457323014 [Eh]

	 ================> DF-SCS-MP2 Energies <==================
	-----------------------------------------------------------
	 SCS Same-Spin Scale       =       0.3333333333333333 [-]
	 SCS Opposite-Spin Scale   =       1.2000000000000000 [-]
	 SCS Same-Spin Energy      =      -0.1951278438027718 [Eh]
	 SCS Opposite-Spin Energy  =      -2.3006884406433747 [Eh]
	 SCS Correlation Energy    =      -2.4958162844461467 [Eh]
	 SCS Total Energy          =    -537.8037572315673742 [Eh]
	-----------------------------------------------------------

  Dipole Moment: [D]
     X:   -12.1037      Y:    -0.6908      Z:     0.7375     Total:    12.1458

*** Psi4 exiting successfully. Buy a developer a beer!
