                               Psi4 1.4a3.dev225

  ==> Input File <==

--------------------------------------------------------------------------
#psi4
#
memory 32 gb

molecule  {
1 1
  N       -3.4197460    -0.1817000     0.1602720
  N       -0.6214370    -0.0078370    -0.1287630
  C       -2.7377630    -0.6049400    -1.1216890
  C       -2.6265040     0.8533270     0.9259500
  C       -1.3397990    -1.0900720    -0.7822260
  C       -1.2267490     0.3141230     1.1574790
  C        0.8091060    -0.1845140    -0.0397240
  C        1.6179690     0.9496740    -0.2359790
  C        1.3698700    -1.4337860     0.2499420
  C        3.0044760     0.7849240    -0.1342920
  C        1.0196790     2.2951990    -0.5492200
  C        2.7558540    -1.5738690     0.3292430
  C        3.5736970    -0.4590730     0.1432710
  H       -2.7010110     0.2771110    -1.7633110
  H       -3.3565410    -1.3799850    -1.5813290
  H       -3.1641810     1.0582560     1.8552750
  H       -2.5989570     1.7488760     0.3025170
  H       -1.4126900    -2.0099640    -0.1705650
  H       -0.8261290    -1.3544960    -1.7108330
  H       -0.6365290     1.0912410     1.6504410
  H       -1.2578930    -0.5558900     1.8421060
  H       -4.2730494     0.1380966    -0.0207298
  H       -3.5438220    -1.0118610     0.7575640
  H        0.7360800    -2.3037000     0.4086560
  H        3.6499200     1.6470780    -0.2894290
  H        0.2227830     2.2055990    -1.2916560
  H        0.5919240     2.7705950     0.3416580
  H        1.7859030     2.9697170    -0.9386560
  H        3.1912420    -2.5456860     0.5460090
  H        4.6540550    -0.5586080     0.2046590
units angstrom
no_reorient  #important for SAPT in psi4, default
symmetry c1  #important for SAPT in psi4, default
}

set PROPERTIES_ORIGIN ["COM"]
properties('MP2/aug-cc-pvtz', properties = ['dipole'])
--------------------------------------------------------------------------

    Molecular point group: c1
  Charge       = 1
  Multiplicity = 1
  Basis Set: AUG-CC-PVTZ
    Blend: AUG-CC-PVTZ
  Basis Set: (AUG-CC-PVTZ AUX)
    Blend: AUG-CC-PVTZ-JKFIT

    Orbital Energies [Eh]
    ---------------------

    Doubly Occupied:

       1A    -15.858761     2A    -15.703654     3A    -11.457852
       4A    -11.457818     5A    -11.418197     6A    -11.417919
       7A    -11.375559     8A    -11.344731     9A    -11.340548
      10A    -11.332116    11A    -11.330190    12A    -11.328922
      13A    -11.323886    14A     -1.512783    15A     -1.392811
      16A     -1.250884    17A     -1.222917    18A     -1.160933
      19A     -1.144245    20A     -1.090818    21A     -1.054719
      22A     -1.032552    23A     -0.999369    24A     -0.955902
      25A     -0.926850    26A     -0.904599    27A     -0.868745
      28A     -0.825075    29A     -0.811673    30A     -0.794392
      31A     -0.789861    32A     -0.756008    33A     -0.745556
      34A     -0.735457    35A     -0.716363    36A     -0.705217
      37A     -0.688649    38A     -0.675593    39A     -0.670081
      40A     -0.660739    41A     -0.657265    42A     -0.640838
      43A     -0.600290    44A     -0.592120    45A     -0.588414
      46A     -0.522245    47A     -0.433895    48A     -0.423830

  @DF-RHF Final Energy:  -535.30353038690623

   => Energetics <=

    Nuclear Repulsion Energy =            820.9681341950116575
    One-Electron Energy =               -2340.0596465498761063
    Two-Electron Energy =                 983.7879819679581033
    Total Energy =                       -535.3035303869062318
  Basis Set: (AUG-CC-PVTZ AUX)
    Blend: AUG-CC-PVTZ-RI
    Molecular point group: c1

    Geometry (in Angstrom), charge = 1, multiplicity = 1:

       Center              X                  Y                   Z               Mass
    ------------   -----------------  -----------------  -----------------  -----------------
         N           -3.470780475658    -0.169061934112     0.160849099016    14.003074004430
         N           -0.672471475658     0.004801065888    -0.128185900984    14.003074004430
         C           -2.788797475658    -0.592301934112    -1.121111900984    12.000000000000
         C           -2.677538475658     0.865965065888     0.926527099016    12.000000000000
         C           -1.390833475658    -1.077433934112    -0.781648900984    12.000000000000
         C           -1.277783475658     0.326761065888     1.158056099016    12.000000000000
         C            0.758071524342    -0.171875934112    -0.039146900984    12.000000000000
         C            1.566934524342     0.962312065888    -0.235401900984    12.000000000000
         C            1.318835524342    -1.421147934112     0.250519099016    12.000000000000
         C            2.953441524342     0.797562065888    -0.133714900984    12.000000000000
         C            0.968644524342     2.307837065888    -0.548642900984    12.000000000000
         C            2.704819524342    -1.561230934112     0.329820099016    12.000000000000
         C            3.522662524342    -0.446434934112     0.143848099016    12.000000000000
         H           -2.752045475658     0.289749065888    -1.762733900984     1.007825032230
         H           -3.407575475658    -1.367346934112    -1.580751900984     1.007825032230
         H           -3.215215475658     1.070894065888     1.855852099016     1.007825032230
         H           -2.649991475658     1.761514065888     0.303094099016     1.007825032230
         H           -1.463724475658    -1.997325934112    -0.169987900984     1.007825032230
         H           -0.877163475658    -1.341857934112    -1.710255900984     1.007825032230
         H           -0.687563475658     1.103879065888     1.651018099016     1.007825032230
         H           -1.308927475658    -0.543251934112     1.842683099016     1.007825032230
         H           -4.324083875658     0.150734665888    -0.020152700984     1.007825032230
         H           -3.594856475658    -0.999222934112     0.758141099016     1.007825032230
         H            0.685045524342    -2.291061934112     0.409233099016     1.007825032230
         H            3.598885524342     1.659716065888    -0.288851900984     1.007825032230
         H            0.171748524342     2.218237065888    -1.291078900984     1.007825032230
         H            0.540889524342     2.783233065888     0.342235099016     1.007825032230
         H            1.734868524342     2.982355065888    -0.938078900984     1.007825032230
         H            3.140207524342    -2.533047934112     0.546586099016     1.007825032230
         H            4.603020524342    -0.545969934112     0.205236099016     1.007825032230

  Basis Set: AUG-CC-PVTZ
    Blend: AUG-CC-PVTZ
  Basis Set: (AUG-CC-PVTZ AUX)
    Blend: AUG-CC-PVTZ-JKFIT
	 Reference Energy          =    -535.3035303869062318 [Eh]
	 Singles Energy            =      -0.0000000000000000 [Eh]
	 Same-Spin Energy          =      -0.5846661953907510 [Eh]
	 Opposite-Spin Energy      =      -1.9153881207476877 [Eh]
	 Correlation Energy        =      -2.5000543161384385 [Eh]
	 Total Energy              =    -537.8035847030446348 [Eh]

	 ================> DF-SCS-MP2 Energies <==================
	-----------------------------------------------------------
	 SCS Same-Spin Scale       =       0.3333333333333333 [-]
	 SCS Opposite-Spin Scale   =       1.2000000000000000 [-]
	 SCS Same-Spin Energy      =      -0.1948887317969170 [Eh]
	 SCS Opposite-Spin Energy  =      -2.2984657448972250 [Eh]
	 SCS Correlation Energy    =      -2.4933544766941420 [Eh]
	 SCS Total Energy          =    -537.7968848636003258 [Eh]
	-----------------------------------------------------------

  Dipole Moment: [D]
     X:   -11.9730      Y:    -0.7265      Z:     0.7559     Total:    12.0188

*** Psi4 exiting successfully. Buy a developer a beer!
