                               Psi4 1.4a3.dev225

  ==> Input File <==

--------------------------------------------------------------------------
#psi4
#
memory 32 gb

molecule  {
1 1
  N       -3.4197460    -0.1817000     0.1602720
  N       -0.6214370    -0.0078370    -0.1287630
  C       -2.7377630    -0.6049400    -1.1216890
  C       -2.6265040     0.8533270     0.9259500
  C       -1.3397990    -1.0900720    -0.7822260
  C       -1.1345253     0.2785972     1.1727334
  C        0.8091060    -0.1845140    -0.0397240
  C        1.6179690     0.9496740    -0.2359790
  C        1.3698700    -1.4337860     0.2499420
  C        3.0044760     0.7849240    -0.1342920
  C        1.0196790     2.2951990    -0.5492200
  C        2.7558540    -1.5738690     0.3292430
  C        3.5736970    -0.4590730     0.1432710
  H       -2.7010110     0.2771110    -1.7633110
  H       -3.3565410    -1.3799850    -1.5813290
  H       -3.1641810     1.0582560     1.8552750
  H       -2.5989570     1.7488760     0.3025170
  H       -1.4126900    -2.0099640    -0.1705650
  H       -0.8261290    -1.3544960    -1.7108330
  H       -0.6365290     1.0912410     1.6504410
  H       -1.2578930    -0.5558900     1.8421060
  H       -4.3648950     0.1725180    -0.0402120
  H       -3.5438220    -1.0118610     0.7575640
  H        0.7360800    -2.3037000     0.4086560
  H        3.6499200     1.6470780    -0.2894290
  H        0.2227830     2.2055990    -1.2916560
  H        0.5919240     2.7705950     0.3416580
  H        1.7859030     2.9697170    -0.9386560
  H        3.1912420    -2.5456860     0.5460090
  H        4.6540550    -0.5586080     0.2046590
units angstrom
no_reorient  #important for SAPT in psi4, default
symmetry c1  #important for SAPT in psi4, default
}

set PROPERTIES_ORIGIN ["COM"]
properties('MP2/aug-cc-pvtz', properties = ['dipole'])
--------------------------------------------------------------------------

    Molecular point group: c1
  Charge       = 1
  Multiplicity = 1
  Basis Set: AUG-CC-PVTZ
    Blend: AUG-CC-PVTZ
  Basis Set: (AUG-CC-PVTZ AUX)
    Blend: AUG-CC-PVTZ-JKFIT

    Orbital Energies [Eh]
    ---------------------

    Doubly Occupied:

       1A    -15.865097     2A    -15.704441     3A    -11.456476
       4A    -11.453957     5A    -11.419701     6A    -11.418371
       7A    -11.375332     8A    -11.344859     9A    -11.340769
      10A    -11.332490    11A    -11.330470    12A    -11.329096
      13A    -11.324086    14A     -1.494047    15A     -1.398383
      16A     -1.250319    17A     -1.214057    18A     -1.151260
      19A     -1.140650    20A     -1.086697    21A     -1.058660
      22A     -1.032376    23A     -0.996481    24A     -0.935197
      25A     -0.924002    26A     -0.903618    27A     -0.867678
      28A     -0.821483    29A     -0.809504    30A     -0.799674
      31A     -0.790266    32A     -0.755688    33A     -0.743225
      34A     -0.726754    35A     -0.712615    36A     -0.708833
      37A     -0.686582    38A     -0.676074    39A     -0.672176
      40A     -0.667500    41A     -0.646462    42A     -0.640246
      43A     -0.600994    44A     -0.590803    45A     -0.587375
      46A     -0.523289    47A     -0.434469    48A     -0.424407

  @DF-RHF Final Energy:  -535.30068367023296

   => Energetics <=

    Nuclear Repulsion Energy =            820.3056807644981063
    One-Electron Energy =               -2338.8787588760328617
    Two-Electron Energy =                 983.2723944413019126
    Total Energy =                       -535.3006836702329565
  Basis Set: (AUG-CC-PVTZ AUX)
    Blend: AUG-CC-PVTZ-RI
    Molecular point group: c1

    Geometry (in Angstrom), charge = 1, multiplicity = 1:

       Center              X                  Y                   Z               Mass
    ------------   -----------------  -----------------  -----------------  -----------------
         N           -3.476505466268    -0.166851136559     0.159926558012    14.003074004430
         N           -0.678196466268     0.007011863441    -0.129108441988    14.003074004430
         C           -2.794522466268    -0.590091136559    -1.122034441988    12.000000000000
         C           -2.683263466268     0.868175863441     0.925604558012    12.000000000000
         C           -1.396558466268    -1.075223136559    -0.782571441988    12.000000000000
         C           -1.191284766268     0.293446063441     1.172387958012    12.000000000000
         C            0.752346533732    -0.169665136559    -0.040069441988    12.000000000000
         C            1.561209533732     0.964522863441    -0.236324441988    12.000000000000
         C            1.313110533732    -1.418937136559     0.249596558012    12.000000000000
         C            2.947716533732     0.799772863441    -0.134637441988    12.000000000000
         C            0.962919533732     2.310047863441    -0.549565441988    12.000000000000
         C            2.699094533732    -1.559020136559     0.328897558012    12.000000000000
         C            3.516937533732    -0.444224136559     0.142925558012    12.000000000000
         H           -2.757770466268     0.291959863441    -1.763656441988     1.007825032230
         H           -3.413300466268    -1.365136136559    -1.581674441988     1.007825032230
         H           -3.220940466268     1.073104863441     1.854929558012     1.007825032230
         H           -2.655716466268     1.763724863441     0.302171558012     1.007825032230
         H           -1.469449466268    -1.995115136559    -0.170910441988     1.007825032230
         H           -0.882888466268    -1.339647136559    -1.711178441988     1.007825032230
         H           -0.693288466268     1.106089863441     1.650095558012     1.007825032230
         H           -1.314652466268    -0.541041136559     1.841760558012     1.007825032230
         H           -4.421654466268     0.187366863441    -0.040557441988     1.007825032230
         H           -3.600581466268    -0.997012136559     0.757218558012     1.007825032230
         H            0.679320533732    -2.288851136559     0.408310558012     1.007825032230
         H            3.593160533732     1.661926863441    -0.289774441988     1.007825032230
         H            0.166023533732     2.220447863441    -1.292001441988     1.007825032230
         H            0.535164533732     2.785443863441     0.341312558012     1.007825032230
         H            1.729143533732     2.984565863441    -0.939001441988     1.007825032230
         H            3.134482533732    -2.530837136559     0.545663558012     1.007825032230
         H            4.597295533732    -0.543759136559     0.204313558012     1.007825032230

  Basis Set: AUG-CC-PVTZ
    Blend: AUG-CC-PVTZ
  Basis Set: (AUG-CC-PVTZ AUX)
    Blend: AUG-CC-PVTZ-JKFIT
	 Reference Energy          =    -535.3006836702329565 [Eh]
	 Singles Energy            =      -0.0000000000000000 [Eh]
	 Same-Spin Energy          =      -0.5851438767278975 [Eh]
	 Opposite-Spin Energy      =      -1.9174844080122517 [Eh]
	 Correlation Energy        =      -2.5026282847401493 [Eh]
	 Total Energy              =    -537.8033119549730827 [Eh]

	 ================> DF-SCS-MP2 Energies <==================
	-----------------------------------------------------------
	 SCS Same-Spin Scale       =       0.3333333333333333 [-]
	 SCS Opposite-Spin Scale   =       1.2000000000000000 [-]
	 SCS Same-Spin Energy      =      -0.1950479589092992 [Eh]
	 SCS Opposite-Spin Energy  =      -2.3009812896147022 [Eh]
	 SCS Correlation Energy    =      -2.4960292485240014 [Eh]
	 SCS Total Energy          =    -537.7967129187569526 [Eh]
	-----------------------------------------------------------

  Dipole Moment: [D]
     X:   -12.0141      Y:    -0.7687      Z:     0.6818     Total:    12.0580

*** Psi4 exiting successfully. Buy a developer a beer!
