                               Psi4 1.4a3.dev225

  ==> Input File <==

--------------------------------------------------------------------------
#psi4
#
memory 32 gb

molecule  {
1 1
  N       -3.4197460    -0.1817000     0.1602720
  N       -0.6214370    -0.0078370    -0.1287630
  C       -2.7377630    -0.6049400    -1.1216890
  C       -2.6265040     0.8533270     0.9259500
  C       -1.2903951    -1.0156435    -0.7372854
  C       -1.2267490     0.3141230     1.1574790
  C        0.8091060    -0.1845140    -0.0397240
  C        1.6179690     0.9496740    -0.2359790
  C        1.3698700    -1.4337860     0.2499420
  C        3.0044760     0.7849240    -0.1342920
  C        1.0196790     2.2951990    -0.5492200
  C        2.7558540    -1.5738690     0.3292430
  C        3.5736970    -0.4590730     0.1432710
  H       -2.7010110     0.2771110    -1.7633110
  H       -3.3565410    -1.3799850    -1.5813290
  H       -3.1641810     1.0582560     1.8552750
  H       -2.5989570     1.7488760     0.3025170
  H       -1.4126900    -2.0099640    -0.1705650
  H       -0.8261290    -1.3544960    -1.7108330
  H       -0.6365290     1.0912410     1.6504410
  H       -1.2578930    -0.5558900     1.8421060
  H       -4.3648950     0.1725180    -0.0402120
  H       -3.5438220    -1.0118610     0.7575640
  H        0.7360800    -2.3037000     0.4086560
  H        3.6499200     1.6470780    -0.2894290
  H        0.2227830     2.2055990    -1.2916560
  H        0.5919240     2.7705950     0.3416580
  H        1.7859030     2.9697170    -0.9386560
  H        3.1912420    -2.5456860     0.5460090
  H        4.6540550    -0.5586080     0.2046590
units angstrom
no_reorient  #important for SAPT in psi4, default
symmetry c1  #important for SAPT in psi4, default
}

set PROPERTIES_ORIGIN ["COM"]
properties('MP2/aug-cc-pvtz', properties = ['dipole'])
--------------------------------------------------------------------------

    Molecular point group: c1
  Charge       = 1
  Multiplicity = 1
  Basis Set: AUG-CC-PVTZ
    Blend: AUG-CC-PVTZ
  Basis Set: (AUG-CC-PVTZ AUX)
    Blend: AUG-CC-PVTZ-JKFIT

    Orbital Energies [Eh]
    ---------------------

    Doubly Occupied:

       1A    -15.864288     2A    -15.704180     3A    -11.457622
       4A    -11.454908     5A    -11.420188     6A    -11.419909
       7A    -11.377610     8A    -11.346596     9A    -11.342018
      10A    -11.333155    11A    -11.331428    12A    -11.330260
      13A    -11.325449    14A     -1.497409    15A     -1.414393
      16A     -1.253090    17A     -1.218654    18A     -1.155192
      19A     -1.143545    20A     -1.091825    21A     -1.057130
      22A     -1.034250    23A     -0.993547    24A     -0.935813
      25A     -0.923494    26A     -0.905997    27A     -0.867635
      28A     -0.820474    29A     -0.816141    30A     -0.801873
      31A     -0.793075    32A     -0.757744    33A     -0.745115
      34A     -0.733932    35A     -0.712672    36A     -0.705320
      37A     -0.687860    38A     -0.678988    39A     -0.669399
      40A     -0.658962    41A     -0.646470    42A     -0.639713
      43A     -0.600886    44A     -0.593263    45A     -0.590548
      46A     -0.520933    47A     -0.435354    48A     -0.425618

  @DF-RHF Final Energy:  -535.29772705533787

   => Energetics <=

    Nuclear Repulsion Energy =            822.2386095528723899
    One-Electron Energy =               -2342.6048249987543386
    Two-Electron Energy =                 985.0684883905441893
    Total Energy =                       -535.2977270553378730
  Basis Set: (AUG-CC-PVTZ AUX)
    Blend: AUG-CC-PVTZ-RI
    Molecular point group: c1

    Geometry (in Angstrom), charge = 1, multiplicity = 1:

       Center              X                  Y                   Z               Mass
    ------------   -----------------  -----------------  -----------------  -----------------
         N           -3.473604709819    -0.174299808547     0.157915515548    14.003074004430
         N           -0.675295709819    -0.000436808547    -0.131119484452    14.003074004430
         C           -2.791621709819    -0.597539808547    -1.124045484452    12.000000000000
         C           -2.680362709819     0.860727191453     0.923593515548    12.000000000000
         C           -1.344253809819    -1.008243308547    -0.739641884452    12.000000000000
         C           -1.280607709819     0.321523191453     1.155122515548    12.000000000000
         C            0.755247290181    -0.177113808547    -0.042080484452    12.000000000000
         C            1.564110290181     0.957074191453    -0.238335484452    12.000000000000
         C            1.316011290181    -1.426385808547     0.247585515548    12.000000000000
         C            2.950617290181     0.792324191453    -0.136648484452    12.000000000000
         C            0.965820290181     2.302599191453    -0.551576484452    12.000000000000
         C            2.701995290181    -1.566468808547     0.326886515548    12.000000000000
         C            3.519838290181    -0.451672808547     0.140914515548    12.000000000000
         H           -2.754869709819     0.284511191453    -1.765667484452     1.007825032230
         H           -3.410399709819    -1.372584808547    -1.583685484452     1.007825032230
         H           -3.218039709819     1.065656191453     1.852918515548     1.007825032230
         H           -2.652815709819     1.756276191453     0.300160515548     1.007825032230
         H           -1.466548709819    -2.002563808547    -0.172921484452     1.007825032230
         H           -0.879987709819    -1.347095808547    -1.713189484452     1.007825032230
         H           -0.690387709819     1.098641191453     1.648084515548     1.007825032230
         H           -1.311751709819    -0.548489808547     1.839749515548     1.007825032230
         H           -4.418753709819     0.179918191453    -0.042568484452     1.007825032230
         H           -3.597680709819    -1.004460808547     0.755207515548     1.007825032230
         H            0.682221290181    -2.296299808547     0.406299515548     1.007825032230
         H            3.596061290181     1.654478191453    -0.291785484452     1.007825032230
         H            0.168924290181     2.212999191453    -1.294012484452     1.007825032230
         H            0.538065290181     2.777995191453     0.339301515548     1.007825032230
         H            1.732044290181     2.977117191453    -0.941012484452     1.007825032230
         H            3.137383290181    -2.538285808547     0.543652515548     1.007825032230
         H            4.600196290181    -0.551207808547     0.202302515548     1.007825032230

  Basis Set: AUG-CC-PVTZ
    Blend: AUG-CC-PVTZ
  Basis Set: (AUG-CC-PVTZ AUX)
    Blend: AUG-CC-PVTZ-JKFIT
	 Reference Energy          =    -535.2977270553378730 [Eh]
	 Singles Energy            =      -0.0000000000000000 [Eh]
	 Same-Spin Energy          =      -0.5863091676086889 [Eh]
	 Opposite-Spin Energy      =      -1.9179461427044000 [Eh]
	 Correlation Energy        =      -2.5042553103130887 [Eh]
	 Total Energy              =    -537.8019823656509288 [Eh]

	 ================> DF-SCS-MP2 Energies <==================
	-----------------------------------------------------------
	 SCS Same-Spin Scale       =       0.3333333333333333 [-]
	 SCS Opposite-Spin Scale   =       1.2000000000000000 [-]
	 SCS Same-Spin Energy      =      -0.1954363892028963 [Eh]
	 SCS Opposite-Spin Energy  =      -2.3015353712452797 [Eh]
	 SCS Correlation Energy    =      -2.4969717604481758 [Eh]
	 SCS Total Energy          =    -537.7946988157860915 [Eh]
	-----------------------------------------------------------

  Dipole Moment: [D]
     X:   -11.8833      Y:    -0.4980      Z:     0.8032     Total:    11.9209

*** Psi4 exiting successfully. Buy a developer a beer!
