                               Psi4 1.4a3.dev225

  ==> Input File <==

--------------------------------------------------------------------------
#psi4
#
memory 32 gb

molecule  {
1 1
  N       -3.4197460    -0.1817000     0.1602720
  N       -0.6214370    -0.0078370    -0.1287630
  C       -2.7377630    -0.6049400    -1.1216890
  C       -2.6265040     0.8533270     0.9259500
  C       -1.3397990    -1.0900720    -0.7822260
  C       -1.2267490     0.3141230     1.1574790
  C        0.8091060    -0.1845140    -0.0397240
  C        1.6179690     0.9496740    -0.2359790
  C        1.3698700    -1.4337860     0.2499420
  C        3.0044760     0.7849240    -0.1342920
  C        1.0196790     2.2951990    -0.5492200
  C        2.7558540    -1.5738690     0.3292430
  C        3.5736970    -0.4590730     0.1432710
  H       -2.7010110     0.2771110    -1.7633110
  H       -3.3565410    -1.3799850    -1.5813290
  H       -3.1641810     1.0582560     1.8552750
  H       -2.5989570     1.7488760     0.3025170
  H       -1.4126900    -2.0099640    -0.1705650
  H       -0.8261290    -1.3544960    -1.7108330
  H       -0.6365290     1.0912410     1.6504410
  H       -1.2578930    -0.5558900     1.8421060
  H       -4.3648950     0.1725180    -0.0402120
  H       -3.5438220    -1.0118610     0.7575640
  H        0.7360800    -2.3037000     0.4086560
  H        3.6499200     1.6470780    -0.2894290
  H        0.2227830     2.2055990    -1.2916560
  H        0.5919240     2.7705950     0.3416580
  H        1.7859030     2.9697170    -0.9386560
  H        3.1912420    -2.5456860     0.5460090
  H        4.7037646    -0.5631878     0.2074836
units angstrom
no_reorient  #important for SAPT in psi4, default
symmetry c1  #important for SAPT in psi4, default
}

set PROPERTIES_ORIGIN ["COM"]
properties('MP2/aug-cc-pvtz', properties = ['dipole'])
--------------------------------------------------------------------------

    Molecular point group: c1
  Charge       = 1
  Multiplicity = 1
  Basis Set: AUG-CC-PVTZ
    Blend: AUG-CC-PVTZ
  Basis Set: (AUG-CC-PVTZ AUX)
    Blend: AUG-CC-PVTZ-JKFIT

    Orbital Energies [Eh]
    ---------------------

    Doubly Occupied:

       1A    -15.866703     2A    -15.703163     3A    -11.456885
       4A    -11.456850     5A    -11.417635     6A    -11.417355
       7A    -11.375296     8A    -11.344672     9A    -11.340475
      10A    -11.334867    11A    -11.331919    12A    -11.329796
      13A    -11.323742    14A     -1.497611    15A     -1.390365
      16A     -1.249952    17A     -1.221942    18A     -1.155225
      19A     -1.142852    20A     -1.087143    21A     -1.053587
      22A     -1.032152    23A     -0.995833    24A     -0.935280
      25A     -0.923818    26A     -0.902135    27A     -0.866871
      28A     -0.823807    29A     -0.810264    30A     -0.793537
      31A     -0.788577    32A     -0.749767    33A     -0.744589
      34A     -0.734555    35A     -0.714499    36A     -0.704532
      37A     -0.687724    38A     -0.675288    39A     -0.668997
      40A     -0.660053    41A     -0.654301    42A     -0.639928
      43A     -0.599436    44A     -0.588952    45A     -0.588298
      46A     -0.521775    47A     -0.433764    48A     -0.423685

  @DF-RHF Final Energy:  -535.30639909320280

   => Energetics <=

    Nuclear Repulsion Energy =            820.0294741743766735
    One-Electron Energy =               -2338.3508386939552111
    Two-Electron Energy =                 983.0149654263757384
    Total Energy =                       -535.3063990932027991
  Basis Set: (AUG-CC-PVTZ AUX)
    Blend: AUG-CC-PVTZ-RI
    Molecular point group: c1

    Geometry (in Angstrom), charge = 1, multiplicity = 1:

       Center              X                  Y                   Z               Mass
    ------------   -----------------  -----------------  -----------------  -----------------
         N           -3.470540744859    -0.169231716498     0.160943871652    14.003074004430
         N           -0.672231744859     0.004631283502    -0.128091128348    14.003074004430
         C           -2.788557744859    -0.592471716498    -1.121017128348    12.000000000000
         C           -2.677298744859     0.865795283502     0.926621871652    12.000000000000
         C           -1.390593744859    -1.077603716498    -0.781554128348    12.000000000000
         C           -1.277543744859     0.326591283502     1.158150871652    12.000000000000
         C            0.758311255141    -0.172045716498    -0.039052128348    12.000000000000
         C            1.567174255141     0.962142283502    -0.235307128348    12.000000000000
         C            1.319075255141    -1.421317716498     0.250613871652    12.000000000000
         C            2.953681255141     0.797392283502    -0.133620128348    12.000000000000
         C            0.968884255141     2.307667283502    -0.548548128348    12.000000000000
         C            2.705059255141    -1.561400716498     0.329914871652    12.000000000000
         C            3.522902255141    -0.446604716498     0.143942871652    12.000000000000
         H           -2.751805744859     0.289579283502    -1.762639128348     1.007825032230
         H           -3.407335744859    -1.367516716498    -1.580657128348     1.007825032230
         H           -3.214975744859     1.070724283502     1.855946871652     1.007825032230
         H           -2.649751744859     1.761344283502     0.303188871652     1.007825032230
         H           -1.463484744859    -1.997495716498    -0.169893128348     1.007825032230
         H           -0.876923744859    -1.342027716498    -1.710161128348     1.007825032230
         H           -0.687323744859     1.103709283502     1.651112871652     1.007825032230
         H           -1.308687744859    -0.543421716498     1.842777871652     1.007825032230
         H           -4.415689744859     0.184986283502    -0.039540128348     1.007825032230
         H           -3.594616744859    -0.999392716498     0.758235871652     1.007825032230
         H            0.685285255141    -2.291231716498     0.409327871652     1.007825032230
         H            3.599125255141     1.659546283502    -0.288757128348     1.007825032230
         H            0.171988255141     2.218067283502    -1.290984128348     1.007825032230
         H            0.541129255141     2.783063283502     0.342329871652     1.007825032230
         H            1.735108255141     2.982185283502    -0.937984128348     1.007825032230
         H            3.140447255141    -2.533217716498     0.546680871652     1.007825032230
         H            4.652969855141    -0.550719516498     0.208155471652     1.007825032230

  Basis Set: AUG-CC-PVTZ
    Blend: AUG-CC-PVTZ
  Basis Set: (AUG-CC-PVTZ AUX)
    Blend: AUG-CC-PVTZ-JKFIT
	 Reference Energy          =    -535.3063990932027991 [Eh]
	 Singles Energy            =      -0.0000000000000000 [Eh]
	 Same-Spin Energy          =      -0.5854007948889987 [Eh]
	 Opposite-Spin Energy      =      -1.9175953022560703 [Eh]
	 Correlation Energy        =      -2.5029960971450689 [Eh]
	 Total Energy              =    -537.8093951903479137 [Eh]

	 ================> DF-SCS-MP2 Energies <==================
	-----------------------------------------------------------
	 SCS Same-Spin Scale       =       0.3333333333333333 [-]
	 SCS Opposite-Spin Scale   =       1.2000000000000000 [-]
	 SCS Same-Spin Energy      =      -0.1951335982963329 [Eh]
	 SCS Opposite-Spin Energy  =      -2.3011143627072843 [Eh]
	 SCS Correlation Energy    =      -2.4962479610036170 [Eh]
	 SCS Total Energy          =    -537.8026470542064317 [Eh]
	-----------------------------------------------------------

  Dipole Moment: [D]
     X:   -12.1171      Y:    -0.6825      Z:     0.7314     Total:    12.1583

*** Psi4 exiting successfully. Buy a developer a beer!
