                               Psi4 1.4a3.dev225

  ==> Input File <==

--------------------------------------------------------------------------
#psi4
#
memory 32 gb

molecule  {
1 1
  N       -3.4197460    -0.1817000     0.1602720
  N       -0.6214370    -0.0078370    -0.1287630
  C       -2.7377630    -0.6049400    -1.1216890
  C       -2.6265040     0.8533270     0.9259500
  C       -1.3397990    -1.0900720    -0.7822260
  C       -1.2083043     0.3070178     1.1605299
  C        0.8091060    -0.1845140    -0.0397240
  C        1.6179690     0.9496740    -0.2359790
  C        1.3698700    -1.4337860     0.2499420
  C        3.0044760     0.7849240    -0.1342920
  C        1.0196790     2.2951990    -0.5492200
  C        2.7558540    -1.5738690     0.3292430
  C        3.5736970    -0.4590730     0.1432710
  H       -2.7010110     0.2771110    -1.7633110
  H       -3.3565410    -1.3799850    -1.5813290
  H       -3.1641810     1.0582560     1.8552750
  H       -2.5989570     1.7488760     0.3025170
  H       -1.4126900    -2.0099640    -0.1705650
  H       -0.8261290    -1.3544960    -1.7108330
  H       -0.6365290     1.0912410     1.6504410
  H       -1.2578930    -0.5558900     1.8421060
  H       -4.3648950     0.1725180    -0.0402120
  H       -3.5438220    -1.0118610     0.7575640
  H        0.7360800    -2.3037000     0.4086560
  H        3.6499200     1.6470780    -0.2894290
  H        0.2227830     2.2055990    -1.2916560
  H        0.5919240     2.7705950     0.3416580
  H        1.7859030     2.9697170    -0.9386560
  H        3.1912420    -2.5456860     0.5460090
  H        4.6540550    -0.5586080     0.2046590
units angstrom
no_reorient  #important for SAPT in psi4, default
symmetry c1  #important for SAPT in psi4, default
}

set PROPERTIES_ORIGIN ["COM"]
properties('MP2/aug-cc-pvtz', properties = ['dipole'])
--------------------------------------------------------------------------

    Molecular point group: c1
  Charge       = 1
  Multiplicity = 1
  Basis Set: AUG-CC-PVTZ
    Blend: AUG-CC-PVTZ
  Basis Set: (AUG-CC-PVTZ AUX)
    Blend: AUG-CC-PVTZ-JKFIT

    Orbital Energies [Eh]
    ---------------------

    Doubly Occupied:

       1A    -15.866397     2A    -15.703275     3A    -11.456776
       4A    -11.456466     5A    -11.417980     6A    -11.417242
       7A    -11.375147     8A    -11.344450     9A    -11.340268
      10A    -11.331915    11A    -11.329973    12A    -11.328682
      13A    -11.323664    14A     -1.496856    15A     -1.391862
      16A     -1.249952    17A     -1.219939    18A     -1.154589
      19A     -1.142398    20A     -1.087858    21A     -1.054625
      22A     -1.032062    23A     -0.996165    24A     -0.935467
      25A     -0.924184    26A     -0.903383    27A     -0.867550
      28A     -0.823162    29A     -0.810038    30A     -0.794702
      31A     -0.788723    32A     -0.755099    33A     -0.744386
      34A     -0.732384    35A     -0.714281    36A     -0.705450
      37A     -0.687716    38A     -0.675348    39A     -0.669757
      40A     -0.661947    41A     -0.654413    42A     -0.640577
      43A     -0.600152    44A     -0.591415    45A     -0.588144
      46A     -0.522104    47A     -0.433721    48A     -0.423663

  @DF-RHF Final Energy:  -535.30865229671872

   => Energetics <=

    Nuclear Repulsion Energy =            820.2911840024721641
    One-Electron Energy =               -2338.8670547476867796
    Two-Electron Energy =                 983.2672184484958962
    Total Energy =                       -535.3086522967187193
  Basis Set: (AUG-CC-PVTZ AUX)
    Blend: AUG-CC-PVTZ-RI
    Molecular point group: c1

    Geometry (in Angstrom), charge = 1, multiplicity = 1:

       Center              X                  Y                   Z               Mass
    ------------   -----------------  -----------------  -----------------  -----------------
         N           -3.471507430078    -0.168776443046     0.160753263912    14.003074004430
         N           -0.673198430078     0.005086556954    -0.128281736088    14.003074004430
         C           -2.789524430078    -0.592016443046    -1.121207736088    12.000000000000
         C           -2.678265430078     0.866250556954     0.926431263912    12.000000000000
         C           -1.391560430078    -1.077148443046    -0.781744736088    12.000000000000
         C           -1.260065730078     0.319941356954     1.161011163912    12.000000000000
         C            0.757344569922    -0.171590443046    -0.039242736088    12.000000000000
         C            1.566207569922     0.962597556954    -0.235497736088    12.000000000000
         C            1.318108569922    -1.420862443046     0.250423263912    12.000000000000
         C            2.952714569922     0.797847556954    -0.133810736088    12.000000000000
         C            0.967917569922     2.308122556954    -0.548738736088    12.000000000000
         C            2.704092569922    -1.560945443046     0.329724263912    12.000000000000
         C            3.521935569922    -0.446149443046     0.143752263912    12.000000000000
         H           -2.752772430078     0.290034556954    -1.762829736088     1.007825032230
         H           -3.408302430078    -1.367061443046    -1.580847736088     1.007825032230
         H           -3.215942430078     1.071179556954     1.855756263912     1.007825032230
         H           -2.650718430078     1.761799556954     0.302998263912     1.007825032230
         H           -1.464451430078    -1.997040443046    -0.170083736088     1.007825032230
         H           -0.877890430078    -1.341572443046    -1.710351736088     1.007825032230
         H           -0.688290430078     1.104164556954     1.650922263912     1.007825032230
         H           -1.309654430078    -0.542966443046     1.842587263912     1.007825032230
         H           -4.416656430078     0.185441556954    -0.039730736088     1.007825032230
         H           -3.595583430078    -0.998937443046     0.758045263912     1.007825032230
         H            0.684318569922    -2.290776443046     0.409137263912     1.007825032230
         H            3.598158569922     1.660001556954    -0.288947736088     1.007825032230
         H            0.171021569922     2.218522556954    -1.291174736088     1.007825032230
         H            0.540162569922     2.783518556954     0.342139263912     1.007825032230
         H            1.734141569922     2.982640556954    -0.938174736088     1.007825032230
         H            3.139480569922    -2.532762443046     0.546490263912     1.007825032230
         H            4.602293569922    -0.545684443046     0.205140263912     1.007825032230

  Basis Set: AUG-CC-PVTZ
    Blend: AUG-CC-PVTZ
  Basis Set: (AUG-CC-PVTZ AUX)
    Blend: AUG-CC-PVTZ-JKFIT
	 Reference Energy          =    -535.3086522967187193 [Eh]
	 Singles Energy            =      -0.0000000000000000 [Eh]
	 Same-Spin Energy          =      -0.5851917801641769 [Eh]
	 Opposite-Spin Energy      =      -1.9170937736762328 [Eh]
	 Correlation Energy        =      -2.5022855538404096 [Eh]
	 Total Energy              =    -537.8109378505591849 [Eh]

	 ================> DF-SCS-MP2 Energies <==================
	-----------------------------------------------------------
	 SCS Same-Spin Scale       =       0.3333333333333333 [-]
	 SCS Opposite-Spin Scale   =       1.2000000000000000 [-]
	 SCS Same-Spin Energy      =      -0.1950639267213923 [Eh]
	 SCS Opposite-Spin Energy  =      -2.3005125284114794 [Eh]
	 SCS Correlation Energy    =      -2.4955764551328716 [Eh]
	 SCS Total Energy          =    -537.8042287518516105 [Eh]
	-----------------------------------------------------------

  Dipole Moment: [D]
     X:   -12.0936      Y:    -0.7006      Z:     0.7226     Total:    12.1354

*** Psi4 exiting successfully. Buy a developer a beer!
