                               Psi4 1.4a3.dev225

  ==> Input File <==

--------------------------------------------------------------------------
#psi4
#
memory 32 gb

molecule  {
1 1
  N       -3.4197460    -0.1817000     0.1602720
  N       -0.6214370    -0.0078370    -0.1287630
  C       -2.7377630    -0.6049400    -1.1216890
  C       -2.6265040     0.8533270     0.9259500
  C       -1.3397990    -1.0900720    -0.7822260
  C       -1.2267490     0.3141230     1.1574790
  C        0.8091060    -0.1845140    -0.0397240
  C        1.6179690     0.9496740    -0.2359790
  C        1.3698700    -1.4337860     0.2499420
  C        3.0044760     0.7849240    -0.1342920
  C        1.0196790     2.2951990    -0.5492200
  C        2.7558540    -1.5738690     0.3292430
  C        3.5736970    -0.4590730     0.1432710
  H       -2.7010110     0.2771110    -1.7633110
  H       -3.3565410    -1.3799850    -1.5813290
  H       -3.1641810     1.0582560     1.8552750
  H       -2.5989570     1.7488760     0.3025170
  H       -1.4126900    -2.0099640    -0.1705650
  H       -0.8261290    -1.3544960    -1.7108330
  H       -0.6365290     1.0912410     1.6504410
  H       -1.2578930    -0.5558900     1.8421060
  H       -4.3648950     0.1725180    -0.0402120
  H       -3.5438220    -1.0118610     0.7575640
  H        0.7360800    -2.3037000     0.4086560
  H        3.6499200     1.6470780    -0.2894290
  H        0.2227830     2.2055990    -1.2916560
  H        0.5919240     2.7705950     0.3416580
  H        1.7859030     2.9697170    -0.9386560
  H        3.1511779    -2.4562601     0.5260623
  H        4.6540550    -0.5586080     0.2046590
units angstrom
no_reorient  #important for SAPT in psi4, default
symmetry c1  #important for SAPT in psi4, default
}

set PROPERTIES_ORIGIN ["COM"]
properties('MP2/aug-cc-pvtz', properties = ['dipole'])
--------------------------------------------------------------------------

    Molecular point group: c1
  Charge       = 1
  Multiplicity = 1
  Basis Set: AUG-CC-PVTZ
    Blend: AUG-CC-PVTZ
  Basis Set: (AUG-CC-PVTZ AUX)
    Blend: AUG-CC-PVTZ-JKFIT

    Orbital Energies [Eh]
    ---------------------

    Doubly Occupied:

       1A    -15.866560     2A    -15.702809     3A    -11.456726
       4A    -11.456684     5A    -11.417433     6A    -11.417149
       7A    -11.374747     8A    -11.344277     9A    -11.339597
      10A    -11.329454    11A    -11.328178    12A    -11.323466
      13A    -11.320048    14A     -1.497456    15A     -1.390059
      16A     -1.250185    17A     -1.221765    18A     -1.156950
      19A     -1.143423    20A     -1.087773    21A     -1.053472
      22A     -1.035119    23A     -0.996396    24A     -0.935647
      25A     -0.924161    26A     -0.907678    27A     -0.869085
      28A     -0.823704    29A     -0.816359    30A     -0.793984
      31A     -0.788696    32A     -0.754967    33A     -0.744862
      34A     -0.734528    35A     -0.717801    36A     -0.707284
      37A     -0.688106    38A     -0.677381    39A     -0.673262
      40A     -0.660127    41A     -0.655950    42A     -0.640293
      43A     -0.603222    44A     -0.591274    45A     -0.588048
      46A     -0.521823    47A     -0.433190    48A     -0.423333

  @DF-RHF Final Energy:  -535.30299483668387

   => Energetics <=

    Nuclear Repulsion Energy =            820.8638248983829726
    One-Electron Energy =               -2339.9646535388774282
    Two-Electron Energy =                 983.7978338038105903
    Total Energy =                       -535.3029948366838653
  Basis Set: (AUG-CC-PVTZ AUX)
    Blend: AUG-CC-PVTZ-RI
    Molecular point group: c1

    Geometry (in Angstrom), charge = 1, multiplicity = 1:

       Center              X                  Y                   Z               Mass
    ------------   -----------------  -----------------  -----------------  -----------------
         N           -3.470029981597    -0.169766557525     0.161073427897    14.003074004430
         N           -0.671720981597     0.004096442475    -0.127961572103    14.003074004430
         C           -2.788046981597    -0.593006557525    -1.120887572103    12.000000000000
         C           -2.676787981597     0.865260442475     0.926751427897    12.000000000000
         C           -1.390082981597    -1.078138557525    -0.781424572103    12.000000000000
         C           -1.277032981597     0.326056442475     1.158280427897    12.000000000000
         C            0.758822018403    -0.172580557525    -0.038922572103    12.000000000000
         C            1.567685018403     0.961607442475    -0.235177572103    12.000000000000
         C            1.319586018403    -1.421852557525     0.250743427897    12.000000000000
         C            2.954192018403     0.796857442475    -0.133490572103    12.000000000000
         C            0.969395018403     2.307132442475    -0.548418572103    12.000000000000
         C            2.705570018403    -1.561935557525     0.330044427897    12.000000000000
         C            3.523413018403    -0.447139557525     0.144072427897    12.000000000000
         H           -2.751294981597     0.289044442475    -1.762509572103     1.007825032230
         H           -3.406824981597    -1.368051557525    -1.580527572103     1.007825032230
         H           -3.214464981597     1.070189442475     1.856076427897     1.007825032230
         H           -2.649240981597     1.760809442475     0.303318427897     1.007825032230
         H           -1.462973981597    -1.998030557525    -0.169763572103     1.007825032230
         H           -0.876412981597    -1.342562557525    -1.710031572103     1.007825032230
         H           -0.686812981597     1.103174442475     1.651242427897     1.007825032230
         H           -1.308176981597    -0.543956557525     1.842907427897     1.007825032230
         H           -4.415178981597     0.184451442475    -0.039410572103     1.007825032230
         H           -3.594105981597    -0.999927557525     0.758365427897     1.007825032230
         H            0.685796018403    -2.291766557525     0.409457427897     1.007825032230
         H            3.599636018403     1.659011442475    -0.288627572103     1.007825032230
         H            0.172499018403     2.217532442475    -1.290854572103     1.007825032230
         H            0.541640018403     2.782528442475     0.342459427897     1.007825032230
         H            1.735619018403     2.981650442475    -0.937854572103     1.007825032230
         H            3.100893918403    -2.444326657525     0.526863727897     1.007825032230
         H            4.603771018403    -0.546674557525     0.205460427897     1.007825032230

  Basis Set: AUG-CC-PVTZ
    Blend: AUG-CC-PVTZ
  Basis Set: (AUG-CC-PVTZ AUX)
    Blend: AUG-CC-PVTZ-JKFIT
	 Reference Energy          =    -535.3029948366838653 [Eh]
	 Singles Energy            =      -0.0000000000000000 [Eh]
	 Same-Spin Energy          =      -0.5851465778567007 [Eh]
	 Opposite-Spin Energy      =      -1.9166353226235724 [Eh]
	 Correlation Energy        =      -2.5017819004802728 [Eh]
	 Total Energy              =    -537.8047767371641612 [Eh]

	 ================> DF-SCS-MP2 Energies <==================
	-----------------------------------------------------------
	 SCS Same-Spin Scale       =       0.3333333333333333 [-]
	 SCS Opposite-Spin Scale   =       1.2000000000000000 [-]
	 SCS Same-Spin Energy      =      -0.1950488592855669 [Eh]
	 SCS Opposite-Spin Energy  =      -2.2999623871482866 [Eh]
	 SCS Correlation Energy    =      -2.4950112464338536 [Eh]
	 SCS Total Energy          =    -537.7980060831176843 [Eh]
	-----------------------------------------------------------

  Dipole Moment: [D]
     X:   -12.0977      Y:    -0.6948      Z:     0.7343     Total:    12.1399

*** Psi4 exiting successfully. Buy a developer a beer!
