                               Psi4 1.4a3.dev225

  ==> Input File <==

--------------------------------------------------------------------------
#psi4
#
memory 32 gb

molecule  {
1 1
  N       -3.4197460    -0.1817000     0.1602720
  N       -0.6214370    -0.0078370    -0.1287630
  C       -2.7377630    -0.6049400    -1.1216890
  C       -2.6265040     0.8533270     0.9259500
  C       -1.3397990    -1.0900720    -0.7822260
  C       -1.2267490     0.3141230     1.1574790
  C        0.8091060    -0.1845140    -0.0397240
  C        1.6179690     0.9496740    -0.2359790
  C        1.3698700    -1.4337860     0.2499420
  C        3.0044760     0.7849240    -0.1342920
  C        1.0117309     2.3130739    -0.5533813
  C        2.7558540    -1.5738690     0.3292430
  C        3.5736970    -0.4590730     0.1432710
  H       -2.7010110     0.2771110    -1.7633110
  H       -3.3565410    -1.3799850    -1.5813290
  H       -3.1641810     1.0582560     1.8552750
  H       -2.5989570     1.7488760     0.3025170
  H       -1.4126900    -2.0099640    -0.1705650
  H       -0.8261290    -1.3544960    -1.7108330
  H       -0.6365290     1.0912410     1.6504410
  H       -1.2578930    -0.5558900     1.8421060
  H       -4.3648950     0.1725180    -0.0402120
  H       -3.5438220    -1.0118610     0.7575640
  H        0.7360800    -2.3037000     0.4086560
  H        3.6499200     1.6470780    -0.2894290
  H        0.2227830     2.2055990    -1.2916560
  H        0.5919240     2.7705950     0.3416580
  H        1.7859030     2.9697170    -0.9386560
  H        3.1912420    -2.5456860     0.5460090
  H        4.6540550    -0.5586080     0.2046590
units angstrom
no_reorient  #important for SAPT in psi4, default
symmetry c1  #important for SAPT in psi4, default
}

set PROPERTIES_ORIGIN ["COM"]
properties('MP2/aug-cc-pvtz', properties = ['dipole'])
--------------------------------------------------------------------------

    Molecular point group: c1
  Charge       = 1
  Multiplicity = 1
  Basis Set: AUG-CC-PVTZ
    Blend: AUG-CC-PVTZ
  Basis Set: (AUG-CC-PVTZ AUX)
    Blend: AUG-CC-PVTZ-JKFIT

    Orbital Energies [Eh]
    ---------------------

    Doubly Occupied:

       1A    -15.866661     2A    -15.703047     3A    -11.456832
       4A    -11.456813     5A    -11.417539     6A    -11.417299
       7A    -11.375116     8A    -11.345165     9A    -11.340107
      10A    -11.331722    11A    -11.329836    12A    -11.328559
      13A    -11.323125    14A     -1.497565    15A     -1.390187
      16A     -1.249254    17A     -1.221886    18A     -1.155165
      19A     -1.141001    20A     -1.087935    21A     -1.053511
      22A     -1.032679    23A     -0.996142    24A     -0.935370
      25A     -0.924148    26A     -0.903558    27A     -0.867436
      28A     -0.823764    29A     -0.810012    30A     -0.793551
      31A     -0.788470    32A     -0.754143    33A     -0.744523
      34A     -0.734561    35A     -0.714475    36A     -0.704203
      37A     -0.687674    38A     -0.677111    39A     -0.667907
      40A     -0.659734    41A     -0.655453    42A     -0.643468
      43A     -0.597687    44A     -0.592432    45A     -0.588308
      46A     -0.521579    47A     -0.433539    48A     -0.423785

  @DF-RHF Final Energy:  -535.30880635361427

   => Energetics <=

    Nuclear Repulsion Energy =            819.9319178290251102
    One-Electron Energy =               -2338.1533794293736719
    Two-Electron Energy =                 982.9126552467341753
    Total Energy =                       -535.3088063536142727
  Basis Set: (AUG-CC-PVTZ AUX)
    Blend: AUG-CC-PVTZ-RI
    Molecular point group: c1

    Geometry (in Angstrom), charge = 1, multiplicity = 1:

       Center              X                  Y                   Z               Mass
    ------------   -----------------  -----------------  -----------------  -----------------
         N           -3.469719493544    -0.170468678558     0.161241842459    14.003074004430
         N           -0.671410493544     0.003394321442    -0.127793157541    14.003074004430
         C           -2.787736493544    -0.593708678558    -1.120719157541    12.000000000000
         C           -2.676477493544     0.864558321442     0.926919842459    12.000000000000
         C           -1.389772493544    -1.078840678558    -0.781256157541    12.000000000000
         C           -1.276722493544     0.325354321442     1.158448842459    12.000000000000
         C            0.759132506456    -0.173282678558    -0.038754157541    12.000000000000
         C            1.567995506456     0.960905321442    -0.235009157541    12.000000000000
         C            1.319896506456    -1.422554678558     0.250911842459    12.000000000000
         C            2.954502506456     0.796155321442    -0.133322157541    12.000000000000
         C            0.961757406456     2.324305221442    -0.552411457541    12.000000000000
         C            2.705880506456    -1.562637678558     0.330212842459    12.000000000000
         C            3.523723506456    -0.447841678558     0.144240842459    12.000000000000
         H           -2.750984493544     0.288342321442    -1.762341157541     1.007825032230
         H           -3.406514493544    -1.368753678558    -1.580359157541     1.007825032230
         H           -3.214154493544     1.069487321442     1.856244842459     1.007825032230
         H           -2.648930493544     1.760107321442     0.303486842459     1.007825032230
         H           -1.462663493544    -1.998732678558    -0.169595157541     1.007825032230
         H           -0.876102493544    -1.343264678558    -1.709863157541     1.007825032230
         H           -0.686502493544     1.102472321442     1.651410842459     1.007825032230
         H           -1.307866493544    -0.544658678558     1.843075842459     1.007825032230
         H           -4.414868493544     0.183749321442    -0.039242157541     1.007825032230
         H           -3.593795493544    -1.000629678558     0.758533842459     1.007825032230
         H            0.686106506456    -2.292468678558     0.409625842459     1.007825032230
         H            3.599946506456     1.658309321442    -0.288459157541     1.007825032230
         H            0.172809506456     2.216830321442    -1.290686157541     1.007825032230
         H            0.541950506456     2.781826321442     0.342627842459     1.007825032230
         H            1.735929506456     2.980948321442    -0.937686157541     1.007825032230
         H            3.141268506456    -2.534454678558     0.546978842459     1.007825032230
         H            4.604081506456    -0.547376678558     0.205628842459     1.007825032230

  Basis Set: AUG-CC-PVTZ
    Blend: AUG-CC-PVTZ
  Basis Set: (AUG-CC-PVTZ AUX)
    Blend: AUG-CC-PVTZ-JKFIT
	 Reference Energy          =    -535.3088063536142727 [Eh]
	 Singles Energy            =      -0.0000000000000000 [Eh]
	 Same-Spin Energy          =      -0.5851198773460965 [Eh]
	 Opposite-Spin Energy      =      -1.9170242878893817 [Eh]
	 Correlation Energy        =      -2.5021441652354781 [Eh]
	 Total Energy              =    -537.8109505188497224 [Eh]

	 ================> DF-SCS-MP2 Energies <==================
	-----------------------------------------------------------
	 SCS Same-Spin Scale       =       0.3333333333333333 [-]
	 SCS Opposite-Spin Scale   =       1.2000000000000000 [-]
	 SCS Same-Spin Energy      =      -0.1950399591153655 [Eh]
	 SCS Opposite-Spin Energy  =      -2.3004291454672581 [Eh]
	 SCS Correlation Energy    =      -2.4954691045826234 [Eh]
	 SCS Total Energy          =    -537.8042754581969120 [Eh]
	-----------------------------------------------------------

  Dipole Moment: [D]
     X:   -12.1033      Y:    -0.6920      Z:     0.7350     Total:    12.1453

*** Psi4 exiting successfully. Buy a developer a beer!
