                               Psi4 1.4a3.dev225

  ==> Input File <==

--------------------------------------------------------------------------
#psi4
#
memory 32 gb

molecule  {
1 1
  N       -3.4197460    -0.1817000     0.1602720
  N       -0.6214370    -0.0078370    -0.1287630
  C       -2.7377630    -0.6049400    -1.1216890
  C       -2.6265040     0.8533270     0.9259500
  C       -1.3397990    -1.0900720    -0.7822260
  C       -1.2267490     0.3141230     1.1574790
  C        0.8091060    -0.1845140    -0.0397240
  C        1.6179690     0.9496740    -0.2359790
  C        1.3626057    -1.5291716     0.2682105
  C        3.0044760     0.7849240    -0.1342920
  C        1.0196790     2.2951990    -0.5492200
  C        2.7558540    -1.5738690     0.3292430
  C        3.5736970    -0.4590730     0.1432710
  H       -2.7010110     0.2771110    -1.7633110
  H       -3.3565410    -1.3799850    -1.5813290
  H       -3.1641810     1.0582560     1.8552750
  H       -2.5989570     1.7488760     0.3025170
  H       -1.4126900    -2.0099640    -0.1705650
  H       -0.8261290    -1.3544960    -1.7108330
  H       -0.6365290     1.0912410     1.6504410
  H       -1.2578930    -0.5558900     1.8421060
  H       -4.3648950     0.1725180    -0.0402120
  H       -3.5438220    -1.0118610     0.7575640
  H        0.7360800    -2.3037000     0.4086560
  H        3.6499200     1.6470780    -0.2894290
  H        0.2227830     2.2055990    -1.2916560
  H        0.5919240     2.7705950     0.3416580
  H        1.7859030     2.9697170    -0.9386560
  H        3.1912420    -2.5456860     0.5460090
  H        4.6540550    -0.5586080     0.2046590
units angstrom
no_reorient  #important for SAPT in psi4, default
symmetry c1  #important for SAPT in psi4, default
}

set PROPERTIES_ORIGIN ["COM"]
properties('MP2/aug-cc-pvtz', properties = ['dipole'])
--------------------------------------------------------------------------

    Molecular point group: c1
  Charge       = 1
  Multiplicity = 1
  Basis Set: AUG-CC-PVTZ
    Blend: AUG-CC-PVTZ
  Basis Set: (AUG-CC-PVTZ AUX)
    Blend: AUG-CC-PVTZ-JKFIT

    Orbital Energies [Eh]
    ---------------------

    Doubly Occupied:

       1A    -15.866603     2A    -15.702459     3A    -11.456913
       4A    -11.456567     5A    -11.417796     6A    -11.416978
       7A    -11.383257     8A    -11.344906     9A    -11.341888
      10A    -11.333859    11A    -11.332199    12A    -11.329404
      13A    -11.324180    14A     -1.497484    15A     -1.388813
      16A     -1.243941    17A     -1.221792    18A     -1.155285
      19A     -1.142127    20A     -1.085373    21A     -1.053394
      22A     -1.030388    23A     -0.995977    24A     -0.939748
      25A     -0.926490    26A     -0.901881    27A     -0.865675
      28A     -0.823697    29A     -0.806544    30A     -0.794218
      31A     -0.787907    32A     -0.767951    33A     -0.742084
      34A     -0.733558    35A     -0.714468    36A     -0.706981
      37A     -0.687643    38A     -0.675468    39A     -0.671692
      40A     -0.659871    41A     -0.654815    42A     -0.640310
      43A     -0.601689    44A     -0.594463    45A     -0.582359
      46A     -0.517258    47A     -0.431238    48A     -0.421238

  @DF-RHF Final Energy:  -535.29516127515296

   => Energetics <=

    Nuclear Repulsion Energy =            818.5329389072945787
    One-Electron Energy =               -2335.3145409016565281
    Two-Electron Energy =                 981.4864407192090994
    Total Energy =                       -535.2951612751529638
  Basis Set: (AUG-CC-PVTZ AUX)
    Blend: AUG-CC-PVTZ-RI
    Molecular point group: c1

    Geometry (in Angstrom), charge = 1, multiplicity = 1:

       Center              X                  Y                   Z               Mass
    ------------   -----------------  -----------------  -----------------  -----------------
         N           -3.469765816443    -0.162796033526     0.159722372798    14.003074004430
         N           -0.671456816443     0.011066966474    -0.129312627202    14.003074004430
         C           -2.787782816443    -0.586036033526    -1.122238627202    12.000000000000
         C           -2.676523816443     0.872230966474     0.925400372798    12.000000000000
         C           -1.389818816443    -1.071168033526    -0.782775627202    12.000000000000
         C           -1.276768816443     0.333026966474     1.156929372798    12.000000000000
         C            0.759086183557    -0.165610033526    -0.040273627202    12.000000000000
         C            1.567949183557     0.968577966474    -0.236528627202    12.000000000000
         C            1.312585883557    -1.510267633526     0.267660872798    12.000000000000
         C            2.954456183557     0.803827966474    -0.134841627202    12.000000000000
         C            0.969659183557     2.314102966474    -0.549769627202    12.000000000000
         C            2.705834183557    -1.554965033526     0.328693372798    12.000000000000
         C            3.523677183557    -0.440169033526     0.142721372798    12.000000000000
         H           -2.751030816443     0.296014966474    -1.763860627202     1.007825032230
         H           -3.406560816443    -1.361081033526    -1.581878627202     1.007825032230
         H           -3.214200816443     1.077159966474     1.854725372798     1.007825032230
         H           -2.648976816443     1.767779966474     0.301967372798     1.007825032230
         H           -1.462709816443    -1.991060033526    -0.171114627202     1.007825032230
         H           -0.876148816443    -1.335592033526    -1.711382627202     1.007825032230
         H           -0.686548816443     1.110144966474     1.649891372798     1.007825032230
         H           -1.307912816443    -0.536986033526     1.841556372798     1.007825032230
         H           -4.414914816443     0.191421966474    -0.040761627202     1.007825032230
         H           -3.593841816443    -0.992957033526     0.757014372798     1.007825032230
         H            0.686060183557    -2.284796033526     0.408106372798     1.007825032230
         H            3.599900183557     1.665981966474    -0.289978627202     1.007825032230
         H            0.172763183557     2.224502966474    -1.292205627202     1.007825032230
         H            0.541904183557     2.789498966474     0.341108372798     1.007825032230
         H            1.735883183557     2.988620966474    -0.939205627202     1.007825032230
         H            3.141222183557    -2.526782033526     0.545459372798     1.007825032230
         H            4.604035183557    -0.539704033526     0.204109372798     1.007825032230

  Basis Set: AUG-CC-PVTZ
    Blend: AUG-CC-PVTZ
  Basis Set: (AUG-CC-PVTZ AUX)
    Blend: AUG-CC-PVTZ-JKFIT
	 Reference Energy          =    -535.2951612751529638 [Eh]
	 Singles Energy            =      -0.0000000000000000 [Eh]
	 Same-Spin Energy          =      -0.5854873489551921 [Eh]
	 Opposite-Spin Energy      =      -1.9185225606542988 [Eh]
	 Correlation Energy        =      -2.5040099096094908 [Eh]
	 Total Energy              =    -537.7991711847624856 [Eh]

	 ================> DF-SCS-MP2 Energies <==================
	-----------------------------------------------------------
	 SCS Same-Spin Scale       =       0.3333333333333333 [-]
	 SCS Opposite-Spin Scale   =       1.2000000000000000 [-]
	 SCS Same-Spin Energy      =      -0.1951624496517307 [Eh]
	 SCS Opposite-Spin Energy  =      -2.3022270727851586 [Eh]
	 SCS Correlation Energy    =      -2.4973895224368894 [Eh]
	 SCS Total Energy          =    -537.7925507975897972 [Eh]
	-----------------------------------------------------------

  Dipole Moment: [D]
     X:   -12.1087      Y:    -0.6137      Z:     0.7114     Total:    12.1451

*** Psi4 exiting successfully. Buy a developer a beer!
