                               Psi4 1.4a3.dev225

  ==> Input File <==

--------------------------------------------------------------------------
#psi4
#
memory 32 gb

molecule  {
1 1
  N       -3.4197460    -0.1817000     0.1602720
  N       -0.6214370    -0.0078370    -0.1287630
  C       -2.7377630    -0.6049400    -1.1216890
  C       -2.6265040     0.8533270     0.9259500
  C       -1.3397990    -1.0900720    -0.7822260
  C       -1.2267490     0.3141230     1.1574790
  C        0.8091060    -0.1845140    -0.0397240
  C        1.6179690     0.9496740    -0.2359790
  C        1.3698700    -1.4337860     0.2499420
  C        3.0044760     0.7849240    -0.1342920
  C        1.0196790     2.2951990    -0.5492200
  C        2.7558540    -1.5738690     0.3292430
  C        3.5736970    -0.4590730     0.1432710
  H       -2.7016845     0.2609466    -1.7515527
  H       -3.3565410    -1.3799850    -1.5813290
  H       -3.1641810     1.0582560     1.8552750
  H       -2.5989570     1.7488760     0.3025170
  H       -1.4126900    -2.0099640    -0.1705650
  H       -0.8261290    -1.3544960    -1.7108330
  H       -0.6365290     1.0912410     1.6504410
  H       -1.2578930    -0.5558900     1.8421060
  H       -4.3648950     0.1725180    -0.0402120
  H       -3.5438220    -1.0118610     0.7575640
  H        0.7360800    -2.3037000     0.4086560
  H        3.6499200     1.6470780    -0.2894290
  H        0.2227830     2.2055990    -1.2916560
  H        0.5919240     2.7705950     0.3416580
  H        1.7859030     2.9697170    -0.9386560
  H        3.1912420    -2.5456860     0.5460090
  H        4.6540550    -0.5586080     0.2046590
units angstrom
no_reorient  #important for SAPT in psi4, default
symmetry c1  #important for SAPT in psi4, default
}

set PROPERTIES_ORIGIN ["COM"]
properties('MP2/aug-cc-pvtz', properties = ['dipole'])
--------------------------------------------------------------------------

    Molecular point group: c1
  Charge       = 1
  Multiplicity = 1
  Basis Set: AUG-CC-PVTZ
    Blend: AUG-CC-PVTZ
  Basis Set: (AUG-CC-PVTZ AUX)
    Blend: AUG-CC-PVTZ-JKFIT

    Orbital Energies [Eh]
    ---------------------

    Doubly Occupied:

       1A    -15.866548     2A    -15.703100     3A    -11.456817
       4A    -11.454710     5A    -11.417451     6A    -11.417292
       7A    -11.375181     8A    -11.344399     9A    -11.340194
      10A    -11.331813    11A    -11.329892    12A    -11.328622
      13A    -11.323587    14A     -1.497628    15A     -1.390277
      16A     -1.249947    17A     -1.222482    18A     -1.155852
      19A     -1.142818    20A     -1.088445    21A     -1.053972
      22A     -1.032169    23A     -0.996768    24A     -0.935493
      25A     -0.924261    26A     -0.903373    27A     -0.867617
      28A     -0.825689    29A     -0.810252    30A     -0.793613
      31A     -0.788498    32A     -0.755039    33A     -0.745000
      34A     -0.734833    35A     -0.715406    36A     -0.705018
      37A     -0.688553    38A     -0.675236    39A     -0.669558
      40A     -0.660017    41A     -0.655626    42A     -0.640522
      43A     -0.599952    44A     -0.591691    45A     -0.588083
      46A     -0.521661    47A     -0.433562    48A     -0.423501

  @DF-RHF Final Energy:  -535.30896296950664

   => Energetics <=

    Nuclear Repulsion Energy =            820.3897734321251392
    One-Electron Energy =               -2339.0534354078331489
    Two-Electron Energy =                 983.3546990062013720
    Total Energy =                       -535.3089629695066378
  Basis Set: (AUG-CC-PVTZ AUX)
    Blend: AUG-CC-PVTZ-RI
    Molecular point group: c1

    Geometry (in Angstrom), charge = 1, multiplicity = 1:

       Center              X                  Y                   Z               Mass
    ------------   -----------------  -----------------  -----------------  -----------------
         N           -3.470254092571    -0.169165806459     0.160893043784    14.003074004430
         N           -0.671945092571     0.004697193541    -0.128141956216    14.003074004430
         C           -2.788271092571    -0.592405806459    -1.121067956216    12.000000000000
         C           -2.677012092571     0.865861193541     0.926571043784    12.000000000000
         C           -1.390307092571    -1.077537806459    -0.781604956216    12.000000000000
         C           -1.277257092571     0.326657193541     1.158100043784    12.000000000000
         C            0.758597907429    -0.171979806459    -0.039102956216    12.000000000000
         C            1.567460907429     0.962208193541    -0.235357956216    12.000000000000
         C            1.319361907429    -1.421251806459     0.250563043784    12.000000000000
         C            2.953967907429     0.797458193541    -0.133670956216    12.000000000000
         C            0.969170907429     2.307733193541    -0.548598956216    12.000000000000
         C            2.705345907429    -1.561334806459     0.329864043784    12.000000000000
         C            3.523188907429    -0.446538806459     0.143892043784    12.000000000000
         H           -2.752192592571     0.273480793541    -1.750931656216     1.007825032230
         H           -3.407049092571    -1.367450806459    -1.580707956216     1.007825032230
         H           -3.214689092571     1.070790193541     1.855896043784     1.007825032230
         H           -2.649465092571     1.761410193541     0.303138043784     1.007825032230
         H           -1.463198092571    -1.997429806459    -0.169943956216     1.007825032230
         H           -0.876637092571    -1.341961806459    -1.710211956216     1.007825032230
         H           -0.687037092571     1.103775193541     1.651062043784     1.007825032230
         H           -1.308401092571    -0.543355806459     1.842727043784     1.007825032230
         H           -4.415403092571     0.185052193541    -0.039590956216     1.007825032230
         H           -3.594330092571    -0.999326806459     0.758185043784     1.007825032230
         H            0.685571907429    -2.291165806459     0.409277043784     1.007825032230
         H            3.599411907429     1.659612193541    -0.288807956216     1.007825032230
         H            0.172274907429     2.218133193541    -1.291034956216     1.007825032230
         H            0.541415907429     2.783129193541     0.342279043784     1.007825032230
         H            1.735394907429     2.982251193541    -0.938034956216     1.007825032230
         H            3.140733907429    -2.533151806459     0.546630043784     1.007825032230
         H            4.603546907429    -0.546073806459     0.205280043784     1.007825032230

  Basis Set: AUG-CC-PVTZ
    Blend: AUG-CC-PVTZ
  Basis Set: (AUG-CC-PVTZ AUX)
    Blend: AUG-CC-PVTZ-JKFIT
	 Reference Energy          =    -535.3089629695066378 [Eh]
	 Singles Energy            =      -0.0000000000000000 [Eh]
	 Same-Spin Energy          =      -0.5852602412044654 [Eh]
	 Opposite-Spin Energy      =      -1.9169955179315699 [Eh]
	 Correlation Energy        =      -2.5022557591360353 [Eh]
	 Total Energy              =    -537.8112187286426433 [Eh]

	 ================> DF-SCS-MP2 Energies <==================
	-----------------------------------------------------------
	 SCS Same-Spin Scale       =       0.3333333333333333 [-]
	 SCS Opposite-Spin Scale   =       1.2000000000000000 [-]
	 SCS Same-Spin Energy      =      -0.1950867470681551 [Eh]
	 SCS Opposite-Spin Energy  =      -2.3003946215178837 [Eh]
	 SCS Correlation Energy    =      -2.4954813685860389 [Eh]
	 SCS Total Energy          =    -537.8044443380927078 [Eh]
	-----------------------------------------------------------

  Dipole Moment: [D]
     X:   -12.1084      Y:    -0.6853      Z:     0.7332     Total:    12.1499

*** Psi4 exiting successfully. Buy a developer a beer!
