                               Psi4 1.4a3.dev225

  ==> Input File <==

--------------------------------------------------------------------------
#psi4
#
memory 32 gb

molecule  {
1 1
  N       -3.4197460    -0.1817000     0.1602720
  N       -0.6214370    -0.0078370    -0.1287630
  C       -2.7377630    -0.6049400    -1.1216890
  C       -2.6265040     0.8533270     0.9259500
  C       -1.3397990    -1.0900720    -0.7822260
  C       -1.2267490     0.3141230     1.1574790
  C        0.8091060    -0.1845140    -0.0397240
  C        1.6179690     0.9496740    -0.2359790
  C        1.3698700    -1.4337860     0.2499420
  C        3.0044760     0.7849240    -0.1342920
  C        1.0196790     2.2951990    -0.5492200
  C        2.7558540    -1.5738690     0.3292430
  C        3.5736970    -0.4590730     0.1432710
  H       -2.7010110     0.2771110    -1.7633110
  H       -3.3565410    -1.3799850    -1.5813290
  H       -3.1641810     1.0582560     1.8552750
  H       -2.5989570     1.7488760     0.3025170
  H       -1.4126900    -2.0099640    -0.1705650
  H       -0.8261290    -1.3544960    -1.7108330
  H       -0.6365290     1.0912410     1.6504410
  H       -1.2573306    -0.5401790     1.8297428
  H       -4.3648950     0.1725180    -0.0402120
  H       -3.5438220    -1.0118610     0.7575640
  H        0.7360800    -2.3037000     0.4086560
  H        3.6499200     1.6470780    -0.2894290
  H        0.2227830     2.2055990    -1.2916560
  H        0.5919240     2.7705950     0.3416580
  H        1.7859030     2.9697170    -0.9386560
  H        3.1912420    -2.5456860     0.5460090
  H        4.6540550    -0.5586080     0.2046590
units angstrom
no_reorient  #important for SAPT in psi4, default
symmetry c1  #important for SAPT in psi4, default
}

set PROPERTIES_ORIGIN ["COM"]
properties('MP2/aug-cc-pvtz', properties = ['dipole'])
--------------------------------------------------------------------------

    Molecular point group: c1
  Charge       = 1
  Multiplicity = 1
  Basis Set: AUG-CC-PVTZ
    Blend: AUG-CC-PVTZ
  Basis Set: (AUG-CC-PVTZ AUX)
    Blend: AUG-CC-PVTZ-JKFIT

    Orbital Energies [Eh]
    ---------------------

    Doubly Occupied:

       1A    -15.866666     2A    -15.702660     3A    -11.456791
       4A    -11.456612     5A    -11.417509     6A    -11.414967
       7A    -11.375109     8A    -11.344313     9A    -11.340136
      10A    -11.331778    11A    -11.329846    12A    -11.328569
      13A    -11.323497    14A     -1.497575    15A     -1.390228
      16A     -1.249909    17A     -1.222152    18A     -1.155676
      19A     -1.142614    20A     -1.088046    21A     -1.054121
      22A     -1.031955    23A     -0.996864    24A     -0.935692
      25A     -0.924388    26A     -0.903297    27A     -0.867853
      28A     -0.824526    29A     -0.810570    30A     -0.793731
      31A     -0.788569    32A     -0.754924    33A     -0.744755
      34A     -0.734483    35A     -0.714633    36A     -0.705055
      37A     -0.689122    38A     -0.675123    39A     -0.669500
      40A     -0.660058    41A     -0.655634    42A     -0.640428
      43A     -0.600000    44A     -0.591616    45A     -0.588030
      46A     -0.521753    47A     -0.433503    48A     -0.423422

  @DF-RHF Final Energy:  -535.30902328794593

   => Energetics <=

    Nuclear Repulsion Energy =            820.3990361511289393
    One-Electron Energy =               -2339.0796042113270232
    Two-Electron Energy =                 983.3715447722521503
    Total Energy =                       -535.3090232879459336
  Basis Set: (AUG-CC-PVTZ AUX)
    Blend: AUG-CC-PVTZ-RI
    Molecular point group: c1

    Geometry (in Angstrom), charge = 1, multiplicity = 1:

       Center              X                  Y                   Z               Mass
    ------------   -----------------  -----------------  -----------------  -----------------
         N           -3.470261124166    -0.169347160054     0.161030281928    14.003074004430
         N           -0.671952124166     0.004515839946    -0.128004718072    14.003074004430
         C           -2.788278124166    -0.592587160054    -1.120930718072    12.000000000000
         C           -2.677019124166     0.865679839946     0.926708281928    12.000000000000
         C           -1.390314124166    -1.077719160054    -0.781467718072    12.000000000000
         C           -1.277264124166     0.326475839946     1.158237281928    12.000000000000
         C            0.758590875834    -0.172161160054    -0.038965718072    12.000000000000
         C            1.567453875834     0.962026839946    -0.235220718072    12.000000000000
         C            1.319354875834    -1.421433160054     0.250700281928    12.000000000000
         C            2.953960875834     0.797276839946    -0.133533718072    12.000000000000
         C            0.969163875834     2.307551839946    -0.548461718072    12.000000000000
         C            2.705338875834    -1.561516160054     0.330001281928    12.000000000000
         C            3.523181875834    -0.446720160054     0.144029281928    12.000000000000
         H           -2.751526124166     0.289463839946    -1.762552718072     1.007825032230
         H           -3.407056124166    -1.367632160054    -1.580570718072     1.007825032230
         H           -3.214696124166     1.070608839946     1.856033281928     1.007825032230
         H           -2.649472124166     1.761228839946     0.303275281928     1.007825032230
         H           -1.463205124166    -1.997611160054    -0.169806718072     1.007825032230
         H           -0.876644124166    -1.342143160054    -1.710074718072     1.007825032230
         H           -0.687044124166     1.103593839946     1.651199281928     1.007825032230
         H           -1.307845724166    -0.527826160054     1.830501081928     1.007825032230
         H           -4.415410124166     0.184870839946    -0.039453718072     1.007825032230
         H           -3.594337124166    -0.999508160054     0.758322281928     1.007825032230
         H            0.685564875834    -2.291347160054     0.409414281928     1.007825032230
         H            3.599404875834     1.659430839946    -0.288670718072     1.007825032230
         H            0.172267875834     2.217951839946    -1.290897718072     1.007825032230
         H            0.541408875834     2.782947839946     0.342416281928     1.007825032230
         H            1.735387875834     2.982069839946    -0.937897718072     1.007825032230
         H            3.140726875834    -2.533333160054     0.546767281928     1.007825032230
         H            4.603539875834    -0.546255160054     0.205417281928     1.007825032230

  Basis Set: AUG-CC-PVTZ
    Blend: AUG-CC-PVTZ
  Basis Set: (AUG-CC-PVTZ AUX)
    Blend: AUG-CC-PVTZ-JKFIT
	 Reference Energy          =    -535.3090232879459336 [Eh]
	 Singles Energy            =      -0.0000000000000000 [Eh]
	 Same-Spin Energy          =      -0.5852440545540402 [Eh]
	 Opposite-Spin Energy      =      -1.9169787250590138 [Eh]
	 Correlation Energy        =      -2.5022227796130538 [Eh]
	 Total Energy              =    -537.8112460675589546 [Eh]

	 ================> DF-SCS-MP2 Energies <==================
	-----------------------------------------------------------
	 SCS Same-Spin Scale       =       0.3333333333333333 [-]
	 SCS Opposite-Spin Scale   =       1.2000000000000000 [-]
	 SCS Same-Spin Energy      =      -0.1950813515180134 [Eh]
	 SCS Opposite-Spin Energy  =      -2.3003744700708166 [Eh]
	 SCS Correlation Energy    =      -2.4954558215888301 [Eh]
	 SCS Total Energy          =    -537.8044791095347819 [Eh]
	-----------------------------------------------------------

  Dipole Moment: [D]
     X:   -12.1145      Y:    -0.6921      Z:     0.7457     Total:    12.1571

*** Psi4 exiting successfully. Buy a developer a beer!
