                               Psi4 1.4a3.dev225

  ==> Input File <==

--------------------------------------------------------------------------
#psi4
#
memory 32 gb

molecule  {
1 1
  N       -3.4197460    -0.1817000     0.1602720
  N       -0.6214370    -0.0078370    -0.1287630
  C       -2.7377630    -0.6049400    -1.1216890
  C       -2.6265040     0.8533270     0.9259500
  C       -1.3397990    -1.0900720    -0.7822260
  C       -1.2267490     0.3141230     1.1574790
  C        0.7695044    -0.1565767    -0.0476309
  C        1.6179690     0.9496740    -0.2359790
  C        1.3698700    -1.4337860     0.2499420
  C        3.0044760     0.7849240    -0.1342920
  C        1.0196790     2.2951990    -0.5492200
  C        2.7558540    -1.5738690     0.3292430
  C        3.5736970    -0.4590730     0.1432710
  H       -2.7010110     0.2771110    -1.7633110
  H       -3.3565410    -1.3799850    -1.5813290
  H       -3.1641810     1.0582560     1.8552750
  H       -2.5989570     1.7488760     0.3025170
  H       -1.4126900    -2.0099640    -0.1705650
  H       -0.8261290    -1.3544960    -1.7108330
  H       -0.6365290     1.0912410     1.6504410
  H       -1.2578930    -0.5558900     1.8421060
  H       -4.3648950     0.1725180    -0.0402120
  H       -3.5438220    -1.0118610     0.7575640
  H        0.7360800    -2.3037000     0.4086560
  H        3.6499200     1.6470780    -0.2894290
  H        0.2227830     2.2055990    -1.2916560
  H        0.5919240     2.7705950     0.3416580
  H        1.7859030     2.9697170    -0.9386560
  H        3.1912420    -2.5456860     0.5460090
  H        4.6540550    -0.5586080     0.2046590
units angstrom
no_reorient  #important for SAPT in psi4, default
symmetry c1  #important for SAPT in psi4, default
}

set PROPERTIES_ORIGIN ["COM"]
properties('MP2/aug-cc-pvtz', properties = ['dipole'])
--------------------------------------------------------------------------

    Molecular point group: c1
  Charge       = 1
  Multiplicity = 1
  Basis Set: AUG-CC-PVTZ
    Blend: AUG-CC-PVTZ
  Basis Set: (AUG-CC-PVTZ AUX)
    Blend: AUG-CC-PVTZ-JKFIT

    Orbital Energies [Eh]
    ---------------------

    Doubly Occupied:

       1A    -15.867735     2A    -15.704383     3A    -11.458090
       4A    -11.457840     5A    -11.419642     6A    -11.419084
       7A    -11.375955     8A    -11.343540     9A    -11.342602
      10A    -11.331105    11A    -11.329397    12A    -11.328220
      13A    -11.322068    14A     -1.498938    15A     -1.399490
      16A     -1.245585    17A     -1.223436    18A     -1.159644
      19A     -1.140905    20A     -1.084639    21A     -1.055689
      22A     -1.030686    23A     -0.998478    24A     -0.937372
      25A     -0.925798    26A     -0.901114    27A     -0.868103
      28A     -0.825054    29A     -0.812028    30A     -0.795565
      31A     -0.791621    32A     -0.757266    33A     -0.744230
      34A     -0.735974    35A     -0.711907    36A     -0.704730
      37A     -0.689233    38A     -0.675086    39A     -0.668680
      40A     -0.661806    41A     -0.659489    42A     -0.638596
      43A     -0.599011    44A     -0.594728    45A     -0.583099
      46A     -0.520702    47A     -0.428735    48A     -0.422276

  @DF-RHF Final Energy:  -535.30535643285498

   => Energetics <=

    Nuclear Repulsion Energy =            820.5136109063739696
    One-Electron Energy =               -2339.2592243520834927
    Two-Electron Energy =                 983.4402570128545449
    Total Energy =                       -535.3053564328549783
  Basis Set: (AUG-CC-PVTZ AUX)
    Blend: AUG-CC-PVTZ-RI
    Molecular point group: c1

    Geometry (in Angstrom), charge = 1, multiplicity = 1:

       Center              X                  Y                   Z               Mass
    ------------   -----------------  -----------------  -----------------  -----------------
         N           -3.467575179600    -0.171150339184     0.161495581929    14.003074004430
         N           -0.669266179600     0.002712660816    -0.127539418071    14.003074004430
         C           -2.785592179600    -0.594390339184    -1.120465418071    12.000000000000
         C           -2.674333179600     0.863876660816     0.927173581929    12.000000000000
         C           -1.387628179600    -1.079522339184    -0.781002418071    12.000000000000
         C           -1.274578179600     0.324672660816     1.158702581929    12.000000000000
         C            0.721675220400    -0.146027039184    -0.046407318071    12.000000000000
         C            1.570139820400     0.960223660816    -0.234755418071    12.000000000000
         C            1.322040820400    -1.423236339184     0.251165581929    12.000000000000
         C            2.956646820400     0.795473660816    -0.133068418071    12.000000000000
         C            0.971849820400     2.305748660816    -0.547996418071    12.000000000000
         C            2.708024820400    -1.563319339184     0.330466581929    12.000000000000
         C            3.525867820400    -0.448523339184     0.144494581929    12.000000000000
         H           -2.748840179600     0.287660660816    -1.762087418071     1.007825032230
         H           -3.404370179600    -1.369435339184    -1.580105418071     1.007825032230
         H           -3.212010179600     1.068805660816     1.856498581929     1.007825032230
         H           -2.646786179600     1.759425660816     0.303740581929     1.007825032230
         H           -1.460519179600    -1.999414339184    -0.169341418071     1.007825032230
         H           -0.873958179600    -1.343946339184    -1.709609418071     1.007825032230
         H           -0.684358179600     1.101790660816     1.651664581929     1.007825032230
         H           -1.305722179600    -0.545340339184     1.843329581929     1.007825032230
         H           -4.412724179600     0.183067660816    -0.038988418071     1.007825032230
         H           -3.591651179600    -1.001311339184     0.758787581929     1.007825032230
         H            0.688250820400    -2.293150339184     0.409879581929     1.007825032230
         H            3.602090820400     1.657627660816    -0.288205418071     1.007825032230
         H            0.174953820400     2.216148660816    -1.290432418071     1.007825032230
         H            0.544094820400     2.781144660816     0.342881581929     1.007825032230
         H            1.738073820400     2.980266660816    -0.937432418071     1.007825032230
         H            3.143412820400    -2.535136339184     0.547232581929     1.007825032230
         H            4.606225820400    -0.548058339184     0.205882581929     1.007825032230

  Basis Set: AUG-CC-PVTZ
    Blend: AUG-CC-PVTZ
  Basis Set: (AUG-CC-PVTZ AUX)
    Blend: AUG-CC-PVTZ-JKFIT
	 Reference Energy          =    -535.3053564328549783 [Eh]
	 Singles Energy            =      -0.0000000000000000 [Eh]
	 Same-Spin Energy          =      -0.5857228590500884 [Eh]
	 Opposite-Spin Energy      =      -1.9177041041623761 [Eh]
	 Correlation Energy        =      -2.5034269632124646 [Eh]
	 Total Energy              =    -537.8087833960674971 [Eh]

	 ================> DF-SCS-MP2 Energies <==================
	-----------------------------------------------------------
	 SCS Same-Spin Scale       =       0.3333333333333333 [-]
	 SCS Opposite-Spin Scale   =       1.2000000000000000 [-]
	 SCS Same-Spin Energy      =      -0.1952409530166961 [Eh]
	 SCS Opposite-Spin Energy  =      -2.3012449249948514 [Eh]
	 SCS Correlation Energy    =      -2.4964858780115478 [Eh]
	 SCS Total Energy          =    -537.8018423108665047 [Eh]
	-----------------------------------------------------------

  Dipole Moment: [D]
     X:   -12.2449      Y:    -0.6922      Z:     0.7326     Total:    12.2863

*** Psi4 exiting successfully. Buy a developer a beer!
