                               Psi4 1.4a3.dev225

  ==> Input File <==

--------------------------------------------------------------------------
#psi4
#
memory 32 gb

molecule  {
1 1
  N       -3.4197460    -0.1817000     0.1602720
  N       -0.6214370    -0.0078370    -0.1287630
  C       -2.7377630    -0.6049400    -1.1216890
  C       -2.6265040     0.8533270     0.9259500
  C       -1.3397990    -1.0900720    -0.7822260
  C       -1.2267490     0.3141230     1.1574790
  C        0.8091060    -0.1845140    -0.0397240
  C        1.6179690     0.9496740    -0.2359790
  C        1.3698700    -1.4337860     0.2499420
  C        3.0044760     0.7849240    -0.1342920
  C        1.0196790     2.2951990    -0.5492200
  C        2.6790945    -1.5156961     0.3149010
  C        3.5736970    -0.4590730     0.1432710
  H       -2.7010110     0.2771110    -1.7633110
  H       -3.3565410    -1.3799850    -1.5813290
  H       -3.1641810     1.0582560     1.8552750
  H       -2.5989570     1.7488760     0.3025170
  H       -1.4126900    -2.0099640    -0.1705650
  H       -0.8261290    -1.3544960    -1.7108330
  H       -0.6365290     1.0912410     1.6504410
  H       -1.2578930    -0.5558900     1.8421060
  H       -4.3648950     0.1725180    -0.0402120
  H       -3.5438220    -1.0118610     0.7575640
  H        0.7360800    -2.3037000     0.4086560
  H        3.6499200     1.6470780    -0.2894290
  H        0.2227830     2.2055990    -1.2916560
  H        0.5919240     2.7705950     0.3416580
  H        1.7859030     2.9697170    -0.9386560
  H        3.1912420    -2.5456860     0.5460090
  H        4.6540550    -0.5586080     0.2046590
units angstrom
no_reorient  #important for SAPT in psi4, default
symmetry c1  #important for SAPT in psi4, default
}

set PROPERTIES_ORIGIN ["COM"]
properties('MP2/aug-cc-pvtz', properties = ['dipole'])
--------------------------------------------------------------------------

    Molecular point group: c1
  Charge       = 1
  Multiplicity = 1
  Basis Set: AUG-CC-PVTZ
    Blend: AUG-CC-PVTZ
  Basis Set: (AUG-CC-PVTZ AUX)
    Blend: AUG-CC-PVTZ-JKFIT

    Orbital Energies [Eh]
    ---------------------

    Doubly Occupied:

       1A    -15.866801     2A    -15.702746     3A    -11.457077
       4A    -11.456883     5A    -11.417915     6A    -11.417405
       7A    -11.374729     8A    -11.343191     9A    -11.331139
      10A    -11.330042    11A    -11.329094    12A    -11.328296
      13A    -11.323305    14A     -1.497699    15A     -1.390496
      16A     -1.258286    17A     -1.222063    18A     -1.157742
      19A     -1.147468    20A     -1.092058    21A     -1.053721
      22A     -1.030671    23A     -0.995621    24A     -0.936151
      25A     -0.926036    26A     -0.901043    27A     -0.868182
      28A     -0.823919    29A     -0.806702    30A     -0.794597
      31A     -0.788297    32A     -0.759314    33A     -0.748038
      34A     -0.734922    35A     -0.712605    36A     -0.702649
      37A     -0.687572    38A     -0.676771    39A     -0.669393
      40A     -0.660242    41A     -0.650473    42A     -0.642003
      43A     -0.599848    44A     -0.597586    45A     -0.580687
      46A     -0.519065    47A     -0.440497    48A     -0.422707

  @DF-RHF Final Energy:  -535.29645297976606

   => Energetics <=

    Nuclear Repulsion Energy =            822.3500894595615591
    One-Electron Energy =               -2342.9455921617950480
    Two-Electron Energy =                 985.2990497224674300
    Total Energy =                       -535.2964529797660589
  Basis Set: (AUG-CC-PVTZ AUX)
    Blend: AUG-CC-PVTZ-RI
    Molecular point group: c1

    Geometry (in Angstrom), charge = 1, multiplicity = 1:

       Center              X                  Y                   Z               Mass
    ------------   -----------------  -----------------  -----------------  -----------------
         N           -3.465057979191    -0.173198599841     0.161931517123    14.003074004430
         N           -0.666748979191     0.000664400159    -0.127103482877    14.003074004430
         C           -2.783074979191    -0.596438599841    -1.120029482877    12.000000000000
         C           -2.671815979191     0.861828400159     0.927609517123    12.000000000000
         C           -1.385110979191    -1.081570599841    -0.780566482877    12.000000000000
         C           -1.272060979191     0.322624400159     1.159138517123    12.000000000000
         C            0.763794020809    -0.176012599841    -0.038064482877    12.000000000000
         C            1.572657020809     0.958175400159    -0.234319482877    12.000000000000
         C            1.324558020809    -1.425284599841     0.251601517123    12.000000000000
         C            2.959164020809     0.793425400159    -0.132632482877    12.000000000000
         C            0.974367020809     2.303700400159    -0.547560482877    12.000000000000
         C            2.633782520809    -1.507194699841     0.316560517123    12.000000000000
         C            3.528385020809    -0.450571599841     0.144930517123    12.000000000000
         H           -2.746322979191     0.285612400159    -1.761651482877     1.007825032230
         H           -3.401852979191    -1.371483599841    -1.579669482877     1.007825032230
         H           -3.209492979191     1.066757400159     1.856934517123     1.007825032230
         H           -2.644268979191     1.757377400159     0.304176517123     1.007825032230
         H           -1.458001979191    -2.001462599841    -0.168905482877     1.007825032230
         H           -0.871440979191    -1.345994599841    -1.709173482877     1.007825032230
         H           -0.681840979191     1.099742400159     1.652100517123     1.007825032230
         H           -1.303204979191    -0.547388599841     1.843765517123     1.007825032230
         H           -4.410206979191     0.181019400159    -0.038552482877     1.007825032230
         H           -3.589133979191    -1.003359599841     0.759223517123     1.007825032230
         H            0.690768020809    -2.295198599841     0.410315517123     1.007825032230
         H            3.604608020809     1.655579400159    -0.287769482877     1.007825032230
         H            0.177471020809     2.214100400159    -1.289996482877     1.007825032230
         H            0.546612020809     2.779096400159     0.343317517123     1.007825032230
         H            1.740591020809     2.978218400159    -0.936996482877     1.007825032230
         H            3.145930020809    -2.537184599841     0.547668517123     1.007825032230
         H            4.608743020809    -0.550106599841     0.206318517123     1.007825032230

  Basis Set: AUG-CC-PVTZ
    Blend: AUG-CC-PVTZ
  Basis Set: (AUG-CC-PVTZ AUX)
    Blend: AUG-CC-PVTZ-JKFIT
	 Reference Energy          =    -535.2964529797660589 [Eh]
	 Singles Energy            =      -0.0000000000000000 [Eh]
	 Same-Spin Energy          =      -0.5855803424681161 [Eh]
	 Opposite-Spin Energy      =      -1.9174709484617769 [Eh]
	 Correlation Energy        =      -2.5030512909298928 [Eh]
	 Total Energy              =    -537.7995042706959339 [Eh]

	 ================> DF-SCS-MP2 Energies <==================
	-----------------------------------------------------------
	 SCS Same-Spin Scale       =       0.3333333333333333 [-]
	 SCS Opposite-Spin Scale   =       1.2000000000000000 [-]
	 SCS Same-Spin Energy      =      -0.1951934474893720 [Eh]
	 SCS Opposite-Spin Energy  =      -2.3009651381541323 [Eh]
	 SCS Correlation Energy    =      -2.4961585856435042 [Eh]
	 SCS Total Energy          =    -537.7926115654095156 [Eh]
	-----------------------------------------------------------

  Dipole Moment: [D]
     X:   -12.0930      Y:    -0.6503      Z:     0.7236     Total:    12.1321

*** Psi4 exiting successfully. Buy a developer a beer!
