                               Psi4 1.4a3.dev225

  ==> Input File <==

--------------------------------------------------------------------------
#psi4
#
memory 32 gb

molecule  {
1 1
  N       -3.4197460    -0.1817000     0.1602720
  N       -0.6214370    -0.0078370    -0.1287630
  C       -2.7377630    -0.6049400    -1.1216890
  C       -2.6296637     0.8853531     0.8841119
  C       -1.3397990    -1.0900720    -0.7822260
  C       -1.2267490     0.3141230     1.1574790
  C        0.8091060    -0.1845140    -0.0397240
  C        1.6179690     0.9496740    -0.2359790
  C        1.3698700    -1.4337860     0.2499420
  C        3.0044760     0.7849240    -0.1342920
  C        1.0196790     2.2951990    -0.5492200
  C        2.7558540    -1.5738690     0.3292430
  C        3.5736970    -0.4590730     0.1432710
  H       -2.7010110     0.2771110    -1.7633110
  H       -3.3565410    -1.3799850    -1.5813290
  H       -3.1641810     1.0582560     1.8552750
  H       -2.5989570     1.7488760     0.3025170
  H       -1.4126900    -2.0099640    -0.1705650
  H       -0.8261290    -1.3544960    -1.7108330
  H       -0.6365290     1.0912410     1.6504410
  H       -1.2578930    -0.5558900     1.8421060
  H       -4.3648950     0.1725180    -0.0402120
  H       -3.5438220    -1.0118610     0.7575640
  H        0.7360800    -2.3037000     0.4086560
  H        3.6499200     1.6470780    -0.2894290
  H        0.2227830     2.2055990    -1.2916560
  H        0.5919240     2.7705950     0.3416580
  H        1.7859030     2.9697170    -0.9386560
  H        3.1912420    -2.5456860     0.5460090
  H        4.6540550    -0.5586080     0.2046590
units angstrom
no_reorient  #important for SAPT in psi4, default
symmetry c1  #important for SAPT in psi4, default
}

set PROPERTIES_ORIGIN ["COM"]
properties('MP2/aug-cc-pvtz', properties = ['dipole'])
--------------------------------------------------------------------------

    Molecular point group: c1
  Charge       = 1
  Multiplicity = 1
  Basis Set: AUG-CC-PVTZ
    Blend: AUG-CC-PVTZ
  Basis Set: (AUG-CC-PVTZ AUX)
    Blend: AUG-CC-PVTZ-JKFIT

    Orbital Energies [Eh]
    ---------------------

    Doubly Occupied:

       1A    -15.866822     2A    -15.702366     3A    -11.456514
       4A    -11.456034     5A    -11.418399     6A    -11.417417
       7A    -11.374941     8A    -11.344270     9A    -11.340050
      10A    -11.331755    11A    -11.329834    12A    -11.328527
      13A    -11.323699    14A     -1.497454    15A     -1.389910
      16A     -1.249738    17A     -1.219726    18A     -1.154948
      19A     -1.142499    20A     -1.088575    21A     -1.053142
      22A     -1.032388    23A     -0.998342    24A     -0.934832
      25A     -0.923176    26A     -0.902925    27A     -0.866834
      28A     -0.830553    29A     -0.810692    30A     -0.791724
      31A     -0.785315    32A     -0.754768    33A     -0.745492
      34A     -0.729749    35A     -0.717148    36A     -0.707654
      37A     -0.691024    38A     -0.675245    39A     -0.669339
      40A     -0.658963    41A     -0.652500    42A     -0.640357
      43A     -0.599974    44A     -0.591127    45A     -0.587834
      46A     -0.521316    47A     -0.433462    48A     -0.423362

  @DF-RHF Final Energy:  -535.30550979244265

   => Energetics <=

    Nuclear Repulsion Energy =            820.2361814599465788
    One-Electron Energy =               -2338.7579462467128906
    Two-Electron Energy =                 983.2162549943235490
    Total Energy =                       -535.3055097924426491
  Basis Set: (AUG-CC-PVTZ AUX)
    Blend: AUG-CC-PVTZ-RI
    Molecular point group: c1

    Geometry (in Angstrom), charge = 1, multiplicity = 1:

       Center              X                  Y                   Z               Mass
    ------------   -----------------  -----------------  -----------------  -----------------
         N           -3.470043875773    -0.171427328170     0.163794194889    14.003074004430
         N           -0.671734875773     0.002435671830    -0.125240805111    14.003074004430
         C           -2.788060875773    -0.594667328170    -1.118166805111    12.000000000000
         C           -2.679961575773     0.895625771830     0.887634094889    12.000000000000
         C           -1.390096875773    -1.079799328170    -0.778703805111    12.000000000000
         C           -1.277046875773     0.324395671830     1.161001194889    12.000000000000
         C            0.758808124227    -0.174241328170    -0.036201805111    12.000000000000
         C            1.567671124227     0.959946671830    -0.232456805111    12.000000000000
         C            1.319572124227    -1.423513328170     0.253464194889    12.000000000000
         C            2.954178124227     0.795196671830    -0.130769805111    12.000000000000
         C            0.969381124227     2.305471671830    -0.545697805111    12.000000000000
         C            2.705556124227    -1.563596328170     0.332765194889    12.000000000000
         C            3.523399124227    -0.448800328170     0.146793194889    12.000000000000
         H           -2.751308875773     0.287383671830    -1.759788805111     1.007825032230
         H           -3.406838875773    -1.369712328170    -1.577806805111     1.007825032230
         H           -3.214478875773     1.068528671830     1.858797194889     1.007825032230
         H           -2.649254875773     1.759148671830     0.306039194889     1.007825032230
         H           -1.462987875773    -1.999691328170    -0.167042805111     1.007825032230
         H           -0.876426875773    -1.344223328170    -1.707310805111     1.007825032230
         H           -0.686826875773     1.101513671830     1.653963194889     1.007825032230
         H           -1.308190875773    -0.545617328170     1.845628194889     1.007825032230
         H           -4.415192875773     0.182790671830    -0.036689805111     1.007825032230
         H           -3.594119875773    -1.001588328170     0.761086194889     1.007825032230
         H            0.685782124227    -2.293427328170     0.412178194889     1.007825032230
         H            3.599622124227     1.657350671830    -0.285906805111     1.007825032230
         H            0.172485124227     2.215871671830    -1.288133805111     1.007825032230
         H            0.541626124227     2.780867671830     0.345180194889     1.007825032230
         H            1.735605124227     2.979989671830    -0.935133805111     1.007825032230
         H            3.140944124227    -2.535413328170     0.549531194889     1.007825032230
         H            4.603757124227    -0.548335328170     0.208181194889     1.007825032230

  Basis Set: AUG-CC-PVTZ
    Blend: AUG-CC-PVTZ
  Basis Set: (AUG-CC-PVTZ AUX)
    Blend: AUG-CC-PVTZ-JKFIT
	 Reference Energy          =    -535.3055097924426491 [Eh]
	 Singles Energy            =      -0.0000000000000000 [Eh]
	 Same-Spin Energy          =      -0.5852228188721188 [Eh]
	 Opposite-Spin Energy      =      -1.9172587520205313 [Eh]
	 Correlation Energy        =      -2.5024815708926500 [Eh]
	 Total Energy              =    -537.8079913633353044 [Eh]

	 ================> DF-SCS-MP2 Energies <==================
	-----------------------------------------------------------
	 SCS Same-Spin Scale       =       0.3333333333333333 [-]
	 SCS Opposite-Spin Scale   =       1.2000000000000000 [-]
	 SCS Same-Spin Energy      =      -0.1950742729573729 [Eh]
	 SCS Opposite-Spin Energy  =      -2.3007105024246375 [Eh]
	 SCS Correlation Energy    =      -2.4957847753820106 [Eh]
	 SCS Total Energy          =    -537.8012945678246979 [Eh]
	-----------------------------------------------------------

  Dipole Moment: [D]
     X:   -12.1063      Y:    -0.6818      Z:     0.7202     Total:    12.1469

*** Psi4 exiting successfully. Buy a developer a beer!
