                               Psi4 1.4a3.dev225

  ==> Input File <==

--------------------------------------------------------------------------
#psi4
#
memory 32 gb

molecule  {
1 1
  N       -3.4197460    -0.1817000     0.1602720
  N       -0.6046588     0.0897500    -0.1476330
  C       -2.7377630    -0.6049400    -1.1216890
  C       -2.6265040     0.8533270     0.9259500
  C       -1.3397990    -1.0900720    -0.7822260
  C       -1.2267490     0.3141230     1.1574790
  C        0.8091060    -0.1845140    -0.0397240
  C        1.6179690     0.9496740    -0.2359790
  C        1.3698700    -1.4337860     0.2499420
  C        3.0044760     0.7849240    -0.1342920
  C        1.0196790     2.2951990    -0.5492200
  C        2.7558540    -1.5738690     0.3292430
  C        3.5736970    -0.4590730     0.1432710
  H       -2.7010110     0.2771110    -1.7633110
  H       -3.3565410    -1.3799850    -1.5813290
  H       -3.1641810     1.0582560     1.8552750
  H       -2.5989570     1.7488760     0.3025170
  H       -1.4126900    -2.0099640    -0.1705650
  H       -0.8261290    -1.3544960    -1.7108330
  H       -0.6365290     1.0912410     1.6504410
  H       -1.2578930    -0.5558900     1.8421060
  H       -4.3648950     0.1725180    -0.0402120
  H       -3.5438220    -1.0118610     0.7575640
  H        0.7360800    -2.3037000     0.4086560
  H        3.6499200     1.6470780    -0.2894290
  H        0.2227830     2.2055990    -1.2916560
  H        0.5919240     2.7705950     0.3416580
  H        1.7859030     2.9697170    -0.9386560
  H        3.1912420    -2.5456860     0.5460090
  H        4.6540550    -0.5586080     0.2046590
units angstrom
no_reorient  #important for SAPT in psi4, default
symmetry c1  #important for SAPT in psi4, default
}

set PROPERTIES_ORIGIN ["COM"]
properties('MP2/aug-cc-pvtz', properties = ['dipole'])
--------------------------------------------------------------------------

    Molecular point group: c1
  Charge       = 1
  Multiplicity = 1
  Basis Set: AUG-CC-PVTZ
    Blend: AUG-CC-PVTZ
  Basis Set: (AUG-CC-PVTZ AUX)
    Blend: AUG-CC-PVTZ-JKFIT

    Orbital Energies [Eh]
    ---------------------

    Doubly Occupied:

       1A    -15.866666     2A    -15.712095     3A    -11.457431
       4A    -11.456409     5A    -11.420930     6A    -11.416636
       7A    -11.374013     8A    -11.342245     9A    -11.341966
      10A    -11.332388    11A    -11.329214    12A    -11.327975
      13A    -11.321666    14A     -1.496952    15A     -1.381863
      16A     -1.248448    17A     -1.220161    18A     -1.157266
      19A     -1.140906    20A     -1.086968    21A     -1.047695
      22A     -1.030188    23A     -0.998839    24A     -0.936494
      25A     -0.923328    26A     -0.900338    27A     -0.869145
      28A     -0.824660    29A     -0.809638    30A     -0.786656
      31A     -0.782023    32A     -0.753020    33A     -0.744835
      34A     -0.734429    35A     -0.713442    36A     -0.704645
      37A     -0.689088    38A     -0.673137    39A     -0.668996
      40A     -0.658114    41A     -0.645383    42A     -0.639659
      43A     -0.600746    44A     -0.589179    45A     -0.585332
      46A     -0.533554    47A     -0.433871    48A     -0.423167

  @DF-RHF Final Energy:  -535.29975492805534

   => Energetics <=

    Nuclear Repulsion Energy =            819.5734250889230452
    One-Electron Energy =               -2337.4827650045426708
    Two-Electron Energy =                 982.6095849875641761
    Total Energy =                       -535.2997549280553358
  Basis Set: (AUG-CC-PVTZ AUX)
    Blend: AUG-CC-PVTZ-RI
    Molecular point group: c1

    Geometry (in Angstrom), charge = 1, multiplicity = 1:

       Center              X                  Y                   Z               Mass
    ------------   -----------------  -----------------  -----------------  -----------------
         N           -3.471584262187    -0.176972147891     0.162451639266    14.003074004430
         N           -0.656497062187     0.094477852109    -0.145453360734    14.003074004430
         C           -2.789601262187    -0.600212147891    -1.119509360734    12.000000000000
         C           -2.678342262187     0.858054852109     0.928129639266    12.000000000000
         C           -1.391637262187    -1.085344147891    -0.780046360734    12.000000000000
         C           -1.278587262187     0.318850852109     1.159658639266    12.000000000000
         C            0.757267737813    -0.179786147891    -0.037544360734    12.000000000000
         C            1.566130737813     0.954401852109    -0.233799360734    12.000000000000
         C            1.318031737813    -1.429058147891     0.252121639266    12.000000000000
         C            2.952637737813     0.789651852109    -0.132112360734    12.000000000000
         C            0.967840737813     2.299926852109    -0.547040360734    12.000000000000
         C            2.704015737813    -1.569141147891     0.331422639266    12.000000000000
         C            3.521858737813    -0.454345147891     0.145450639266    12.000000000000
         H           -2.752849262187     0.281838852109    -1.761131360734     1.007825032230
         H           -3.408379262187    -1.375257147891    -1.579149360734     1.007825032230
         H           -3.216019262187     1.062983852109     1.857454639266     1.007825032230
         H           -2.650795262187     1.753603852109     0.304696639266     1.007825032230
         H           -1.464528262187    -2.005236147891    -0.168385360734     1.007825032230
         H           -0.877967262187    -1.349768147891    -1.708653360734     1.007825032230
         H           -0.688367262187     1.095968852109     1.652620639266     1.007825032230
         H           -1.309731262187    -0.551162147891     1.844285639266     1.007825032230
         H           -4.416733262187     0.177245852109    -0.038032360734     1.007825032230
         H           -3.595660262187    -1.007133147891     0.759743639266     1.007825032230
         H            0.684241737813    -2.298972147891     0.410835639266     1.007825032230
         H            3.598081737813     1.651805852109    -0.287249360734     1.007825032230
         H            0.170944737813     2.210326852109    -1.289476360734     1.007825032230
         H            0.540085737813     2.775322852109     0.343837639266     1.007825032230
         H            1.734064737813     2.974444852109    -0.936476360734     1.007825032230
         H            3.139403737813    -2.540958147891     0.548188639266     1.007825032230
         H            4.602216737813    -0.553880147891     0.206838639266     1.007825032230

  Basis Set: AUG-CC-PVTZ
    Blend: AUG-CC-PVTZ
  Basis Set: (AUG-CC-PVTZ AUX)
    Blend: AUG-CC-PVTZ-JKFIT
	 Reference Energy          =    -535.2997549280553358 [Eh]
	 Singles Energy            =      -0.0000000000000000 [Eh]
	 Same-Spin Energy          =      -0.5859119664806274 [Eh]
	 Opposite-Spin Energy      =      -1.9195007743348480 [Eh]
	 Correlation Energy        =      -2.5054127408154754 [Eh]
	 Total Energy              =    -537.8051676688708085 [Eh]

	 ================> DF-SCS-MP2 Energies <==================
	-----------------------------------------------------------
	 SCS Same-Spin Scale       =       0.3333333333333333 [-]
	 SCS Opposite-Spin Scale   =       1.2000000000000000 [-]
	 SCS Same-Spin Energy      =      -0.1953039888268758 [Eh]
	 SCS Opposite-Spin Energy  =      -2.3034009292018176 [Eh]
	 SCS Correlation Energy    =      -2.4987049180286935 [Eh]
	 SCS Total Energy          =    -537.7984598460840289 [Eh]
	-----------------------------------------------------------

  Dipole Moment: [D]
     X:   -12.1845      Y:    -0.9287      Z:     0.7874     Total:    12.2452

*** Psi4 exiting successfully. Buy a developer a beer!
