                               Psi4 1.4a3.dev225

  ==> Input File <==

--------------------------------------------------------------------------
#psi4
#
memory 32 gb

molecule  {
1 1
  N       -3.4197460    -0.1817000     0.1602720
  N       -0.6214370    -0.0078370    -0.1287630
  C       -2.7377630    -0.6049400    -1.1216890
  C       -2.6265040     0.8533270     0.9259500
  C       -1.3397990    -1.0900720    -0.7822260
  C       -1.2267490     0.3141230     1.1574790
  C        0.8091060    -0.1845140    -0.0397240
  C        1.6179690     0.9496740    -0.2359790
  C        1.3698700    -1.4337860     0.2499420
  C        3.0044760     0.7849240    -0.1342920
  C        1.0276271     2.2773241    -0.5450587
  C        2.7558540    -1.5738690     0.3292430
  C        3.5736970    -0.4590730     0.1432710
  H       -2.7010110     0.2771110    -1.7633110
  H       -3.3565410    -1.3799850    -1.5813290
  H       -3.1641810     1.0582560     1.8552750
  H       -2.5989570     1.7488760     0.3025170
  H       -1.4126900    -2.0099640    -0.1705650
  H       -0.8261290    -1.3544960    -1.7108330
  H       -0.6365290     1.0912410     1.6504410
  H       -1.2578930    -0.5558900     1.8421060
  H       -4.3648950     0.1725180    -0.0402120
  H       -3.5438220    -1.0118610     0.7575640
  H        0.7360800    -2.3037000     0.4086560
  H        3.6499200     1.6470780    -0.2894290
  H        0.2227830     2.2055990    -1.2916560
  H        0.5919240     2.7705950     0.3416580
  H        1.7859030     2.9697170    -0.9386560
  H        3.1912420    -2.5456860     0.5460090
  H        4.6540550    -0.5586080     0.2046590
units angstrom
no_reorient  #important for SAPT in psi4, default
symmetry c1  #important for SAPT in psi4, default
}

set PROPERTIES_ORIGIN ["COM"]
properties('MP2/aug-cc-pvtz', properties = ['dipole'])
--------------------------------------------------------------------------

    Molecular point group: c1
  Charge       = 1
  Multiplicity = 1
  Basis Set: AUG-CC-PVTZ
    Blend: AUG-CC-PVTZ
  Basis Set: (AUG-CC-PVTZ AUX)
    Blend: AUG-CC-PVTZ-JKFIT

    Orbital Energies [Eh]
    ---------------------

    Doubly Occupied:

       1A    -15.866633     2A    -15.703097     3A    -11.456815
       4A    -11.456765     5A    -11.417573     6A    -11.417268
       7A    -11.375246     8A    -11.343559     9A    -11.340287
      10A    -11.331912    11A    -11.329954    12A    -11.328686
      13A    -11.324163    14A     -1.497540    15A     -1.390359
      16A     -1.250670    17A     -1.221864    18A     -1.156225
      19A     -1.144292    20A     -1.088300    21A     -1.053517
      22A     -1.031371    23A     -0.996081    24A     -0.935633
      25A     -0.924414    26A     -0.903127    27A     -0.867533
      28A     -0.823724    29A     -0.810418    30A     -0.793603
      31A     -0.788545    32A     -0.755937    33A     -0.745077
      34A     -0.734597    35A     -0.714787    36A     -0.704913
      37A     -0.687893    38A     -0.673669    39A     -0.671300
      40A     -0.660135    41A     -0.655763    42A     -0.637513
      43A     -0.602152    44A     -0.590765    45A     -0.587482
      46A     -0.521739    47A     -0.433587    48A     -0.423158

  @DF-RHF Final Energy:  -535.30816995196744

   => Energetics <=

    Nuclear Repulsion Energy =            820.6555934811984798
    One-Electron Energy =               -2339.5882402430906950
    Two-Electron Energy =                 983.6244768099246585
    Total Energy =                       -535.3081699519674430
  Basis Set: (AUG-CC-PVTZ AUX)
    Blend: AUG-CC-PVTZ-RI
    Molecular point group: c1

    Geometry (in Angstrom), charge = 1, multiplicity = 1:

       Center              X                  Y                   Z               Mass
    ------------   -----------------  -----------------  -----------------  -----------------
         N           -3.470796355292    -0.168046867553     0.160678041703    14.003074004430
         N           -0.672487355292     0.005816132447    -0.128356958297    14.003074004430
         C           -2.788813355292    -0.591286867553    -1.121282958297    12.000000000000
         C           -2.677554355292     0.866980132447     0.926356041703    12.000000000000
         C           -1.390849355292    -1.076418867553    -0.781819958297    12.000000000000
         C           -1.277799355292     0.327776132447     1.157885041703    12.000000000000
         C            0.758055644708    -0.170860867553    -0.039317958297    12.000000000000
         C            1.566918644708     0.963327132447    -0.235572958297    12.000000000000
         C            1.318819644708    -1.420132867553     0.250348041703    12.000000000000
         C            2.953425644708     0.798577132447    -0.133885958297    12.000000000000
         C            0.976576744708     2.290977232447    -0.544652658297    12.000000000000
         C            2.704803644708    -1.560215867553     0.329649041703    12.000000000000
         C            3.522646644708    -0.445419867553     0.143677041703    12.000000000000
         H           -2.752061355292     0.290764132447    -1.762904958297     1.007825032230
         H           -3.407591355292    -1.366331867553    -1.580922958297     1.007825032230
         H           -3.215231355292     1.071909132447     1.855681041703     1.007825032230
         H           -2.650007355292     1.762529132447     0.302923041703     1.007825032230
         H           -1.463740355292    -1.996310867553    -0.170158958297     1.007825032230
         H           -0.877179355292    -1.340842867553    -1.710426958297     1.007825032230
         H           -0.687579355292     1.104894132447     1.650847041703     1.007825032230
         H           -1.308943355292    -0.542236867553     1.842512041703     1.007825032230
         H           -4.415945355292     0.186171132447    -0.039805958297     1.007825032230
         H           -3.594872355292    -0.998207867553     0.757970041703     1.007825032230
         H            0.685029644708    -2.290046867553     0.409062041703     1.007825032230
         H            3.598869644708     1.660731132447    -0.289022958297     1.007825032230
         H            0.171732644708     2.219252132447    -1.291249958297     1.007825032230
         H            0.540873644708     2.784248132447     0.342064041703     1.007825032230
         H            1.734852644708     2.983370132447    -0.938249958297     1.007825032230
         H            3.140191644708    -2.532032867553     0.546415041703     1.007825032230
         H            4.603004644708    -0.544954867553     0.205065041703     1.007825032230

  Basis Set: AUG-CC-PVTZ
    Blend: AUG-CC-PVTZ
  Basis Set: (AUG-CC-PVTZ AUX)
    Blend: AUG-CC-PVTZ-JKFIT
	 Reference Energy          =    -535.3081699519674430 [Eh]
	 Singles Energy            =      -0.0000000000000000 [Eh]
	 Same-Spin Energy          =      -0.5855059593560379 [Eh]
	 Opposite-Spin Energy      =      -1.9173317689051808 [Eh]
	 Correlation Energy        =      -2.5028377282612189 [Eh]
	 Total Energy              =    -537.8110076802286130 [Eh]

	 ================> DF-SCS-MP2 Energies <==================
	-----------------------------------------------------------
	 SCS Same-Spin Scale       =       0.3333333333333333 [-]
	 SCS Opposite-Spin Scale   =       1.2000000000000000 [-]
	 SCS Same-Spin Energy      =      -0.1951686531186793 [Eh]
	 SCS Opposite-Spin Energy  =      -2.3007981226862166 [Eh]
	 SCS Correlation Energy    =      -2.4959667758048960 [Eh]
	 SCS Total Energy          =    -537.8041367277722884 [Eh]
	-----------------------------------------------------------

  Dipole Moment: [D]
     X:   -12.1093      Y:    -0.6778      Z:     0.7297     Total:    12.1502

*** Psi4 exiting successfully. Buy a developer a beer!
