                               Psi4 1.4a3.dev225

  ==> Input File <==

--------------------------------------------------------------------------
#psi4
#
memory 32 gb

molecule  {
1 1
  N       -3.4197460    -0.1817000     0.1602720
  N       -0.6214370    -0.0078370    -0.1287630
  C       -2.7377630    -0.6049400    -1.1216890
  C       -2.6265040     0.8533270     0.9259500
  C       -1.3397990    -1.0900720    -0.7822260
  C       -1.2267490     0.3141230     1.1574790
  C        0.8091060    -0.1845140    -0.0397240
  C        1.6179690     0.9496740    -0.2359790
  C        1.3698700    -1.4337860     0.2499420
  C        3.0044760     0.7849240    -0.1342920
  C        1.0196790     2.2951990    -0.5492200
  C        2.7558540    -1.5738690     0.3292430
  C        3.5736970    -0.4590730     0.1432710
  H       -2.7010110     0.2771110    -1.7633110
  H       -3.3565410    -1.3799850    -1.5813290
  H       -3.1641810     1.0582560     1.8552750
  H       -2.5989570     1.7488760     0.3025170
  H       -1.4126900    -2.0099640    -0.1705650
  H       -0.8261290    -1.3544960    -1.7108330
  H       -0.6365290     1.0912410     1.6504410
  H       -1.2584554    -0.5716010     1.8544692
  H       -4.3648950     0.1725180    -0.0402120
  H       -3.5438220    -1.0118610     0.7575640
  H        0.7360800    -2.3037000     0.4086560
  H        3.6499200     1.6470780    -0.2894290
  H        0.2227830     2.2055990    -1.2916560
  H        0.5919240     2.7705950     0.3416580
  H        1.7859030     2.9697170    -0.9386560
  H        3.1912420    -2.5456860     0.5460090
  H        4.6540550    -0.5586080     0.2046590
units angstrom
no_reorient  #important for SAPT in psi4, default
symmetry c1  #important for SAPT in psi4, default
}

set PROPERTIES_ORIGIN ["COM"]
properties('MP2/aug-cc-pvtz', properties = ['dipole'])
--------------------------------------------------------------------------

    Molecular point group: c1
  Charge       = 1
  Multiplicity = 1
  Basis Set: AUG-CC-PVTZ
    Blend: AUG-CC-PVTZ
  Basis Set: (AUG-CC-PVTZ AUX)
    Blend: AUG-CC-PVTZ-JKFIT

    Orbital Energies [Eh]
    ---------------------

    Doubly Occupied:

       1A    -15.866632     2A    -15.703503     3A    -11.456979
       4A    -11.456859     5A    -11.419567     6A    -11.417608
       7A    -11.375253     8A    -11.344483     9A    -11.340260
      10A    -11.331854    11A    -11.329943    12A    -11.328678
      13A    -11.323679    14A     -1.497536    15A     -1.390335
      16A     -1.249960    17A     -1.221632    18A     -1.155586
      19A     -1.142700    20A     -1.088190    21A     -1.052978
      22A     -1.032066    23A     -0.995403    24A     -0.935325
      25A     -0.924179    26A     -0.903429    27A     -0.867151
      28A     -0.823051    29A     -0.809830    30A     -0.793428
      31A     -0.788424    32A     -0.755073    33A     -0.744823
      34A     -0.734679    35A     -0.714609    36A     -0.704089
      37A     -0.686304    38A     -0.675281    39A     -0.669599
      40A     -0.659879    41A     -0.655640    42A     -0.640593
      43A     -0.599900    44A     -0.591769    45A     -0.588138
      46A     -0.521570    47A     -0.433626    48A     -0.423577

  @DF-RHF Final Energy:  -535.30828470755705

   => Energetics <=

    Nuclear Repulsion Energy =            820.1863729784798807
    One-Electron Energy =               -2338.6580105254811315
    Two-Electron Energy =                 983.1633528394440873
    Total Energy =                       -535.3082847075570498
  Basis Set: (AUG-CC-PVTZ AUX)
    Blend: AUG-CC-PVTZ-RI
    Molecular point group: c1

    Geometry (in Angstrom), charge = 1, multiplicity = 1:

       Center              X                  Y                   Z               Mass
    ------------   -----------------  -----------------  -----------------  -----------------
         N           -3.470254724670    -0.169168386057     0.160889602234    14.003074004430
         N           -0.671945724670     0.004694613943    -0.128145397766    14.003074004430
         C           -2.788271724670    -0.592408386057    -1.121071397766    12.000000000000
         C           -2.677012724670     0.865858613943     0.926567602234    12.000000000000
         C           -1.390307724670    -1.077540386057    -0.781608397766    12.000000000000
         C           -1.277257724670     0.326654613943     1.158096602234    12.000000000000
         C            0.758597275330    -0.171982386057    -0.039106397766    12.000000000000
         C            1.567460275330     0.962205613943    -0.235361397766    12.000000000000
         C            1.319361275330    -1.421254386057     0.250559602234    12.000000000000
         C            2.953967275330     0.797455613943    -0.133674397766    12.000000000000
         C            0.969170275330     2.307730613943    -0.548602397766    12.000000000000
         C            2.705345275330    -1.561337386057     0.329860602234    12.000000000000
         C            3.523188275330    -0.446541386057     0.143888602234    12.000000000000
         H           -2.751519724670     0.289642613943    -1.762693397766     1.007825032230
         H           -3.407049724670    -1.367453386057    -1.580711397766     1.007825032230
         H           -3.214689724670     1.070787613943     1.855892602234     1.007825032230
         H           -2.649465724670     1.761407613943     0.303134602234     1.007825032230
         H           -1.463198724670    -1.997432386057    -0.169947397766     1.007825032230
         H           -0.876637724670    -1.341964386057    -1.710215397766     1.007825032230
         H           -0.687037724670     1.103772613943     1.651058602234     1.007825032230
         H           -1.308964124670    -0.559069386057     1.855086802234     1.007825032230
         H           -4.415403724670     0.185049613943    -0.039594397766     1.007825032230
         H           -3.594330724670    -0.999329386057     0.758181602234     1.007825032230
         H            0.685571275330    -2.291168386057     0.409273602234     1.007825032230
         H            3.599411275330     1.659609613943    -0.288811397766     1.007825032230
         H            0.172274275330     2.218130613943    -1.291038397766     1.007825032230
         H            0.541415275330     2.783126613943     0.342275602234     1.007825032230
         H            1.735394275330     2.982248613943    -0.938038397766     1.007825032230
         H            3.140733275330    -2.533154386057     0.546626602234     1.007825032230
         H            4.603546275330    -0.546076386057     0.205276602234     1.007825032230

  Basis Set: AUG-CC-PVTZ
    Blend: AUG-CC-PVTZ
  Basis Set: (AUG-CC-PVTZ AUX)
    Blend: AUG-CC-PVTZ-JKFIT
	 Reference Energy          =    -535.3082847075570498 [Eh]
	 Singles Energy            =      -0.0000000000000000 [Eh]
	 Same-Spin Energy          =      -0.5853491869088342 [Eh]
	 Opposite-Spin Energy      =      -1.9173308001980145 [Eh]
	 Correlation Energy        =      -2.5026799871068488 [Eh]
	 Total Energy              =    -537.8109646946638804 [Eh]

	 ================> DF-SCS-MP2 Energies <==================
	-----------------------------------------------------------
	 SCS Same-Spin Scale       =       0.3333333333333333 [-]
	 SCS Opposite-Spin Scale   =       1.2000000000000000 [-]
	 SCS Same-Spin Energy      =      -0.1951163956362781 [Eh]
	 SCS Opposite-Spin Energy  =      -2.3007969602376175 [Eh]
	 SCS Correlation Energy    =      -2.4959133558738955 [Eh]
	 SCS Total Energy          =    -537.8041980634309311 [Eh]
	-----------------------------------------------------------

  Dipole Moment: [D]
     X:   -12.0981      Y:    -0.6770      Z:     0.7184     Total:    12.1383

*** Psi4 exiting successfully. Buy a developer a beer!
