                               Psi4 1.4a3.dev225

  ==> Input File <==

--------------------------------------------------------------------------
#psi4
#
memory 32 gb

molecule  {
1 1
  N       -3.4197460    -0.1817000     0.1602720
  N       -0.6214370    -0.0078370    -0.1287630
  C       -2.7377630    -0.6049400    -1.1216890
  C       -2.6265040     0.8533270     0.9259500
  C       -1.2937584    -1.1060493    -0.7710461
  C       -1.2267490     0.3141230     1.1574790
  C        0.8091060    -0.1845140    -0.0397240
  C        1.6179690     0.9496740    -0.2359790
  C        1.3698700    -1.4337860     0.2499420
  C        3.0044760     0.7849240    -0.1342920
  C        1.0196790     2.2951990    -0.5492200
  C        2.7558540    -1.5738690     0.3292430
  C        3.5736970    -0.4590730     0.1432710
  H       -2.7010110     0.2771110    -1.7633110
  H       -3.3565410    -1.3799850    -1.5813290
  H       -3.1641810     1.0582560     1.8552750
  H       -2.5989570     1.7488760     0.3025170
  H       -1.4126900    -2.0099640    -0.1705650
  H       -0.8261290    -1.3544960    -1.7108330
  H       -0.6365290     1.0912410     1.6504410
  H       -1.2578930    -0.5558900     1.8421060
  H       -4.3648950     0.1725180    -0.0402120
  H       -3.5438220    -1.0118610     0.7575640
  H        0.7360800    -2.3037000     0.4086560
  H        3.6499200     1.6470780    -0.2894290
  H        0.2227830     2.2055990    -1.2916560
  H        0.5919240     2.7705950     0.3416580
  H        1.7859030     2.9697170    -0.9386560
  H        3.1912420    -2.5456860     0.5460090
  H        4.6540550    -0.5586080     0.2046590
units angstrom
no_reorient  #important for SAPT in psi4, default
symmetry c1  #important for SAPT in psi4, default
}

set PROPERTIES_ORIGIN ["COM"]
properties('MP2/aug-cc-pvtz', properties = ['dipole'])
--------------------------------------------------------------------------

    Molecular point group: c1
  Charge       = 1
  Multiplicity = 1
  Basis Set: AUG-CC-PVTZ
    Blend: AUG-CC-PVTZ
  Basis Set: (AUG-CC-PVTZ AUX)
    Blend: AUG-CC-PVTZ-JKFIT

    Orbital Energies [Eh]
    ---------------------

    Doubly Occupied:

       1A    -15.866018     2A    -15.703901     3A    -11.456689
       4A    -11.455891     5A    -11.418391     6A    -11.417626
       7A    -11.375036     8A    -11.344423     9A    -11.340414
      10A    -11.332100    11A    -11.330067    12A    -11.328761
      13A    -11.323851    14A     -1.495851    15A     -1.394211
      16A     -1.249940    17A     -1.217473    18A     -1.153596
      19A     -1.141559    20A     -1.087450    21A     -1.056321
      22A     -1.032223    23A     -0.996285    24A     -0.935244
      25A     -0.924056    26A     -0.903504    27A     -0.867719
      28A     -0.822316    29A     -0.810301    30A     -0.796330
      31A     -0.789282    32A     -0.755510    33A     -0.744290
      34A     -0.731410    35A     -0.711126    36A     -0.705070
      37A     -0.689648    38A     -0.675603    39A     -0.669583
      40A     -0.664903    41A     -0.650134    42A     -0.640929
      43A     -0.600581    44A     -0.591364    45A     -0.588368
      46A     -0.523753    47A     -0.433692    48A     -0.423596

  @DF-RHF Final Energy:  -535.30686437475299

   => Energetics <=

    Nuclear Repulsion Energy =            820.2879080094238589
    One-Electron Energy =               -2338.8567603365117975
    Two-Electron Energy =                 983.2619879523348345
    Total Energy =                       -535.3068643747529904
  Basis Set: (AUG-CC-PVTZ AUX)
    Blend: AUG-CC-PVTZ-RI
    Molecular point group: c1

    Geometry (in Angstrom), charge = 1, multiplicity = 1:

       Center              X                  Y                   Z               Mass
    ------------   -----------------  -----------------  -----------------  -----------------
         N           -3.473376868630    -0.168175417323     0.160202578268    14.003074004430
         N           -0.675067868630     0.005687582677    -0.128832421732    14.003074004430
         C           -2.791393868630    -0.591415417323    -1.121758421732    12.000000000000
         C           -2.680134868630     0.866851582677     0.925880578268    12.000000000000
         C           -1.347389268630    -1.092524717323    -0.771115521732    12.000000000000
         C           -1.280379868630     0.327647582677     1.157409578268    12.000000000000
         C            0.755475131370    -0.170989417323    -0.039793421732    12.000000000000
         C            1.564338131370     0.963198582677    -0.236048421732    12.000000000000
         C            1.316239131370    -1.420261417323     0.249872578268    12.000000000000
         C            2.950845131370     0.798448582677    -0.134361421732    12.000000000000
         C            0.966048131370     2.308723582677    -0.549289421732    12.000000000000
         C            2.702223131370    -1.560344417323     0.329173578268    12.000000000000
         C            3.520066131370    -0.445548417323     0.143201578268    12.000000000000
         H           -2.754641868630     0.290635582677    -1.763380421732     1.007825032230
         H           -3.410171868630    -1.366460417323    -1.581398421732     1.007825032230
         H           -3.217811868630     1.071780582677     1.855205578268     1.007825032230
         H           -2.652587868630     1.762400582677     0.302447578268     1.007825032230
         H           -1.466320868630    -1.996439417323    -0.170634421732     1.007825032230
         H           -0.879759868630    -1.340971417323    -1.710902421732     1.007825032230
         H           -0.690159868630     1.104765582677     1.650371578268     1.007825032230
         H           -1.311523868630    -0.542365417323     1.842036578268     1.007825032230
         H           -4.418525868630     0.186042582677    -0.040281421732     1.007825032230
         H           -3.597452868630    -0.998336417323     0.757494578268     1.007825032230
         H            0.682449131370    -2.290175417323     0.408586578268     1.007825032230
         H            3.596289131370     1.660602582677    -0.289498421732     1.007825032230
         H            0.169152131370     2.219123582677    -1.291725421732     1.007825032230
         H            0.538293131370     2.784119582677     0.341588578268     1.007825032230
         H            1.732272131370     2.983241582677    -0.938725421732     1.007825032230
         H            3.137611131370    -2.532161417323     0.545939578268     1.007825032230
         H            4.600424131370    -0.545083417323     0.204589578268     1.007825032230

  Basis Set: AUG-CC-PVTZ
    Blend: AUG-CC-PVTZ
  Basis Set: (AUG-CC-PVTZ AUX)
    Blend: AUG-CC-PVTZ-JKFIT
	 Reference Energy          =    -535.3068643747529904 [Eh]
	 Singles Energy            =      -0.0000000000000000 [Eh]
	 Same-Spin Energy          =      -0.5851575969990412 [Eh]
	 Opposite-Spin Energy      =      -1.9171798518840779 [Eh]
	 Correlation Energy        =      -2.5023374488831189 [Eh]
	 Total Energy              =    -537.8092018236361582 [Eh]

	 ================> DF-SCS-MP2 Energies <==================
	-----------------------------------------------------------
	 SCS Same-Spin Scale       =       0.3333333333333333 [-]
	 SCS Opposite-Spin Scale   =       1.2000000000000000 [-]
	 SCS Same-Spin Energy      =      -0.1950525323330137 [Eh]
	 SCS Opposite-Spin Energy  =      -2.3006158222608932 [Eh]
	 SCS Correlation Energy    =      -2.4956683545939069 [Eh]
	 SCS Total Energy          =    -537.8025327293469218 [Eh]
	-----------------------------------------------------------

  Dipole Moment: [D]
     X:   -12.0747      Y:    -0.6772      Z:     0.7755     Total:    12.1185

*** Psi4 exiting successfully. Buy a developer a beer!
