                               Psi4 1.4a3.dev225

  ==> Input File <==

--------------------------------------------------------------------------
#psi4
#
memory 32 gb

molecule  {
1 1
  N       -3.4197460    -0.1817000     0.1602720
  N       -0.6214370    -0.0078370    -0.1287630
  C       -2.7377630    -0.6049400    -1.1216890
  C       -2.6265040     0.8533270     0.9259500
  C       -1.3582152    -1.0836811    -0.7866980
  C       -1.2267490     0.3141230     1.1574790
  C        0.8091060    -0.1845140    -0.0397240
  C        1.6179690     0.9496740    -0.2359790
  C        1.3698700    -1.4337860     0.2499420
  C        3.0044760     0.7849240    -0.1342920
  C        1.0196790     2.2951990    -0.5492200
  C        2.7558540    -1.5738690     0.3292430
  C        3.5736970    -0.4590730     0.1432710
  H       -2.7010110     0.2771110    -1.7633110
  H       -3.3565410    -1.3799850    -1.5813290
  H       -3.1641810     1.0582560     1.8552750
  H       -2.5989570     1.7488760     0.3025170
  H       -1.4126900    -2.0099640    -0.1705650
  H       -0.8261290    -1.3544960    -1.7108330
  H       -0.6365290     1.0912410     1.6504410
  H       -1.2578930    -0.5558900     1.8421060
  H       -4.3648950     0.1725180    -0.0402120
  H       -3.5438220    -1.0118610     0.7575640
  H        0.7360800    -2.3037000     0.4086560
  H        3.6499200     1.6470780    -0.2894290
  H        0.2227830     2.2055990    -1.2916560
  H        0.5919240     2.7705950     0.3416580
  H        1.7859030     2.9697170    -0.9386560
  H        3.1912420    -2.5456860     0.5460090
  H        4.6540550    -0.5586080     0.2046590
units angstrom
no_reorient  #important for SAPT in psi4, default
symmetry c1  #important for SAPT in psi4, default
}

set PROPERTIES_ORIGIN ["COM"]
properties('MP2/aug-cc-pvtz', properties = ['dipole'])
--------------------------------------------------------------------------

    Molecular point group: c1
  Charge       = 1
  Multiplicity = 1
  Basis Set: AUG-CC-PVTZ
    Blend: AUG-CC-PVTZ
  Basis Set: (AUG-CC-PVTZ AUX)
    Blend: AUG-CC-PVTZ-JKFIT

    Orbital Energies [Eh]
    ---------------------

    Doubly Occupied:

       1A    -15.866850     2A    -15.702793     3A    -11.456994
       4A    -11.456813     5A    -11.417739     6A    -11.416845
       7A    -11.375279     8A    -11.344413     9A    -11.340146
      10A    -11.331732    11A    -11.329852    12A    -11.328595
      13A    -11.323495    14A     -1.498238    15A     -1.388720
      16A     -1.249998    17A     -1.223979    18A     -1.156544
      19A     -1.142967    20A     -1.088371    21A     -1.052321
      22A     -1.031929    23A     -0.996065    24A     -0.935577
      25A     -0.924416    26A     -0.903332    27A     -0.867372
      28A     -0.824428    29A     -0.810202    30A     -0.792635
      31A     -0.788293    32A     -0.754773    33A     -0.745213
      34A     -0.736277    35A     -0.715872    36A     -0.704250
      37A     -0.687042    38A     -0.674894    39A     -0.669789
      40A     -0.657702    41A     -0.657018    42A     -0.640324
      43A     -0.599723    44A     -0.591812    45A     -0.587954
      46A     -0.520746    47A     -0.433538    48A     -0.423481

  @DF-RHF Final Energy:  -535.30830353974511

   => Energetics <=

    Nuclear Repulsion Energy =            820.2974074754505409
    One-Electron Energy =               -2338.8767452138072258
    Two-Electron Energy =                 983.2710341986114599
    Total Energy =                       -535.3083035397451113
  Basis Set: (AUG-CC-PVTZ AUX)
    Blend: AUG-CC-PVTZ-RI
    Molecular point group: c1

    Geometry (in Angstrom), charge = 1, multiplicity = 1:

       Center              X                  Y                   Z               Mass
    ------------   -----------------  -----------------  -----------------  -----------------
         N           -3.469010349443    -0.169690713994     0.161262890316    14.003074004430
         N           -0.670701349443     0.004172286006    -0.127772109684    14.003074004430
         C           -2.787027349443    -0.592930713994    -1.120698109684    12.000000000000
         C           -2.675768349443     0.865336286006     0.926940890316    12.000000000000
         C           -1.407479549443    -1.071671813994    -0.785707109684    12.000000000000
         C           -1.276013349443     0.326132286006     1.158469890316    12.000000000000
         C            0.759841650557    -0.172504713994    -0.038733109684    12.000000000000
         C            1.568704650557     0.961683286006    -0.234988109684    12.000000000000
         C            1.320605650557    -1.421776713994     0.250932890316    12.000000000000
         C            2.955211650557     0.796933286006    -0.133301109684    12.000000000000
         C            0.970414650557     2.307208286006    -0.548229109684    12.000000000000
         C            2.706589650557    -1.561859713994     0.330233890316    12.000000000000
         C            3.524432650557    -0.447063713994     0.144261890316    12.000000000000
         H           -2.750275349443     0.289120286006    -1.762320109684     1.007825032230
         H           -3.405805349443    -1.367975713994    -1.580338109684     1.007825032230
         H           -3.213445349443     1.070265286006     1.856265890316     1.007825032230
         H           -2.648221349443     1.760885286006     0.303507890316     1.007825032230
         H           -1.461954349443    -1.997954713994    -0.169574109684     1.007825032230
         H           -0.875393349443    -1.342486713994    -1.709842109684     1.007825032230
         H           -0.685793349443     1.103250286006     1.651431890316     1.007825032230
         H           -1.307157349443    -0.543880713994     1.843096890316     1.007825032230
         H           -4.414159349443     0.184527286006    -0.039221109684     1.007825032230
         H           -3.593086349443    -0.999851713994     0.758554890316     1.007825032230
         H            0.686815650557    -2.291690713994     0.409646890316     1.007825032230
         H            3.600655650557     1.659087286006    -0.288438109684     1.007825032230
         H            0.173518650557     2.217608286006    -1.290665109684     1.007825032230
         H            0.542659650557     2.782604286006     0.342648890316     1.007825032230
         H            1.736638650557     2.981726286006    -0.937665109684     1.007825032230
         H            3.141977650557    -2.533676713994     0.546999890316     1.007825032230
         H            4.604790650557    -0.546598713994     0.205649890316     1.007825032230

  Basis Set: AUG-CC-PVTZ
    Blend: AUG-CC-PVTZ
  Basis Set: (AUG-CC-PVTZ AUX)
    Blend: AUG-CC-PVTZ-JKFIT
	 Reference Energy          =    -535.3083035397451113 [Eh]
	 Singles Energy            =      -0.0000000000000000 [Eh]
	 Same-Spin Energy          =      -0.5854166982740093 [Eh]
	 Opposite-Spin Energy      =      -1.9172523799878172 [Eh]
	 Correlation Energy        =      -2.5026690782618264 [Eh]
	 Total Energy              =    -537.8109726180069856 [Eh]

	 ================> DF-SCS-MP2 Energies <==================
	-----------------------------------------------------------
	 SCS Same-Spin Scale       =       0.3333333333333333 [-]
	 SCS Opposite-Spin Scale   =       1.2000000000000000 [-]
	 SCS Same-Spin Energy      =      -0.1951388994246698 [Eh]
	 SCS Opposite-Spin Energy  =      -2.3007028559853806 [Eh]
	 SCS Correlation Energy    =      -2.4958417554100505 [Eh]
	 SCS Total Energy          =    -537.8041452951551946 [Eh]
	-----------------------------------------------------------

  Dipole Moment: [D]
     X:   -12.1143      Y:    -0.6881      Z:     0.7158     Total:    12.1550

*** Psi4 exiting successfully. Buy a developer a beer!
