                               Psi4 1.4a3.dev225

  ==> Input File <==

--------------------------------------------------------------------------
#psi4
#
memory 32 gb

molecule  {
1 1
  N       -3.4197460    -0.1817000     0.1602720
  N       -0.6214370    -0.0078370    -0.1287630
  C       -2.7377630    -0.6049400    -1.1216890
  C       -2.6265040     0.8533270     0.9259500
  C       -1.3397990    -1.0900720    -0.7822260
  C       -1.2728609     0.3318859     1.1498518
  C        0.8091060    -0.1845140    -0.0397240
  C        1.6179690     0.9496740    -0.2359790
  C        1.3698700    -1.4337860     0.2499420
  C        3.0044760     0.7849240    -0.1342920
  C        1.0196790     2.2951990    -0.5492200
  C        2.7558540    -1.5738690     0.3292430
  C        3.5736970    -0.4590730     0.1432710
  H       -2.7010110     0.2771110    -1.7633110
  H       -3.3565410    -1.3799850    -1.5813290
  H       -3.1641810     1.0582560     1.8552750
  H       -2.5989570     1.7488760     0.3025170
  H       -1.4126900    -2.0099640    -0.1705650
  H       -0.8261290    -1.3544960    -1.7108330
  H       -0.6365290     1.0912410     1.6504410
  H       -1.2578930    -0.5558900     1.8421060
  H       -4.3648950     0.1725180    -0.0402120
  H       -3.5438220    -1.0118610     0.7575640
  H        0.7360800    -2.3037000     0.4086560
  H        3.6499200     1.6470780    -0.2894290
  H        0.2227830     2.2055990    -1.2916560
  H        0.5919240     2.7705950     0.3416580
  H        1.7859030     2.9697170    -0.9386560
  H        3.1912420    -2.5456860     0.5460090
  H        4.6540550    -0.5586080     0.2046590
units angstrom
no_reorient  #important for SAPT in psi4, default
symmetry c1  #important for SAPT in psi4, default
}

set PROPERTIES_ORIGIN ["COM"]
properties('MP2/aug-cc-pvtz', properties = ['dipole'])
--------------------------------------------------------------------------

    Molecular point group: c1
  Charge       = 1
  Multiplicity = 1
  Basis Set: AUG-CC-PVTZ
    Blend: AUG-CC-PVTZ
  Basis Set: (AUG-CC-PVTZ AUX)
    Blend: AUG-CC-PVTZ-JKFIT

    Orbital Energies [Eh]
    ---------------------

    Doubly Occupied:

       1A    -15.867150     2A    -15.702701     3A    -11.457095
       4A    -11.456897     5A    -11.417893     6A    -11.416514
       7A    -11.375375     8A    -11.344334     9A    -11.340099
      10A    -11.331636    11A    -11.329763    12A    -11.328535
      13A    -11.323432    14A     -1.499315    15A     -1.386380
      16A     -1.250066    17A     -1.227664    18A     -1.158304
      19A     -1.143113    20A     -1.088718    21A     -1.050564
      22A     -1.031908    23A     -0.996031    24A     -0.935502
      25A     -0.924640    26A     -0.903363    27A     -0.867276
      28A     -0.825521    29A     -0.810700    30A     -0.791143
      31A     -0.788437    32A     -0.754948    33A     -0.746300
      34A     -0.740572    35A     -0.715167    36A     -0.702425
      37A     -0.687292    38A     -0.674870    39A     -0.669195
      40A     -0.657809    41A     -0.653782    42A     -0.640242
      43A     -0.599470    44A     -0.592357    45A     -0.587807
      46A     -0.520409    47A     -0.433216    48A     -0.423113

  @DF-RHF Final Energy:  -535.30577310464241

   => Energetics <=

    Nuclear Repulsion Energy =            820.3040781255839420
    One-Electron Energy =               -2338.8816185187406518
    Two-Electron Energy =                 983.2717672885141837
    Total Energy =                       -535.3057731046424124
  Basis Set: (AUG-CC-PVTZ AUX)
    Blend: AUG-CC-PVTZ-RI
    Molecular point group: c1

    Geometry (in Angstrom), charge = 1, multiplicity = 1:

       Center              X                  Y                   Z               Mass
    ------------   -----------------  -----------------  -----------------  -----------------
         N           -3.467134150106    -0.170461091304     0.161476634116    14.003074004430
         N           -0.668825150106     0.003401908696    -0.127558365884    14.003074004430
         C           -2.785151150106    -0.593701091304    -1.120484365884    12.000000000000
         C           -2.673892150106     0.864565908696     0.927154634116    12.000000000000
         C           -1.387187150106    -1.078833091304    -0.781021365884    12.000000000000
         C           -1.320249050106     0.343124808696     1.151056434116    12.000000000000
         C            0.761717849894    -0.173275091304    -0.038519365884    12.000000000000
         C            1.570580849894     0.960912908696    -0.234774365884    12.000000000000
         C            1.322481849894    -1.422547091304     0.251146634116    12.000000000000
         C            2.957087849894     0.796162908696    -0.133087365884    12.000000000000
         C            0.972290849894     2.306437908696    -0.548015365884    12.000000000000
         C            2.708465849894    -1.562630091304     0.330447634116    12.000000000000
         C            3.526308849894    -0.447834091304     0.144475634116    12.000000000000
         H           -2.748399150106     0.288349908696    -1.762106365884     1.007825032230
         H           -3.403929150106    -1.368746091304    -1.580124365884     1.007825032230
         H           -3.211569150106     1.069494908696     1.856479634116     1.007825032230
         H           -2.646345150106     1.760114908696     0.303721634116     1.007825032230
         H           -1.460078150106    -1.998725091304    -0.169360365884     1.007825032230
         H           -0.873517150106    -1.343257091304    -1.709628365884     1.007825032230
         H           -0.683917150106     1.102479908696     1.651645634116     1.007825032230
         H           -1.305281150106    -0.544651091304     1.843310634116     1.007825032230
         H           -4.412283150106     0.183756908696    -0.039007365884     1.007825032230
         H           -3.591210150106    -1.000622091304     0.758768634116     1.007825032230
         H            0.688691849894    -2.292461091304     0.409860634116     1.007825032230
         H            3.602531849894     1.658316908696    -0.288224365884     1.007825032230
         H            0.175394849894     2.216837908696    -1.290451365884     1.007825032230
         H            0.544535849894     2.781833908696     0.342862634116     1.007825032230
         H            1.738514849894     2.980955908696    -0.937451365884     1.007825032230
         H            3.143853849894    -2.534447091304     0.547213634116     1.007825032230
         H            4.606666849894    -0.547369091304     0.205863634116     1.007825032230

  Basis Set: AUG-CC-PVTZ
    Blend: AUG-CC-PVTZ
  Basis Set: (AUG-CC-PVTZ AUX)
    Blend: AUG-CC-PVTZ-JKFIT
	 Reference Energy          =    -535.3057731046424124 [Eh]
	 Singles Energy            =      -0.0000000000000000 [Eh]
	 Same-Spin Energy          =      -0.5857260820713688 [Eh]
	 Opposite-Spin Energy      =      -1.9175750551065298 [Eh]
	 Correlation Energy        =      -2.5033011371778988 [Eh]
	 Total Energy              =    -537.8090742418203263 [Eh]

	 ================> DF-SCS-MP2 Energies <==================
	-----------------------------------------------------------
	 SCS Same-Spin Scale       =       0.3333333333333333 [-]
	 SCS Opposite-Spin Scale   =       1.2000000000000000 [-]
	 SCS Same-Spin Energy      =      -0.1952420273571229 [Eh]
	 SCS Opposite-Spin Energy  =      -2.3010900661278355 [Eh]
	 SCS Correlation Energy    =      -2.4963320934849582 [Eh]
	 SCS Total Energy          =    -537.8021051981273786 [Eh]
	-----------------------------------------------------------

  Dipole Moment: [D]
     X:   -12.1268      Y:    -0.6470      Z:     0.7563     Total:    12.1676

*** Psi4 exiting successfully. Buy a developer a beer!
