                               Psi4 1.4a3.dev225

  ==> Input File <==

--------------------------------------------------------------------------
#psi4
#
memory 32 gb

molecule  {
1 1
  N       -3.4197460    -0.1817000     0.1602720
  N       -0.6214370    -0.0078370    -0.1287630
  C       -2.7377630    -0.6049400    -1.1216890
  C       -2.6265040     0.8533270     0.9259500
  C       -1.3397990    -1.0900720    -0.7822260
  C       -1.2267490     0.3141230     1.1574790
  C        0.8091060    -0.1845140    -0.0397240
  C        1.6179690     0.9496740    -0.2359790
  C        1.3698700    -1.4337860     0.2499420
  C        3.0044760     0.7849240    -0.1342920
  C        1.0196790     2.2951990    -0.5492200
  C        2.7558540    -1.5738690     0.3292430
  C        3.5736970    -0.4590730     0.1432710
  H       -2.7010110     0.2771110    -1.7633110
  H       -3.3565410    -1.3799850    -1.5813290
  H       -3.1641810     1.0582560     1.8552750
  H       -2.5989570     1.7488760     0.3025170
  H       -1.4126900    -2.0099640    -0.1705650
  H       -0.8261290    -1.3544960    -1.7108330
  H       -0.6365290     1.0912410     1.6504410
  H       -1.2578930    -0.5558900     1.8421060
  H       -4.3648950     0.1725180    -0.0402120
  H       -3.5438220    -1.0118610     0.7575640
  H        0.7360800    -2.3037000     0.4086560
  H        3.6499200     1.6470780    -0.2894290
  H        0.2227830     2.2055990    -1.2916560
  H        0.5239487     2.6785453     0.3507447
  H        1.7859030     2.9697170    -0.9386560
  H        3.1912420    -2.5456860     0.5460090
  H        4.6540550    -0.5586080     0.2046590
units angstrom
no_reorient  #important for SAPT in psi4, default
symmetry c1  #important for SAPT in psi4, default
}

set PROPERTIES_ORIGIN ["COM"]
properties('MP2/aug-cc-pvtz', properties = ['dipole'])
--------------------------------------------------------------------------

    Molecular point group: c1
  Charge       = 1
  Multiplicity = 1
  Basis Set: AUG-CC-PVTZ
    Blend: AUG-CC-PVTZ
  Basis Set: (AUG-CC-PVTZ AUX)
    Blend: AUG-CC-PVTZ-JKFIT

    Orbital Energies [Eh]
    ---------------------

    Doubly Occupied:

       1A    -15.866897     2A    -15.703273     3A    -11.457153
       4A    -11.456985     5A    -11.417765     6A    -11.417717
       7A    -11.374837     8A    -11.344107     9A    -11.340204
      10A    -11.331400    11A    -11.329594    12A    -11.328414
      13A    -11.324393    14A     -1.497802    15A     -1.390501
      16A     -1.249903    17A     -1.222180    18A     -1.155851
      19A     -1.143019    20A     -1.088195    21A     -1.053823
      22A     -1.032151    23A     -0.996350    24A     -0.935592
      25A     -0.924468    26A     -0.902788    27A     -0.867649
      28A     -0.824040    29A     -0.810332    30A     -0.793859
      31A     -0.788797    32A     -0.754435    33A     -0.745351
      34A     -0.734787    35A     -0.714837    36A     -0.704704
      37A     -0.687873    38A     -0.677308    39A     -0.669271
      40A     -0.660126    41A     -0.655867    42A     -0.642110
      43A     -0.598382    44A     -0.591952    45A     -0.588049
      46A     -0.521853    47A     -0.433495    48A     -0.422857

  @DF-RHF Final Energy:  -535.30760106084381

   => Energetics <=

    Nuclear Repulsion Energy =            820.5554837517038322
    One-Electron Energy =               -2339.3795648666564375
    Two-Electron Energy =                 983.5164800541087970
    Total Energy =                       -535.3076010608438082
  Basis Set: (AUG-CC-PVTZ AUX)
    Blend: AUG-CC-PVTZ-RI
    Molecular point group: c1

    Geometry (in Angstrom), charge = 1, multiplicity = 1:

       Center              X                  Y                   Z               Mass
    ------------   -----------------  -----------------  -----------------  -----------------
         N           -3.469871182132    -0.168734060598     0.160908243727    14.003074004430
         N           -0.671562182132     0.005128939402    -0.128126756273    14.003074004430
         C           -2.787888182132    -0.591974060598    -1.121052756273    12.000000000000
         C           -2.676629182132     0.866292939402     0.926586243727    12.000000000000
         C           -1.389924182132    -1.077106060598    -0.781589756273    12.000000000000
         C           -1.276874182132     0.327088939402     1.158115243727    12.000000000000
         C            0.758980817868    -0.171548060598    -0.039087756273    12.000000000000
         C            1.567843817868     0.962639939402    -0.235342756273    12.000000000000
         C            1.319744817868    -1.420820060598     0.250578243727    12.000000000000
         C            2.954350817868     0.797889939402    -0.133655756273    12.000000000000
         C            0.969553817868     2.308164939402    -0.548583756273    12.000000000000
         C            2.705728817868    -1.560903060598     0.329879243727    12.000000000000
         C            3.523571817868    -0.446107060598     0.143907243727    12.000000000000
         H           -2.751136182132     0.290076939402    -1.762674756273     1.007825032230
         H           -3.406666182132    -1.367019060598    -1.580692756273     1.007825032230
         H           -3.214306182132     1.071221939402     1.855911243727     1.007825032230
         H           -2.649082182132     1.761841939402     0.303153243727     1.007825032230
         H           -1.462815182132    -1.996998060598    -0.169928756273     1.007825032230
         H           -0.876254182132    -1.341530060598    -1.710196756273     1.007825032230
         H           -0.686654182132     1.104206939402     1.651077243727     1.007825032230
         H           -1.308018182132    -0.542924060598     1.842742243727     1.007825032230
         H           -4.415020182132     0.185483939402    -0.039575756273     1.007825032230
         H           -3.593947182132    -0.998895060598     0.758200243727     1.007825032230
         H            0.685954817868    -2.290734060598     0.409292243727     1.007825032230
         H            3.599794817868     1.660043939402    -0.288792756273     1.007825032230
         H            0.172657817868     2.218564939402    -1.291019756273     1.007825032230
         H            0.473823517868     2.691511239402     0.351380943727     1.007825032230
         H            1.735777817868     2.982682939402    -0.938019756273     1.007825032230
         H            3.141116817868    -2.532720060598     0.546645243727     1.007825032230
         H            4.603929817868    -0.545642060598     0.205295243727     1.007825032230

  Basis Set: AUG-CC-PVTZ
    Blend: AUG-CC-PVTZ
  Basis Set: (AUG-CC-PVTZ AUX)
    Blend: AUG-CC-PVTZ-JKFIT
	 Reference Energy          =    -535.3076010608438082 [Eh]
	 Singles Energy            =      -0.0000000000000000 [Eh]
	 Same-Spin Energy          =      -0.5854166363574631 [Eh]
	 Opposite-Spin Energy      =      -1.9173620248160508 [Eh]
	 Correlation Energy        =      -2.5027786611735139 [Eh]
	 Total Energy              =    -537.8103797220172737 [Eh]

	 ================> DF-SCS-MP2 Energies <==================
	-----------------------------------------------------------
	 SCS Same-Spin Scale       =       0.3333333333333333 [-]
	 SCS Opposite-Spin Scale   =       1.2000000000000000 [-]
	 SCS Same-Spin Energy      =      -0.1951388787858210 [Eh]
	 SCS Opposite-Spin Energy  =      -2.3008344297792607 [Eh]
	 SCS Correlation Energy    =      -2.4959733085650817 [Eh]
	 SCS Total Energy          =    -537.8035743694089206 [Eh]
	-----------------------------------------------------------

  Dipole Moment: [D]
     X:   -12.1391      Y:    -0.7049      Z:     0.7106     Total:    12.1803

*** Psi4 exiting successfully. Buy a developer a beer!
