                               Psi4 1.4a3.dev225

  ==> Input File <==

--------------------------------------------------------------------------
#psi4
#
memory 32 gb

molecule  {
1 1
  N       -3.4197460    -0.1817000     0.1602720
  N       -0.6214370    -0.0078370    -0.1287630
  C       -2.7377630    -0.6049400    -1.1216890
  C       -2.6265040     0.8533270     0.9259500
  C       -1.3397990    -1.0900720    -0.7822260
  C       -1.2267490     0.3141230     1.1574790
  C        0.8091060    -0.1845140    -0.0397240
  C        1.6179690     0.9496740    -0.2359790
  C        1.3698700    -1.4337860     0.2499420
  C        3.0044760     0.7849240    -0.1342920
  C        1.0196790     2.2951990    -0.5492200
  C        2.7558540    -1.5738690     0.3292430
  C        3.5736970    -0.4590730     0.1432710
  H       -2.7010110     0.2771110    -1.7633110
  H       -3.3565410    -1.3799850    -1.5813290
  H       -3.1641810     1.0582560     1.8552750
  H       -2.5989570     1.7488760     0.3025170
  H       -1.4126900    -2.0099640    -0.1705650
  H       -0.8261290    -1.3544960    -1.7108330
  H       -0.6365290     1.0912410     1.6504410
  H       -1.2578930    -0.5558900     1.8421060
  H       -4.3648950     0.1725180    -0.0402120
  H       -3.5438220    -1.0118610     0.7575640
  H        0.7360800    -2.3037000     0.4086560
  H        3.6499200     1.6470780    -0.2894290
  H        0.2227830     2.2055990    -1.2916560
  H        0.5919240     2.7705950     0.3416580
  H        1.7859030     2.9697170    -0.9386560
  H        3.1712099    -2.5009730     0.5360357
  H        4.6540550    -0.5586080     0.2046590
units angstrom
no_reorient  #important for SAPT in psi4, default
symmetry c1  #important for SAPT in psi4, default
}

set PROPERTIES_ORIGIN ["COM"]
properties('MP2/aug-cc-pvtz', properties = ['dipole'])
--------------------------------------------------------------------------

    Molecular point group: c1
  Charge       = 1
  Multiplicity = 1
  Basis Set: AUG-CC-PVTZ
    Blend: AUG-CC-PVTZ
  Basis Set: (AUG-CC-PVTZ AUX)
    Blend: AUG-CC-PVTZ-JKFIT

    Orbital Energies [Eh]
    ---------------------

    Doubly Occupied:

       1A    -15.866598     2A    -15.702930     3A    -11.456769
       4A    -11.456731     5A    -11.417488     6A    -11.417209
       7A    -11.374947     8A    -11.344317     9A    -11.339859
      10A    -11.329712    11A    -11.328491    12A    -11.325822
      13A    -11.323514    14A     -1.497499    15A     -1.390155
      16A     -1.250005    17A     -1.221814    18A     -1.156167
      19A     -1.143002    20A     -1.087929    21A     -1.053479
      22A     -1.033396    23A     -0.996233    24A     -0.935537
      25A     -0.924204    26A     -0.905261    27A     -0.868224
      28A     -0.823708    29A     -0.813097    30A     -0.793792
      31A     -0.788613    32A     -0.754969    33A     -0.744796
      34A     -0.734539    35A     -0.715871    36A     -0.705999
      37A     -0.687908    38A     -0.675870    39A     -0.672089
      40A     -0.660082    41A     -0.655867    42A     -0.640386
      43A     -0.601729    44A     -0.591462    45A     -0.588081
      46A     -0.521748    47A     -0.433361    48A     -0.423390

  @DF-RHF Final Energy:  -535.30809032962395

   => Energetics <=

    Nuclear Repulsion Energy =            820.5691099790229828
    One-Electron Energy =               -2339.4051047379257398
    Two-Electron Energy =                 983.5279044292789195
    Total Energy =                       -535.3080903296239512
  Basis Set: (AUG-CC-PVTZ AUX)
    Blend: AUG-CC-PVTZ-RI
    Molecular point group: c1

    Geometry (in Angstrom), charge = 1, multiplicity = 1:

       Center              X                  Y                   Z               Mass
    ------------   -----------------  -----------------  -----------------  -----------------
         N           -3.470143952723    -0.169512165575     0.161016684704    14.003074004430
         N           -0.671834952723     0.004350834425    -0.128018315296    14.003074004430
         C           -2.788160952723    -0.592752165575    -1.120944315296    12.000000000000
         C           -2.676901952723     0.865514834425     0.926694684704    12.000000000000
         C           -1.390196952723    -1.077884165575    -0.781481315296    12.000000000000
         C           -1.277146952723     0.326310834425     1.158223684704    12.000000000000
         C            0.758708047277    -0.172326165575    -0.038979315296    12.000000000000
         C            1.567571047277     0.961861834425    -0.235234315296    12.000000000000
         C            1.319472047277    -1.421598165575     0.250686684704    12.000000000000
         C            2.954078047277     0.797111834425    -0.133547315296    12.000000000000
         C            0.969281047277     2.307386834425    -0.548475315296    12.000000000000
         C            2.705456047277    -1.561681165575     0.329987684704    12.000000000000
         C            3.523299047277    -0.446885165575     0.144015684704    12.000000000000
         H           -2.751408952723     0.289298834425    -1.762566315296     1.007825032230
         H           -3.406938952723    -1.367797165575    -1.580584315296     1.007825032230
         H           -3.214578952723     1.070443834425     1.856019684704     1.007825032230
         H           -2.649354952723     1.761063834425     0.303261684704     1.007825032230
         H           -1.463087952723    -1.997776165575    -0.169820315296     1.007825032230
         H           -0.876526952723    -1.342308165575    -1.710088315296     1.007825032230
         H           -0.686926952723     1.103428834425     1.651185684704     1.007825032230
         H           -1.308290952723    -0.543702165575     1.842850684704     1.007825032230
         H           -4.415292952723     0.184705834425    -0.039467315296     1.007825032230
         H           -3.594219952723    -0.999673165575     0.758308684704     1.007825032230
         H            0.685682047277    -2.291512165575     0.409400684704     1.007825032230
         H            3.599522047277     1.659265834425    -0.288684315296     1.007825032230
         H            0.172385047277     2.217786834425    -1.290911315296     1.007825032230
         H            0.541526047277     2.782782834425     0.342402684704     1.007825032230
         H            1.735505047277     2.981904834425    -0.937911315296     1.007825032230
         H            3.120811947277    -2.488785165575     0.536780384704     1.007825032230
         H            4.603657047277    -0.546420165575     0.205403684704     1.007825032230

  Basis Set: AUG-CC-PVTZ
    Blend: AUG-CC-PVTZ
  Basis Set: (AUG-CC-PVTZ AUX)
    Blend: AUG-CC-PVTZ-JKFIT
	 Reference Energy          =    -535.3080903296239512 [Eh]
	 Singles Energy            =      -0.0000000000000000 [Eh]
	 Same-Spin Energy          =      -0.5852089304056911 [Eh]
	 Opposite-Spin Energy      =      -1.9168298837609197 [Eh]
	 Correlation Energy        =      -2.5020388141666108 [Eh]
	 Total Energy              =    -537.8101291437906184 [Eh]

	 ================> DF-SCS-MP2 Energies <==================
	-----------------------------------------------------------
	 SCS Same-Spin Scale       =       0.3333333333333333 [-]
	 SCS Opposite-Spin Scale   =       1.2000000000000000 [-]
	 SCS Same-Spin Energy      =      -0.1950696434685637 [Eh]
	 SCS Opposite-Spin Energy  =      -2.3001958605131034 [Eh]
	 SCS Correlation Energy    =      -2.4952655039816669 [Eh]
	 SCS Total Energy          =    -537.8033558336055648 [Eh]
	-----------------------------------------------------------

  Dipole Moment: [D]
     X:   -12.1011      Y:    -0.6913      Z:     0.7337     Total:    12.1430

*** Psi4 exiting successfully. Buy a developer a beer!
