                               Psi4 1.4a3.dev225

  ==> Input File <==

--------------------------------------------------------------------------
#psi4
#
memory 32 gb

molecule  {
1 1
  N       -3.4197460    -0.1817000     0.1602720
  N       -0.6214370    -0.0078370    -0.1287630
  C       -2.7377630    -0.6049400    -1.1216890
  C       -2.6265040     0.8533270     0.9259500
  C       -1.3397990    -1.0900720    -0.7822260
  C       -1.2267490     0.3141230     1.1574790
  C        0.8091060    -0.1845140    -0.0397240
  C        1.6467168     0.9899842    -0.2429541
  C        1.3698700    -1.4337860     0.2499420
  C        3.0044760     0.7849240    -0.1342920
  C        1.0196790     2.2951990    -0.5492200
  C        2.7558540    -1.5738690     0.3292430
  C        3.5736970    -0.4590730     0.1432710
  H       -2.7010110     0.2771110    -1.7633110
  H       -3.3565410    -1.3799850    -1.5813290
  H       -3.1641810     1.0582560     1.8552750
  H       -2.5989570     1.7488760     0.3025170
  H       -1.4126900    -2.0099640    -0.1705650
  H       -0.8261290    -1.3544960    -1.7108330
  H       -0.6365290     1.0912410     1.6504410
  H       -1.2578930    -0.5558900     1.8421060
  H       -4.3648950     0.1725180    -0.0402120
  H       -3.5438220    -1.0118610     0.7575640
  H        0.7360800    -2.3037000     0.4086560
  H        3.6499200     1.6470780    -0.2894290
  H        0.2227830     2.2055990    -1.2916560
  H        0.5919240     2.7705950     0.3416580
  H        1.7859030     2.9697170    -0.9386560
  H        3.1912420    -2.5456860     0.5460090
  H        4.6540550    -0.5586080     0.2046590
units angstrom
no_reorient  #important for SAPT in psi4, default
symmetry c1  #important for SAPT in psi4, default
}

set PROPERTIES_ORIGIN ["COM"]
properties('MP2/aug-cc-pvtz', properties = ['dipole'])
--------------------------------------------------------------------------

    Molecular point group: c1
  Charge       = 1
  Multiplicity = 1
  Basis Set: AUG-CC-PVTZ
    Blend: AUG-CC-PVTZ
  Basis Set: (AUG-CC-PVTZ AUX)
    Blend: AUG-CC-PVTZ-JKFIT

    Orbital Energies [Eh]
    ---------------------

    Doubly Occupied:

       1A    -15.866733     2A    -15.703620     3A    -11.456904
       4A    -11.456875     5A    -11.417618     6A    -11.417481
       7A    -11.379499     8A    -11.346022     9A    -11.340411
      10A    -11.331473    11A    -11.329348    12A    -11.326600
      13A    -11.322830    14A     -1.497639    15A     -1.389657
      16A     -1.248148    17A     -1.221971    18A     -1.154656
      19A     -1.147412    20A     -1.087425    21A     -1.053609
      22A     -1.032870    23A     -0.996464    24A     -0.934259
      25A     -0.923630    26A     -0.901403    27A     -0.867385
      28A     -0.823836    29A     -0.810408    30A     -0.793095
      31A     -0.788540    32A     -0.755389    33A     -0.744900
      34A     -0.734569    35A     -0.714399    36A     -0.703295
      37A     -0.688050    38A     -0.677165    39A     -0.674210
      40A     -0.660092    41A     -0.655284    42A     -0.639532
      43A     -0.606851    44A     -0.588049    45A     -0.583586
      46A     -0.521087    47A     -0.436624    48A     -0.418362

  @DF-RHF Final Energy:  -535.30508698204937

   => Energetics <=

    Nuclear Repulsion Energy =            819.6826307485506504
    One-Electron Energy =               -2337.6369099617068059
    Two-Electron Energy =                 982.6491922311066674
    Total Energy =                       -535.3050869820493745
  Basis Set: (AUG-CC-PVTZ AUX)
    Blend: AUG-CC-PVTZ-RI
    Molecular point group: c1

    Geometry (in Angstrom), charge = 1, multiplicity = 1:

       Center              X                  Y                   Z               Mass
    ------------   -----------------  -----------------  -----------------  -----------------
         N           -3.472205396528    -0.171988520807     0.161432458681    14.003074004430
         N           -0.673896396528     0.001874479193    -0.127602541319    14.003074004430
         C           -2.790222396528    -0.595228520807    -1.120528541319    12.000000000000
         C           -2.678963396528     0.863038479193     0.927110458681    12.000000000000
         C           -1.392258396528    -1.080360520807    -0.781065541319    12.000000000000
         C           -1.279208396528     0.323834479193     1.158639458681    12.000000000000
         C            0.756646603472    -0.174802520807    -0.038563541319    12.000000000000
         C            1.594257403472     0.999695679193    -0.241793641319    12.000000000000
         C            1.317410603472    -1.424074520807     0.251102458681    12.000000000000
         C            2.952016603472     0.794635479193    -0.133131541319    12.000000000000
         C            0.967219603472     2.304910479193    -0.548059541319    12.000000000000
         C            2.703394603472    -1.564157520807     0.330403458681    12.000000000000
         C            3.521237603472    -0.449361520807     0.144431458681    12.000000000000
         H           -2.753470396528     0.286822479193    -1.762150541319     1.007825032230
         H           -3.409000396528    -1.370273520807    -1.580168541319     1.007825032230
         H           -3.216640396528     1.067967479193     1.856435458681     1.007825032230
         H           -2.651416396528     1.758587479193     0.303677458681     1.007825032230
         H           -1.465149396528    -2.000252520807    -0.169404541319     1.007825032230
         H           -0.878588396528    -1.344784520807    -1.709672541319     1.007825032230
         H           -0.688988396528     1.100952479193     1.651601458681     1.007825032230
         H           -1.310352396528    -0.546178520807     1.843266458681     1.007825032230
         H           -4.417354396528     0.182229479193    -0.039051541319     1.007825032230
         H           -3.596281396528    -1.002149520807     0.758724458681     1.007825032230
         H            0.683620603472    -2.293988520807     0.409816458681     1.007825032230
         H            3.597460603472     1.656789479193    -0.288268541319     1.007825032230
         H            0.170323603472     2.215310479193    -1.290495541319     1.007825032230
         H            0.539464603472     2.780306479193     0.342818458681     1.007825032230
         H            1.733443603472     2.979428479193    -0.937495541319     1.007825032230
         H            3.138782603472    -2.535974520807     0.547169458681     1.007825032230
         H            4.601595603472    -0.548896520807     0.205819458681     1.007825032230

  Basis Set: AUG-CC-PVTZ
    Blend: AUG-CC-PVTZ
  Basis Set: (AUG-CC-PVTZ AUX)
    Blend: AUG-CC-PVTZ-JKFIT
	 Reference Energy          =    -535.3050869820493745 [Eh]
	 Singles Energy            =      -0.0000000000000000 [Eh]
	 Same-Spin Energy          =      -0.5855825503034932 [Eh]
	 Opposite-Spin Energy      =      -1.9177071655820646 [Eh]
	 Correlation Energy        =      -2.5032897158855576 [Eh]
	 Total Energy              =    -537.8083766979349321 [Eh]

	 ================> DF-SCS-MP2 Energies <==================
	-----------------------------------------------------------
	 SCS Same-Spin Scale       =       0.3333333333333333 [-]
	 SCS Opposite-Spin Scale   =       1.2000000000000000 [-]
	 SCS Same-Spin Energy      =      -0.1951941834344977 [Eh]
	 SCS Opposite-Spin Energy  =      -2.3012485986984772 [Eh]
	 SCS Correlation Energy    =      -2.4964427821329749 [Eh]
	 SCS Total Energy          =    -537.8015297641823054 [Eh]
	-----------------------------------------------------------

  Dipole Moment: [D]
     X:   -12.1545      Y:    -0.6808      Z:     0.7305     Total:    12.1955

*** Psi4 exiting successfully. Buy a developer a beer!
