                               Psi4 1.4a3.dev225

  ==> Input File <==

--------------------------------------------------------------------------
#psi4
#
memory 32 gb

molecule  {
1 1
  N       -3.4197460    -0.1817000     0.1602720
  N       -0.6214370    -0.0078370    -0.1287630
  C       -2.7377630    -0.6049400    -1.1216890
  C       -2.6453399     0.8155962     0.9580164
  C       -1.3397990    -1.0900720    -0.7822260
  C       -1.2267490     0.3141230     1.1574790
  C        0.8091060    -0.1845140    -0.0397240
  C        1.6179690     0.9496740    -0.2359790
  C        1.3698700    -1.4337860     0.2499420
  C        3.0044760     0.7849240    -0.1342920
  C        1.0196790     2.2951990    -0.5492200
  C        2.7558540    -1.5738690     0.3292430
  C        3.5736970    -0.4590730     0.1432710
  H       -2.7010110     0.2771110    -1.7633110
  H       -3.3565410    -1.3799850    -1.5813290
  H       -3.1641810     1.0582560     1.8552750
  H       -2.5989570     1.7488760     0.3025170
  H       -1.4126900    -2.0099640    -0.1705650
  H       -0.8261290    -1.3544960    -1.7108330
  H       -0.6365290     1.0912410     1.6504410
  H       -1.2578930    -0.5558900     1.8421060
  H       -4.3648950     0.1725180    -0.0402120
  H       -3.5438220    -1.0118610     0.7575640
  H        0.7360800    -2.3037000     0.4086560
  H        3.6499200     1.6470780    -0.2894290
  H        0.2227830     2.2055990    -1.2916560
  H        0.5919240     2.7705950     0.3416580
  H        1.7859030     2.9697170    -0.9386560
  H        3.1912420    -2.5456860     0.5460090
  H        4.6540550    -0.5586080     0.2046590
units angstrom
no_reorient  #important for SAPT in psi4, default
symmetry c1  #important for SAPT in psi4, default
}

set PROPERTIES_ORIGIN ["COM"]
properties('MP2/aug-cc-pvtz', properties = ['dipole'])
--------------------------------------------------------------------------

    Molecular point group: c1
  Charge       = 1
  Multiplicity = 1
  Basis Set: AUG-CC-PVTZ
    Blend: AUG-CC-PVTZ
  Basis Set: (AUG-CC-PVTZ AUX)
    Blend: AUG-CC-PVTZ-JKFIT

    Orbital Energies [Eh]
    ---------------------

    Doubly Occupied:

       1A    -15.868557     2A    -15.703608     3A    -11.458078
       4A    -11.456555     5A    -11.418008     6A    -11.417200
       7A    -11.375323     8A    -11.344441     9A    -11.340288
      10A    -11.331810    11A    -11.329882    12A    -11.328648
      13A    -11.323326    14A     -1.502000    15A     -1.390535
      16A     -1.249942    17A     -1.223008    18A     -1.155449
      19A     -1.142557    20A     -1.087782    21A     -1.055607
      22A     -1.031712    23A     -0.994952    24A     -0.937714
      25A     -0.926332    26A     -0.903879    27A     -0.870650
      28A     -0.820154    29A     -0.809285    30A     -0.796166
      31A     -0.791203    32A     -0.755200    33A     -0.745951
      34A     -0.736291    35A     -0.713810    36A     -0.701114
      37A     -0.679200    38A     -0.675012    39A     -0.669504
      40A     -0.660965    41A     -0.657447    42A     -0.640420
      43A     -0.599751    44A     -0.591912    45A     -0.588147
      46A     -0.521396    47A     -0.433591    48A     -0.423540

  @DF-RHF Final Energy:  -535.30563354692481

   => Energetics <=

    Nuclear Repulsion Energy =            820.2443425473561547
    One-Electron Energy =               -2338.7441530187534227
    Two-Electron Energy =                 983.1941769244724583
    Total Energy =                       -535.3056335469248097
  Basis Set: (AUG-CC-PVTZ AUX)
    Blend: AUG-CC-PVTZ-RI
    Molecular point group: c1

    Geometry (in Angstrom), charge = 1, multiplicity = 1:

       Center              X                  Y                   Z               Mass
    ------------   -----------------  -----------------  -----------------  -----------------
         N           -3.468981917562    -0.166701762485     0.158787656910    14.003074004430
         N           -0.670672917562     0.007161237515    -0.130247343090    14.003074004430
         C           -2.786998917562    -0.589941762485    -1.123173343090    12.000000000000
         C           -2.694575817562     0.830594437515     0.956532056910    12.000000000000
         C           -1.389034917562    -1.075073762485    -0.783710343090    12.000000000000
         C           -1.275984917562     0.329121237515     1.155994656910    12.000000000000
         C            0.759870082438    -0.169515762485    -0.041208343090    12.000000000000
         C            1.568733082438     0.964672237515    -0.237463343090    12.000000000000
         C            1.320634082438    -1.418787762485     0.248457656910    12.000000000000
         C            2.955240082438     0.799922237515    -0.135776343090    12.000000000000
         C            0.970443082438     2.310197237515    -0.550704343090    12.000000000000
         C            2.706618082438    -1.558870762485     0.327758656910    12.000000000000
         C            3.524461082438    -0.444074762485     0.141786656910    12.000000000000
         H           -2.750246917562     0.292109237515    -1.764795343090     1.007825032230
         H           -3.405776917562    -1.364986762485    -1.582813343090     1.007825032230
         H           -3.213416917562     1.073254237515     1.853790656910     1.007825032230
         H           -2.648192917562     1.763874237515     0.301032656910     1.007825032230
         H           -1.461925917562    -1.994965762485    -0.172049343090     1.007825032230
         H           -0.875364917562    -1.339497762485    -1.712317343090     1.007825032230
         H           -0.685764917562     1.106239237515     1.648956656910     1.007825032230
         H           -1.307128917562    -0.540891762485     1.840621656910     1.007825032230
         H           -4.414130917562     0.187516237515    -0.041696343090     1.007825032230
         H           -3.593057917562    -0.996862762485     0.756079656910     1.007825032230
         H            0.686844082438    -2.288701762485     0.407171656910     1.007825032230
         H            3.600684082438     1.662076237515    -0.290913343090     1.007825032230
         H            0.173547082438     2.220597237515    -1.293140343090     1.007825032230
         H            0.542688082438     2.785593237515     0.340173656910     1.007825032230
         H            1.736667082438     2.984715237515    -0.940140343090     1.007825032230
         H            3.142006082438    -2.530687762485     0.544524656910     1.007825032230
         H            4.604819082438    -0.543609762485     0.203174656910     1.007825032230

  Basis Set: AUG-CC-PVTZ
    Blend: AUG-CC-PVTZ
  Basis Set: (AUG-CC-PVTZ AUX)
    Blend: AUG-CC-PVTZ-JKFIT
	 Reference Energy          =    -535.3056335469248097 [Eh]
	 Singles Energy            =      -0.0000000000000000 [Eh]
	 Same-Spin Energy          =      -0.5854693478310056 [Eh]
	 Opposite-Spin Energy      =      -1.9172993961788263 [Eh]
	 Correlation Energy        =      -2.5027687440098321 [Eh]
	 Total Energy              =    -537.8084022909346231 [Eh]

	 ================> DF-SCS-MP2 Energies <==================
	-----------------------------------------------------------
	 SCS Same-Spin Scale       =       0.3333333333333333 [-]
	 SCS Opposite-Spin Scale   =       1.2000000000000000 [-]
	 SCS Same-Spin Energy      =      -0.1951564492770018 [Eh]
	 SCS Opposite-Spin Energy  =      -2.3007592754145914 [Eh]
	 SCS Correlation Energy    =      -2.4959157246915931 [Eh]
	 SCS Total Energy          =    -537.8015492716164090 [Eh]
	-----------------------------------------------------------

  Dipole Moment: [D]
     X:   -12.1245      Y:    -0.7220      Z:     0.7167     Total:    12.1671

*** Psi4 exiting successfully. Buy a developer a beer!
