                               Psi4 1.4a3.dev225

  ==> Input File <==

--------------------------------------------------------------------------
#psi4
#
memory 32 gb

molecule  {
1 1
  N       -3.4230559    -0.1643314     0.1406774
  N       -0.6214370    -0.0078370    -0.1287630
  C       -2.7377630    -0.6049400    -1.1216890
  C       -2.6265040     0.8533270     0.9259500
  C       -1.3397990    -1.0900720    -0.7822260
  C       -1.2267490     0.3141230     1.1574790
  C        0.8091060    -0.1845140    -0.0397240
  C        1.6179690     0.9496740    -0.2359790
  C        1.3698700    -1.4337860     0.2499420
  C        3.0044760     0.7849240    -0.1342920
  C        1.0196790     2.2951990    -0.5492200
  C        2.7558540    -1.5738690     0.3292430
  C        3.5736970    -0.4590730     0.1432710
  H       -2.7010110     0.2771110    -1.7633110
  H       -3.3565410    -1.3799850    -1.5813290
  H       -3.1641810     1.0582560     1.8552750
  H       -2.5989570     1.7488760     0.3025170
  H       -1.4126900    -2.0099640    -0.1705650
  H       -0.8261290    -1.3544960    -1.7108330
  H       -0.6365290     1.0912410     1.6504410
  H       -1.2578930    -0.5558900     1.8421060
  H       -4.3648950     0.1725180    -0.0402120
  H       -3.5438220    -1.0118610     0.7575640
  H        0.7360800    -2.3037000     0.4086560
  H        3.6499200     1.6470780    -0.2894290
  H        0.2227830     2.2055990    -1.2916560
  H        0.5919240     2.7705950     0.3416580
  H        1.7859030     2.9697170    -0.9386560
  H        3.1912420    -2.5456860     0.5460090
  H        4.6540550    -0.5586080     0.2046590
units angstrom
no_reorient  #important for SAPT in psi4, default
symmetry c1  #important for SAPT in psi4, default
}

set PROPERTIES_ORIGIN ["COM"]
properties('MP2/aug-cc-pvtz', properties = ['dipole'])
--------------------------------------------------------------------------

    Molecular point group: c1
  Charge       = 1
  Multiplicity = 1
  Basis Set: AUG-CC-PVTZ
    Blend: AUG-CC-PVTZ
  Basis Set: (AUG-CC-PVTZ AUX)
    Blend: AUG-CC-PVTZ-JKFIT

    Orbital Energies [Eh]
    ---------------------

    Doubly Occupied:

       1A    -15.867734     2A    -15.703202     3A    -11.456937
       4A    -11.455864     5A    -11.417798     6A    -11.417719
       7A    -11.375235     8A    -11.344449     9A    -11.340260
      10A    -11.331865    11A    -11.329940    12A    -11.328673
      13A    -11.323586    14A     -1.498098    15A     -1.390427
      16A     -1.249989    17A     -1.222462    18A     -1.155613
      19A     -1.142654    20A     -1.087866    21A     -1.054854
      22A     -1.031785    23A     -0.993287    24A     -0.937327
      25A     -0.925719    26A     -0.903479    27A     -0.866004
      28A     -0.822554    29A     -0.809444    30A     -0.793950
      31A     -0.790396    32A     -0.755409    33A     -0.744254
      34A     -0.734020    35A     -0.714197    36A     -0.702948
      37A     -0.688250    38A     -0.675219    39A     -0.669763
      40A     -0.660358    41A     -0.656211    42A     -0.640538
      43A     -0.599995    44A     -0.591781    45A     -0.588133
      46A     -0.521764    47A     -0.433623    48A     -0.423554

  @DF-RHF Final Energy:  -535.30764484918268

   => Energetics <=

    Nuclear Repulsion Energy =            820.3212445076256927
    One-Electron Energy =               -2338.9194083517018043
    Two-Electron Energy =                 983.2905189948935458
    Total Energy =                       -535.3076448491826795
  Basis Set: (AUG-CC-PVTZ AUX)
    Blend: AUG-CC-PVTZ-RI
    Molecular point group: c1

    Geometry (in Angstrom), charge = 1, multiplicity = 1:

       Center              X                  Y                   Z               Mass
    ------------   -----------------  -----------------  -----------------  -----------------
         N           -3.473306172669    -0.153262182685     0.142914319805    14.003074004430
         N           -0.671687272669     0.003232217315    -0.126526080195    14.003074004430
         C           -2.788013272669    -0.593870782685    -1.119452080195    12.000000000000
         C           -2.676754272669     0.864396217315     0.928186919805    12.000000000000
         C           -1.390049272669    -1.079002782685    -0.779989080195    12.000000000000
         C           -1.276999272669     0.325192217315     1.159715919805    12.000000000000
         C            0.758855727331    -0.173444782685    -0.037487080195    12.000000000000
         C            1.567718727331     0.960743217315    -0.233742080195    12.000000000000
         C            1.319619727331    -1.422716782685     0.252178919805    12.000000000000
         C            2.954225727331     0.795993217315    -0.132055080195    12.000000000000
         C            0.969428727331     2.306268217315    -0.546983080195    12.000000000000
         C            2.705603727331    -1.562799782685     0.331479919805    12.000000000000
         C            3.523446727331    -0.448003782685     0.145507919805    12.000000000000
         H           -2.751261272669     0.288180217315    -1.761074080195     1.007825032230
         H           -3.406791272669    -1.368915782685    -1.579092080195     1.007825032230
         H           -3.214431272669     1.069325217315     1.857511919805     1.007825032230
         H           -2.649207272669     1.759945217315     0.304753919805     1.007825032230
         H           -1.462940272669    -1.998894782685    -0.168328080195     1.007825032230
         H           -0.876379272669    -1.343426782685    -1.708596080195     1.007825032230
         H           -0.686779272669     1.102310217315     1.652677919805     1.007825032230
         H           -1.308143272669    -0.544820782685     1.844342919805     1.007825032230
         H           -4.415145272669     0.183587217315    -0.037975080195     1.007825032230
         H           -3.594072272669    -1.000791782685     0.759800919805     1.007825032230
         H            0.685829727331    -2.292630782685     0.410892919805     1.007825032230
         H            3.599669727331     1.658147217315    -0.287192080195     1.007825032230
         H            0.172532727331     2.216668217315    -1.289419080195     1.007825032230
         H            0.541673727331     2.781664217315     0.343894919805     1.007825032230
         H            1.735652727331     2.980786217315    -0.936419080195     1.007825032230
         H            3.140991727331    -2.534616782685     0.548245919805     1.007825032230
         H            4.603804727331    -0.547538782685     0.206895919805     1.007825032230

  Basis Set: AUG-CC-PVTZ
    Blend: AUG-CC-PVTZ
  Basis Set: (AUG-CC-PVTZ AUX)
    Blend: AUG-CC-PVTZ-JKFIT
	 Reference Energy          =    -535.3076448491826795 [Eh]
	 Singles Energy            =      -0.0000000000000000 [Eh]
	 Same-Spin Energy          =      -0.5854410072126364 [Eh]
	 Opposite-Spin Energy      =      -1.9173497006144191 [Eh]
	 Correlation Energy        =      -2.5027907078270557 [Eh]
	 Total Energy              =    -537.8104355570097823 [Eh]

	 ================> DF-SCS-MP2 Energies <==================
	-----------------------------------------------------------
	 SCS Same-Spin Scale       =       0.3333333333333333 [-]
	 SCS Opposite-Spin Scale   =       1.2000000000000000 [-]
	 SCS Same-Spin Energy      =      -0.1951470024042121 [Eh]
	 SCS Opposite-Spin Energy  =      -2.3008196407373029 [Eh]
	 SCS Correlation Energy    =      -2.4959666431415148 [Eh]
	 SCS Total Energy          =    -537.8036114923241939 [Eh]
	-----------------------------------------------------------

  Dipole Moment: [D]
     X:   -12.0974      Y:    -0.6947      Z:     0.7548     Total:    12.1408

*** Psi4 exiting successfully. Buy a developer a beer!
