                               Psi4 1.4a3.dev225

  ==> Input File <==

--------------------------------------------------------------------------
#psi4
#
memory 32 gb

molecule  {
1 1
  N       -3.4197460    -0.1817000     0.1602720
  N       -0.6214370    -0.0078370    -0.1287630
  C       -2.7377630    -0.6049400    -1.1216890
  C       -2.6265040     0.8533270     0.9259500
  C       -1.3397990    -1.0900720    -0.7822260
  C       -1.2267490     0.3141230     1.1574790
  C        0.8091060    -0.1845140    -0.0397240
  C        1.6179690     0.9496740    -0.2359790
  C        1.3698700    -1.4337860     0.2499420
  C        3.0242838     0.7825704    -0.1328393
  C        1.0196790     2.2951990    -0.5492200
  C        2.7558540    -1.5738690     0.3292430
  C        3.5736970    -0.4590730     0.1432710
  H       -2.7010110     0.2771110    -1.7633110
  H       -3.3565410    -1.3799850    -1.5813290
  H       -3.1641810     1.0582560     1.8552750
  H       -2.5989570     1.7488760     0.3025170
  H       -1.4126900    -2.0099640    -0.1705650
  H       -0.8261290    -1.3544960    -1.7108330
  H       -0.6365290     1.0912410     1.6504410
  H       -1.2578930    -0.5558900     1.8421060
  H       -4.3648950     0.1725180    -0.0402120
  H       -3.5438220    -1.0118610     0.7575640
  H        0.7360800    -2.3037000     0.4086560
  H        3.6499200     1.6470780    -0.2894290
  H        0.2227830     2.2055990    -1.2916560
  H        0.5919240     2.7705950     0.3416580
  H        1.7859030     2.9697170    -0.9386560
  H        3.1912420    -2.5456860     0.5460090
  H        4.6540550    -0.5586080     0.2046590
units angstrom
no_reorient  #important for SAPT in psi4, default
symmetry c1  #important for SAPT in psi4, default
}

set PROPERTIES_ORIGIN ["COM"]
properties('MP2/aug-cc-pvtz', properties = ['dipole'])
--------------------------------------------------------------------------

    Molecular point group: c1
  Charge       = 1
  Multiplicity = 1
  Basis Set: AUG-CC-PVTZ
    Blend: AUG-CC-PVTZ
  Basis Set: (AUG-CC-PVTZ AUX)
    Blend: AUG-CC-PVTZ-JKFIT

    Orbital Energies [Eh]
    ---------------------

    Doubly Occupied:

       1A    -15.866629     2A    -15.703006     3A    -11.456818
       4A    -11.456763     5A    -11.417541     6A    -11.417205
       7A    -11.374869     8A    -11.346577     9A    -11.340220
      10A    -11.331951    11A    -11.330023    12A    -11.327751
      13A    -11.323860    14A     -1.497532    15A     -1.390171
      16A     -1.248813    17A     -1.221848    18A     -1.156042
      19A     -1.141241    20A     -1.089470    21A     -1.053465
      22A     -1.031677    23A     -0.995706    24A     -0.935410
      25A     -0.924070    26A     -0.903421    27A     -0.867306
      28A     -0.823726    29A     -0.810299    30A     -0.793690
      31A     -0.788460    32A     -0.754894    33A     -0.744495
      34A     -0.734539    35A     -0.716148    36A     -0.704551
      37A     -0.687791    38A     -0.675012    39A     -0.669137
      40A     -0.659906    41A     -0.655437    42A     -0.641316
      43A     -0.601848    44A     -0.589383    45A     -0.588018
      46A     -0.521847    47A     -0.434226    48A     -0.422044

  @DF-RHF Final Energy:  -535.30832583701260

   => Energetics <=

    Nuclear Repulsion Energy =            819.9823893492546176
    One-Electron Energy =               -2338.2491295667427949
    Two-Electron Energy =                 982.9584143804755740
    Total Energy =                       -535.3083258370126032
  Basis Set: (AUG-CC-PVTZ AUX)
    Blend: AUG-CC-PVTZ-RI
    Molecular point group: c1

    Geometry (in Angstrom), charge = 1, multiplicity = 1:

       Center              X                  Y                   Z               Mass
    ------------   -----------------  -----------------  -----------------  -----------------
         N           -3.471599771031    -0.169098332321     0.160861531325    14.003074004430
         N           -0.673290771031     0.004764667679    -0.128173468675    14.003074004430
         C           -2.789616771031    -0.592338332321    -1.121099468675    12.000000000000
         C           -2.678357771031     0.865928667679     0.926539531325    12.000000000000
         C           -1.391652771031    -1.077470332321    -0.781636468675    12.000000000000
         C           -1.278602771031     0.326724667679     1.158068531325    12.000000000000
         C            0.757252228969    -0.171912332321    -0.039134468675    12.000000000000
         C            1.566115228969     0.962275667679    -0.235389468675    12.000000000000
         C            1.318016228969    -1.421184332321     0.250531531325    12.000000000000
         C            2.972430028969     0.795172067679    -0.132249768675    12.000000000000
         C            0.967825228969     2.307800667679    -0.548630468675    12.000000000000
         C            2.704000228969    -1.561267332321     0.329832531325    12.000000000000
         C            3.521843228969    -0.446471332321     0.143860531325    12.000000000000
         H           -2.752864771031     0.289712667679    -1.762721468675     1.007825032230
         H           -3.408394771031    -1.367383332321    -1.580739468675     1.007825032230
         H           -3.216034771031     1.070857667679     1.855864531325     1.007825032230
         H           -2.650810771031     1.761477667679     0.303106531325     1.007825032230
         H           -1.464543771031    -1.997362332321    -0.169975468675     1.007825032230
         H           -0.877982771031    -1.341894332321    -1.710243468675     1.007825032230
         H           -0.688382771031     1.103842667679     1.651030531325     1.007825032230
         H           -1.309746771031    -0.543288332321     1.842695531325     1.007825032230
         H           -4.416748771031     0.185119667679    -0.039622468675     1.007825032230
         H           -3.595675771031    -0.999259332321     0.758153531325     1.007825032230
         H            0.684226228969    -2.291098332321     0.409245531325     1.007825032230
         H            3.598066228969     1.659679667679    -0.288839468675     1.007825032230
         H            0.170929228969     2.218200667679    -1.291066468675     1.007825032230
         H            0.540070228969     2.783196667679     0.342247531325     1.007825032230
         H            1.734049228969     2.982318667679    -0.938066468675     1.007825032230
         H            3.139388228969    -2.533084332321     0.546598531325     1.007825032230
         H            4.602201228969    -0.546006332321     0.205248531325     1.007825032230

  Basis Set: AUG-CC-PVTZ
    Blend: AUG-CC-PVTZ
  Basis Set: (AUG-CC-PVTZ AUX)
    Blend: AUG-CC-PVTZ-JKFIT
	 Reference Energy          =    -535.3083258370126032 [Eh]
	 Singles Energy            =      -0.0000000000000000 [Eh]
	 Same-Spin Energy          =      -0.5852807296294744 [Eh]
	 Opposite-Spin Energy      =      -1.9171762133100072 [Eh]
	 Correlation Energy        =      -2.5024569429394816 [Eh]
	 Total Energy              =    -537.8107827799520919 [Eh]

	 ================> DF-SCS-MP2 Energies <==================
	-----------------------------------------------------------
	 SCS Same-Spin Scale       =       0.3333333333333333 [-]
	 SCS Opposite-Spin Scale   =       1.2000000000000000 [-]
	 SCS Same-Spin Energy      =      -0.1950935765431581 [Eh]
	 SCS Opposite-Spin Energy  =      -2.3006114559720086 [Eh]
	 SCS Correlation Energy    =      -2.4957050325151666 [Eh]
	 SCS Total Energy          =    -537.8040308695277645 [Eh]
	-----------------------------------------------------------

  Dipole Moment: [D]
     X:   -12.1142      Y:    -0.6728      Z:     0.7296     Total:    12.1548

*** Psi4 exiting successfully. Buy a developer a beer!
