                               Psi4 1.4a3.dev225

  ==> Input File <==

--------------------------------------------------------------------------
#psi4
#
memory 32 gb

molecule  {
1 1
  N       -3.4197460    -0.1817000     0.1602720
  N       -0.6214370    -0.0078370    -0.1287630
  C       -2.7377630    -0.6049400    -1.1216890
  C       -2.6265040     0.8533270     0.9259500
  C       -1.3858396    -1.0740947    -0.7934059
  C       -1.2267490     0.3141230     1.1574790
  C        0.8091060    -0.1845140    -0.0397240
  C        1.6179690     0.9496740    -0.2359790
  C        1.3698700    -1.4337860     0.2499420
  C        3.0044760     0.7849240    -0.1342920
  C        1.0196790     2.2951990    -0.5492200
  C        2.7558540    -1.5738690     0.3292430
  C        3.5736970    -0.4590730     0.1432710
  H       -2.7010110     0.2771110    -1.7633110
  H       -3.3565410    -1.3799850    -1.5813290
  H       -3.1641810     1.0582560     1.8552750
  H       -2.5989570     1.7488760     0.3025170
  H       -1.4126900    -2.0099640    -0.1705650
  H       -0.8261290    -1.3544960    -1.7108330
  H       -0.6365290     1.0912410     1.6504410
  H       -1.2578930    -0.5558900     1.8421060
  H       -4.3648950     0.1725180    -0.0402120
  H       -3.5438220    -1.0118610     0.7575640
  H        0.7360800    -2.3037000     0.4086560
  H        3.6499200     1.6470780    -0.2894290
  H        0.2227830     2.2055990    -1.2916560
  H        0.5919240     2.7705950     0.3416580
  H        1.7859030     2.9697170    -0.9386560
  H        3.1912420    -2.5456860     0.5460090
  H        4.6540550    -0.5586080     0.2046590
units angstrom
no_reorient  #important for SAPT in psi4, default
symmetry c1  #important for SAPT in psi4, default
}

set PROPERTIES_ORIGIN ["COM"]
properties('MP2/aug-cc-pvtz', properties = ['dipole'])
--------------------------------------------------------------------------

    Molecular point group: c1
  Charge       = 1
  Multiplicity = 1
  Basis Set: AUG-CC-PVTZ
    Blend: AUG-CC-PVTZ
  Basis Set: (AUG-CC-PVTZ AUX)
    Blend: AUG-CC-PVTZ-JKFIT

    Orbital Energies [Eh]
    ---------------------

    Doubly Occupied:

       1A    -15.867104     2A    -15.702425     3A    -11.457040
       4A    -11.456829     5A    -11.418217     6A    -11.416192
       7A    -11.375469     8A    -11.344463     9A    -11.340105
      10A    -11.331635    11A    -11.329817    12A    -11.328580
      13A    -11.323372    14A     -1.499279    15A     -1.386425
      16A     -1.250213    17A     -1.227515    18A     -1.157973
      19A     -1.143336    20A     -1.088739    21A     -1.050457
      22A     -1.031813    23A     -0.996013    24A     -0.935672
      25A     -0.924678    26A     -0.903312    27A     -0.867187
      28A     -0.825587    29A     -0.810228    30A     -0.791550
      31A     -0.788005    32A     -0.754417    33A     -0.746445
      34A     -0.738958    35A     -0.717350    36A     -0.703800
      37A     -0.686150    38A     -0.674114    39A     -0.670217
      40A     -0.658564    41A     -0.653882    42A     -0.639992
      43A     -0.599400    44A     -0.591975    45A     -0.587755
      46A     -0.519291    47A     -0.433524    48A     -0.423475

  @DF-RHF Final Energy:  -535.30579589939657

   => Energetics <=

    Nuclear Repulsion Energy =            820.3115159125834452
    One-Electron Energy =               -2338.8975382593112045
    Two-Electron Energy =                 983.2802264473311880
    Total Energy =                       -535.3057958993965713
  Basis Set: (AUG-CC-PVTZ AUX)
    Blend: AUG-CC-PVTZ-RI
    Molecular point group: c1

    Geometry (in Angstrom), charge = 1, multiplicity = 1:

       Center              X                  Y                   Z               Mass
    ------------   -----------------  -----------------  -----------------  -----------------
         N           -3.467138980206    -0.170340128788     0.161717305894    14.003074004430
         N           -0.668829980206     0.003522871212    -0.127317694106    14.003074004430
         C           -2.785155980206    -0.593580128788    -1.120243694106    12.000000000000
         C           -2.673896980206     0.864686871212     0.927395305894    12.000000000000
         C           -1.433232580206    -1.062734828788    -0.791960594106    12.000000000000
         C           -1.274141980206     0.325482871212     1.158924305894    12.000000000000
         C            0.761713019794    -0.173154128788    -0.038278694106    12.000000000000
         C            1.570576019794     0.961033871212    -0.234533694106    12.000000000000
         C            1.322477019794    -1.422426128788     0.251387305894    12.000000000000
         C            2.957083019794     0.796283871212    -0.132846694106    12.000000000000
         C            0.972286019794     2.306558871212    -0.547774694106    12.000000000000
         C            2.708461019794    -1.562509128788     0.330688305894    12.000000000000
         C            3.526304019794    -0.447713128788     0.144716305894    12.000000000000
         H           -2.748403980206     0.288470871212    -1.761865694106     1.007825032230
         H           -3.403933980206    -1.368625128788    -1.579883694106     1.007825032230
         H           -3.211573980206     1.069615871212     1.856720305894     1.007825032230
         H           -2.646349980206     1.760235871212     0.303962305894     1.007825032230
         H           -1.460082980206    -1.998604128788    -0.169119694106     1.007825032230
         H           -0.873521980206    -1.343136128788    -1.709387694106     1.007825032230
         H           -0.683921980206     1.102600871212     1.651886305894     1.007825032230
         H           -1.305285980206    -0.544530128788     1.843551305894     1.007825032230
         H           -4.412287980206     0.183877871212    -0.038766694106     1.007825032230
         H           -3.591214980206    -1.000501128788     0.759009305894     1.007825032230
         H            0.688687019794    -2.292340128788     0.410101305894     1.007825032230
         H            3.602527019794     1.658437871212    -0.287983694106     1.007825032230
         H            0.175390019794     2.216958871212    -1.290210694106     1.007825032230
         H            0.544531019794     2.781954871212     0.343103305894     1.007825032230
         H            1.738510019794     2.981076871212    -0.937210694106     1.007825032230
         H            3.143849019794    -2.534326128788     0.547454305894     1.007825032230
         H            4.606662019794    -0.547248128788     0.206104305894     1.007825032230

  Basis Set: AUG-CC-PVTZ
    Blend: AUG-CC-PVTZ
  Basis Set: (AUG-CC-PVTZ AUX)
    Blend: AUG-CC-PVTZ-JKFIT
	 Reference Energy          =    -535.3057958993965713 [Eh]
	 Singles Energy            =      -0.0000000000000000 [Eh]
	 Same-Spin Energy          =      -0.5856724763545265 [Eh]
	 Opposite-Spin Energy      =      -1.9175330329764846 [Eh]
	 Correlation Energy        =      -2.5032055093310110 [Eh]
	 Total Energy              =    -537.8090014087275677 [Eh]

	 ================> DF-SCS-MP2 Energies <==================
	-----------------------------------------------------------
	 SCS Same-Spin Scale       =       0.3333333333333333 [-]
	 SCS Opposite-Spin Scale   =       1.2000000000000000 [-]
	 SCS Same-Spin Energy      =      -0.1952241587848421 [Eh]
	 SCS Opposite-Spin Energy  =      -2.3010396395717816 [Eh]
	 SCS Correlation Energy    =      -2.4962637983566238 [Eh]
	 SCS Total Energy          =    -537.8020596977531795 [Eh]
	-----------------------------------------------------------

  Dipole Moment: [D]
     X:   -12.1215      Y:    -0.6934      Z:     0.6914     Total:    12.1610

*** Psi4 exiting successfully. Buy a developer a beer!
