                               Psi4 1.4a3.dev225

  ==> Input File <==

--------------------------------------------------------------------------
#psi4
#
memory 32 gb

molecule  {
1 1
  N       -3.4197460    -0.1817000     0.1602720
  N       -0.6214370    -0.0078370    -0.1287630
  C       -2.7377630    -0.6049400    -1.1216890
  C       -2.6265040     0.8533270     0.9259500
  C       -1.3397990    -1.0900720    -0.7822260
  C       -1.2267490     0.3141230     1.1574790
  C        0.8091060    -0.1845140    -0.0397240
  C        1.6179690     0.9496740    -0.2359790
  C        1.3698700    -1.4337860     0.2499420
  C        3.0044760     0.7849240    -0.1342920
  C        1.0196790     2.2951990    -0.5492200
  C        2.7558540    -1.5738690     0.3292430
  C        3.5736970    -0.4590730     0.1432710
  H       -2.7010110     0.2771110    -1.7633110
  H       -3.3565410    -1.3799850    -1.5813290
  H       -3.1641810     1.0582560     1.8552750
  H       -2.5989570     1.7488760     0.3025170
  H       -1.4126900    -2.0099640    -0.1705650
  H       -0.8261290    -1.3544960    -1.7108330
  H       -0.6365290     1.0912410     1.6504410
  H       -1.2578930    -0.5558900     1.8421060
  H       -4.3648950     0.1725180    -0.0402120
  H       -3.5438220    -1.0118610     0.7575640
  H        0.8525911    -2.1437817     0.3794792
  H        3.6499200     1.6470780    -0.2894290
  H        0.2227830     2.2055990    -1.2916560
  H        0.5919240     2.7705950     0.3416580
  H        1.7859030     2.9697170    -0.9386560
  H        3.1912420    -2.5456860     0.5460090
  H        4.6540550    -0.5586080     0.2046590
units angstrom
no_reorient  #important for SAPT in psi4, default
symmetry c1  #important for SAPT in psi4, default
}

set PROPERTIES_ORIGIN ["COM"]
properties('MP2/aug-cc-pvtz', properties = ['dipole'])
--------------------------------------------------------------------------

    Molecular point group: c1
  Charge       = 1
  Multiplicity = 1
  Basis Set: AUG-CC-PVTZ
    Blend: AUG-CC-PVTZ
  Basis Set: (AUG-CC-PVTZ AUX)
    Blend: AUG-CC-PVTZ-JKFIT

    Orbital Energies [Eh]
    ---------------------

    Doubly Occupied:

       1A    -15.866975     2A    -15.703211     3A    -11.457328
       4A    -11.457026     5A    -11.418307     6A    -11.417598
       7A    -11.373769     8A    -11.343177     9A    -11.330504
      10A    -11.329249    11A    -11.327540    12A    -11.322978
      13A    -11.315934    14A     -1.497894    15A     -1.390715
      16A     -1.250725    17A     -1.222298    18A     -1.155512
      19A     -1.148100    20A     -1.093390    21A     -1.053913
      22A     -1.031833    23A     -0.997741    24A     -0.945736
      25A     -0.928099    26A     -0.906711    27A     -0.868420
      28A     -0.824213    29A     -0.811707    30A     -0.799642
      31A     -0.788820    32A     -0.772043    33A     -0.744509
      34A     -0.734811    35A     -0.720648    36A     -0.707760
      37A     -0.688401    38A     -0.674838    39A     -0.672346
      40A     -0.660621    41A     -0.656263    42A     -0.640075
      43A     -0.601192    44A     -0.594127    45A     -0.587323
      46A     -0.521820    47A     -0.433033    48A     -0.422495

  @DF-RHF Final Energy:  -535.27464445707665

   => Energetics <=

    Nuclear Repulsion Energy =            821.4231676634391306
    One-Electron Energy =               -2340.9728877582901987
    Two-Electron Energy =                 984.2750756377745347
    Total Energy =                       -535.2746444570766471
  Basis Set: (AUG-CC-PVTZ AUX)
    Blend: AUG-CC-PVTZ-RI
    Molecular point group: c1

    Geometry (in Angstrom), charge = 1, multiplicity = 1:

       Center              X                  Y                   Z               Mass
    ------------   -----------------  -----------------  -----------------  -----------------
         N           -3.470920808865    -0.170167620734     0.161125942118    14.003074004430
         N           -0.672611808865     0.003695379266    -0.127909057882    14.003074004430
         C           -2.788937808865    -0.593407620734    -1.120835057882    12.000000000000
         C           -2.677678808865     0.864859379266     0.926803942118    12.000000000000
         C           -1.390973808865    -1.078539620734    -0.781372057882    12.000000000000
         C           -1.277923808865     0.325655379266     1.158332942118    12.000000000000
         C            0.757931191135    -0.172981620734    -0.038870057882    12.000000000000
         C            1.566794191135     0.961206379266    -0.235125057882    12.000000000000
         C            1.318695191135    -1.422253620734     0.250795942118    12.000000000000
         C            2.953301191135     0.796456379266    -0.133438057882    12.000000000000
         C            0.968504191135     2.306731379266    -0.548366057882    12.000000000000
         C            2.704679191135    -1.562336620734     0.330096942118    12.000000000000
         C            3.522522191135    -0.447540620734     0.144124942118    12.000000000000
         H           -2.752185808865     0.288643379266    -1.762457057882     1.007825032230
         H           -3.407715808865    -1.368452620734    -1.580475057882     1.007825032230
         H           -3.215355808865     1.069788379266     1.856128942118     1.007825032230
         H           -2.650131808865     1.760408379266     0.303370942118     1.007825032230
         H           -1.463864808865    -1.998431620734    -0.169711057882     1.007825032230
         H           -0.877303808865    -1.342963620734    -1.709979057882     1.007825032230
         H           -0.687703808865     1.102773379266     1.651294942118     1.007825032230
         H           -1.309067808865    -0.544357620734     1.842959942118     1.007825032230
         H           -4.416069808865     0.184050379266    -0.039358057882     1.007825032230
         H           -3.594996808865    -1.000328620734     0.758417942118     1.007825032230
         H            0.801416291135    -2.132249320734     0.380333142118     1.007825032230
         H            3.598745191135     1.658610379266    -0.288575057882     1.007825032230
         H            0.171608191135     2.217131379266    -1.290802057882     1.007825032230
         H            0.540749191135     2.782127379266     0.342511942118     1.007825032230
         H            1.734728191135     2.981249379266    -0.937802057882     1.007825032230
         H            3.140067191135    -2.534153620734     0.546862942118     1.007825032230
         H            4.602880191135    -0.547075620734     0.205512942118     1.007825032230

  Basis Set: AUG-CC-PVTZ
    Blend: AUG-CC-PVTZ
  Basis Set: (AUG-CC-PVTZ AUX)
    Blend: AUG-CC-PVTZ-JKFIT
	 Reference Energy          =    -535.2746444570766471 [Eh]
	 Singles Energy            =      -0.0000000000000000 [Eh]
	 Same-Spin Energy          =      -0.5849076203907084 [Eh]
	 Opposite-Spin Energy      =      -1.9164490953409101 [Eh]
	 Correlation Energy        =      -2.5013567157316183 [Eh]
	 Total Energy              =    -537.7760011728082645 [Eh]

	 ================> DF-SCS-MP2 Energies <==================
	-----------------------------------------------------------
	 SCS Same-Spin Scale       =       0.3333333333333333 [-]
	 SCS Opposite-Spin Scale   =       1.2000000000000000 [-]
	 SCS Same-Spin Energy      =      -0.1949692067969028 [Eh]
	 SCS Opposite-Spin Energy  =      -2.2997389144090921 [Eh]
	 SCS Correlation Energy    =      -2.4947081212059947 [Eh]
	 SCS Total Energy          =    -537.7693525782826782 [Eh]
	-----------------------------------------------------------

  Dipole Moment: [D]
     X:   -12.1597      Y:    -0.7135      Z:     0.7346     Total:    12.2027

*** Psi4 exiting successfully. Buy a developer a beer!
