                               Psi4 1.4a3.dev225

  ==> Input File <==

--------------------------------------------------------------------------
#psi4
#
memory 32 gb

molecule  {
1 1
  N       -3.4197460    -0.1817000     0.1602720
  N       -0.6214370    -0.0078370    -0.1287630
  C       -2.7377630    -0.6049400    -1.1216890
  C       -2.6265040     0.8533270     0.9259500
  C       -1.3397990    -1.0900720    -0.7822260
  C       -1.2267490     0.3141230     1.1574790
  C        0.8091060    -0.1845140    -0.0397240
  C        1.6179690     0.9496740    -0.2359790
  C        1.3698700    -1.4337860     0.2499420
  C        3.0044760     0.7849240    -0.1342920
  C        1.0196790     2.2951990    -0.5492200
  C        2.7558540    -1.5738690     0.3292430
  C        3.5736970    -0.4590730     0.1432710
  H       -2.7010110     0.2771110    -1.7633110
  H       -3.3565410    -1.3799850    -1.5813290
  H       -3.1641810     1.0582560     1.8552750
  H       -2.5989570     1.7488760     0.3025170
  H       -1.4126900    -2.0099640    -0.1705650
  H       -0.8261290    -1.3544960    -1.7108330
  H       -0.6365290     1.0912410     1.6504410
  H       -1.2578930    -0.5558900     1.8421060
  H       -4.3648950     0.1725180    -0.0402120
  H       -3.5438220    -1.0118610     0.7575640
  H        0.7360800    -2.3037000     0.4086560
  H        3.6499200     1.6470780    -0.2894290
  H        0.2227830     2.2055990    -1.2916560
  H        0.5919240     2.7705950     0.3416580
  H        1.7859030     2.9697170    -0.9386560
  H        3.1912420    -2.5456860     0.5460090
  H        4.6739389    -0.5604399     0.2057888
units angstrom
no_reorient  #important for SAPT in psi4, default
symmetry c1  #important for SAPT in psi4, default
}

set PROPERTIES_ORIGIN ["COM"]
properties('MP2/aug-cc-pvtz', properties = ['dipole'])
--------------------------------------------------------------------------

    Molecular point group: c1
  Charge       = 1
  Multiplicity = 1
  Basis Set: AUG-CC-PVTZ
    Blend: AUG-CC-PVTZ
  Basis Set: (AUG-CC-PVTZ AUX)
    Blend: AUG-CC-PVTZ-JKFIT

    Orbital Energies [Eh]
    ---------------------

    Doubly Occupied:

       1A    -15.866668     2A    -15.703106     3A    -11.456847
       4A    -11.456812     5A    -11.417586     6A    -11.417310
       7A    -11.375221     8A    -11.344503     9A    -11.340304
      10A    -11.332293    11A    -11.331113    12A    -11.329437
      13A    -11.323646    14A     -1.497575    15A     -1.390306
      16A     -1.249929    17A     -1.221900    18A     -1.155447
      19A     -1.142730    20A     -1.087699    21A     -1.053542
      22A     -1.032062    23A     -0.995990    24A     -0.935394
      25A     -0.924074    26A     -0.902844    27A     -0.867226
      28A     -0.823768    29A     -0.810227    30A     -0.793553
      31A     -0.788532    32A     -0.752764    33A     -0.744756
      34A     -0.734573    35A     -0.714571    36A     -0.704530
      37A     -0.687742    38A     -0.675231    39A     -0.669309
      40A     -0.660005    41A     -0.655117    42A     -0.640292
      43A     -0.599698    44A     -0.590707    45A     -0.588174
      46A     -0.521706    47A     -0.433639    48A     -0.423568

  @DF-RHF Final Energy:  -535.30822858274314

   => Energetics <=

    Nuclear Repulsion Energy =            820.1850510342577536
    One-Electron Energy =               -2338.6585065253520952
    Two-Electron Energy =                 983.1652269083510873
    Total Energy =                       -535.3082285827431406
  Basis Set: (AUG-CC-PVTZ AUX)
    Blend: AUG-CC-PVTZ-RI
    Molecular point group: c1

    Geometry (in Angstrom), charge = 1, multiplicity = 1:

       Center              X                  Y                   Z               Mass
    ------------   -----------------  -----------------  -----------------  -----------------
         N           -3.470371052936    -0.169247350546     0.160953514137    14.003074004430
         N           -0.672062052936     0.004615649454    -0.128081485863    14.003074004430
         C           -2.788388052936    -0.592487350546    -1.121007485863    12.000000000000
         C           -2.677129052936     0.865779649454     0.926631514137    12.000000000000
         C           -1.390424052936    -1.077619350546    -0.781544485863    12.000000000000
         C           -1.277374052936     0.326575649454     1.158160514137    12.000000000000
         C            0.758480947064    -0.172061350546    -0.039042485863    12.000000000000
         C            1.567343947064     0.962126649454    -0.235297485863    12.000000000000
         C            1.319244947064    -1.421333350546     0.250623514137    12.000000000000
         C            2.953850947064     0.797376649454    -0.133610485863    12.000000000000
         C            0.969053947064     2.307651649454    -0.548538485863    12.000000000000
         C            2.705228947064    -1.561416350546     0.329924514137    12.000000000000
         C            3.523071947064    -0.446620350546     0.143952514137    12.000000000000
         H           -2.751636052936     0.289563649454    -1.762629485863     1.007825032230
         H           -3.407166052936    -1.367532350546    -1.580647485863     1.007825032230
         H           -3.214806052936     1.070708649454     1.855956514137     1.007825032230
         H           -2.649582052936     1.761328649454     0.303198514137     1.007825032230
         H           -1.463315052936    -1.997511350546    -0.169883485863     1.007825032230
         H           -0.876754052936    -1.342043350546    -1.710151485863     1.007825032230
         H           -0.687154052936     1.103693649454     1.651122514137     1.007825032230
         H           -1.308518052936    -0.543437350546     1.842787514137     1.007825032230
         H           -4.415520052936     0.184970649454    -0.039530485863     1.007825032230
         H           -3.594447052936    -0.999408350546     0.758245514137     1.007825032230
         H            0.685454947064    -2.291247350546     0.409337514137     1.007825032230
         H            3.599294947064     1.659530649454    -0.288747485863     1.007825032230
         H            0.172157947064     2.218051649454    -1.290974485863     1.007825032230
         H            0.541298947064     2.783047649454     0.342339514137     1.007825032230
         H            1.735277947064     2.982169649454    -0.937974485863     1.007825032230
         H            3.140616947064    -2.533233350546     0.546690514137     1.007825032230
         H            4.623313847064    -0.547987250546     0.206470314137     1.007825032230

  Basis Set: AUG-CC-PVTZ
    Blend: AUG-CC-PVTZ
  Basis Set: (AUG-CC-PVTZ AUX)
    Blend: AUG-CC-PVTZ-JKFIT
	 Reference Energy          =    -535.3082285827431406 [Eh]
	 Singles Energy            =      -0.0000000000000000 [Eh]
	 Same-Spin Energy          =      -0.5853355293914244 [Eh]
	 Opposite-Spin Energy      =      -1.9173158689208718 [Eh]
	 Correlation Energy        =      -2.5026513983122962 [Eh]
	 Total Energy              =    -537.8108799810554501 [Eh]

	 ================> DF-SCS-MP2 Energies <==================
	-----------------------------------------------------------
	 SCS Same-Spin Scale       =       0.3333333333333333 [-]
	 SCS Opposite-Spin Scale   =       1.2000000000000000 [-]
	 SCS Same-Spin Energy      =      -0.1951118431304748 [Eh]
	 SCS Opposite-Spin Energy  =      -2.3007790427050461 [Eh]
	 SCS Correlation Energy    =      -2.4958908858355207 [Eh]
	 SCS Total Energy          =    -537.8041194685786195 [Eh]
	-----------------------------------------------------------

  Dipole Moment: [D]
     X:   -12.1102      Y:    -0.6839      Z:     0.7320     Total:    12.1516

*** Psi4 exiting successfully. Buy a developer a beer!
