                               Psi4 1.4a3.dev225

  ==> Input File <==

--------------------------------------------------------------------------
#psi4
#
memory 32 gb

molecule  {
1 1
  N       -3.4197460    -0.1817000     0.1602720
  N       -0.6214370    -0.0078370    -0.1287630
  C       -2.7377630    -0.6049400    -1.1216890
  C       -2.6164450     0.8719489     0.9100202
  C       -1.3397990    -1.0900720    -0.7822260
  C       -1.2267490     0.3141230     1.1574790
  C        0.8091060    -0.1845140    -0.0397240
  C        1.6179690     0.9496740    -0.2359790
  C        1.3698700    -1.4337860     0.2499420
  C        3.0044760     0.7849240    -0.1342920
  C        1.0196790     2.2951990    -0.5492200
  C        2.7558540    -1.5738690     0.3292430
  C        3.5736970    -0.4590730     0.1432710
  H       -2.7010110     0.2771110    -1.7633110
  H       -3.3565410    -1.3799850    -1.5813290
  H       -3.1641810     1.0582560     1.8552750
  H       -2.5989570     1.7488760     0.3025170
  H       -1.4126900    -2.0099640    -0.1705650
  H       -0.8261290    -1.3544960    -1.7108330
  H       -0.6365290     1.0912410     1.6504410
  H       -1.2578930    -0.5558900     1.8421060
  H       -4.3648950     0.1725180    -0.0402120
  H       -3.5438220    -1.0118610     0.7575640
  H        0.7360800    -2.3037000     0.4086560
  H        3.6499200     1.6470780    -0.2894290
  H        0.2227830     2.2055990    -1.2916560
  H        0.5919240     2.7705950     0.3416580
  H        1.7859030     2.9697170    -0.9386560
  H        3.1912420    -2.5456860     0.5460090
  H        4.6540550    -0.5586080     0.2046590
units angstrom
no_reorient  #important for SAPT in psi4, default
symmetry c1  #important for SAPT in psi4, default
}

set PROPERTIES_ORIGIN ["COM"]
properties('MP2/aug-cc-pvtz', properties = ['dipole'])
--------------------------------------------------------------------------

    Molecular point group: c1
  Charge       = 1
  Multiplicity = 1
  Basis Set: AUG-CC-PVTZ
    Blend: AUG-CC-PVTZ
  Basis Set: (AUG-CC-PVTZ AUX)
    Blend: AUG-CC-PVTZ-JKFIT

    Orbital Energies [Eh]
    ---------------------

    Doubly Occupied:

       1A    -15.865676     2A    -15.702848     3A    -11.457234
       4A    -11.456201     5A    -11.417496     6A    -11.417352
       7A    -11.375129     8A    -11.344397     9A    -11.340174
      10A    -11.331838    11A    -11.329920    12A    -11.328628
      13A    -11.323733    14A     -1.495293    15A     -1.390179
      16A     -1.249956    17A     -1.221417    18A     -1.155780
      19A     -1.142737    20A     -1.088387    21A     -1.052623
      22A     -1.032197    23A     -0.996781    24A     -0.934457
      25A     -0.923324    26A     -0.903145    27A     -0.866136
      28A     -0.826286    29A     -0.810530    30A     -0.792559
      31A     -0.786610    32A     -0.754905    33A     -0.745043
      34A     -0.733343    35A     -0.715830    36A     -0.706396
      37A     -0.690179    38A     -0.675285    39A     -0.669499
      40A     -0.659157    41A     -0.654680    42A     -0.640556
      43A     -0.600061    44A     -0.591587    45A     -0.588062
      46A     -0.521812    47A     -0.433573    48A     -0.423500

  @DF-RHF Final Energy:  -535.30802578671467

   => Energetics <=

    Nuclear Repulsion Energy =            820.3150031526718067
    One-Electron Energy =               -2338.9210676304001026
    Two-Electron Energy =                 983.2980386910136303
    Total Energy =                       -535.3080257867146656
  Basis Set: (AUG-CC-PVTZ AUX)
    Blend: AUG-CC-PVTZ-RI
    Molecular point group: c1

    Geometry (in Angstrom), charge = 1, multiplicity = 1:

       Center              X                  Y                   Z               Mass
    ------------   -----------------  -----------------  -----------------  -----------------
         N           -3.470939354717    -0.170519282836     0.162039080005    14.003074004430
         N           -0.672630354717     0.003343717164    -0.126995919995    14.003074004430
         C           -2.788956354717    -0.593759282836    -1.119921919995    12.000000000000
         C           -2.667638354717     0.883129617164     0.911787280005    12.000000000000
         C           -1.390992354717    -1.078891282836    -0.780458919995    12.000000000000
         C           -1.277942354717     0.325303717164     1.159246080005    12.000000000000
         C            0.757912645283    -0.173333282836    -0.037956919995    12.000000000000
         C            1.566775645283     0.960854717164    -0.234211919995    12.000000000000
         C            1.318676645283    -1.422605282836     0.251709080005    12.000000000000
         C            2.953282645283     0.796104717164    -0.132524919995    12.000000000000
         C            0.968485645283     2.306379717164    -0.547452919995    12.000000000000
         C            2.704660645283    -1.562688282836     0.331010080005    12.000000000000
         C            3.522503645283    -0.447892282836     0.145038080005    12.000000000000
         H           -2.752204354717     0.288291717164    -1.761543919995     1.007825032230
         H           -3.407734354717    -1.368804282836    -1.579561919995     1.007825032230
         H           -3.215374354717     1.069436717164     1.857042080005     1.007825032230
         H           -2.650150354717     1.760056717164     0.304284080005     1.007825032230
         H           -1.463883354717    -1.998783282836    -0.168797919995     1.007825032230
         H           -0.877322354717    -1.343315282836    -1.709065919995     1.007825032230
         H           -0.687722354717     1.102421717164     1.652208080005     1.007825032230
         H           -1.309086354717    -0.544709282836     1.843873080005     1.007825032230
         H           -4.416088354717     0.183698717164    -0.038444919995     1.007825032230
         H           -3.595015354717    -1.000680282836     0.759331080005     1.007825032230
         H            0.684886645283    -2.292519282836     0.410423080005     1.007825032230
         H            3.598726645283     1.658258717164    -0.287661919995     1.007825032230
         H            0.171589645283     2.216779717164    -1.289888919995     1.007825032230
         H            0.540730645283     2.781775717164     0.343425080005     1.007825032230
         H            1.734709645283     2.980897717164    -0.936888919995     1.007825032230
         H            3.140048645283    -2.534505282836     0.547776080005     1.007825032230
         H            4.602861645283    -0.547427282836     0.206426080005     1.007825032230

  Basis Set: AUG-CC-PVTZ
    Blend: AUG-CC-PVTZ
  Basis Set: (AUG-CC-PVTZ AUX)
    Blend: AUG-CC-PVTZ-JKFIT
	 Reference Energy          =    -535.3080257867146656 [Eh]
	 Singles Energy            =      -0.0000000000000000 [Eh]
	 Same-Spin Energy          =      -0.5852537843287619 [Eh]
	 Opposite-Spin Energy      =      -1.9172086613191959 [Eh]
	 Correlation Energy        =      -2.5024624456479576 [Eh]
	 Total Energy              =    -537.8104882323626725 [Eh]

	 ================> DF-SCS-MP2 Energies <==================
	-----------------------------------------------------------
	 SCS Same-Spin Scale       =       0.3333333333333333 [-]
	 SCS Opposite-Spin Scale   =       1.2000000000000000 [-]
	 SCS Same-Spin Energy      =      -0.1950845947762540 [Eh]
	 SCS Opposite-Spin Energy  =      -2.3006503935830351 [Eh]
	 SCS Correlation Energy    =      -2.4957349883592892 [Eh]
	 SCS Total Energy          =    -537.8037607750740108 [Eh]
	-----------------------------------------------------------

  Dipole Moment: [D]
     X:   -12.0931      Y:    -0.6685      Z:     0.7400     Total:    12.1341

*** Psi4 exiting successfully. Buy a developer a beer!
