                               Psi4 1.4a3.dev225

  ==> Input File <==

--------------------------------------------------------------------------
#psi4
#
memory 32 gb

molecule  {
1 1
  N       -3.4197460    -0.1817000     0.1602720
  N       -0.6214370    -0.0078370    -0.1287630
  C       -2.7377630    -0.6049400    -1.1216890
  C       -2.6265040     0.8533270     0.9259500
  C       -1.3150971    -1.0528578    -0.7597557
  C       -1.2267490     0.3141230     1.1574790
  C        0.8091060    -0.1845140    -0.0397240
  C        1.6179690     0.9496740    -0.2359790
  C        1.3698700    -1.4337860     0.2499420
  C        3.0044760     0.7849240    -0.1342920
  C        1.0196790     2.2951990    -0.5492200
  C        2.7558540    -1.5738690     0.3292430
  C        3.5736970    -0.4590730     0.1432710
  H       -2.7010110     0.2771110    -1.7633110
  H       -3.3565410    -1.3799850    -1.5813290
  H       -3.1641810     1.0582560     1.8552750
  H       -2.5989570     1.7488760     0.3025170
  H       -1.4126900    -2.0099640    -0.1705650
  H       -0.8261290    -1.3544960    -1.7108330
  H       -0.6365290     1.0912410     1.6504410
  H       -1.2578930    -0.5558900     1.8421060
  H       -4.3648950     0.1725180    -0.0402120
  H       -3.5438220    -1.0118610     0.7575640
  H        0.7360800    -2.3037000     0.4086560
  H        3.6499200     1.6470780    -0.2894290
  H        0.2227830     2.2055990    -1.2916560
  H        0.5919240     2.7705950     0.3416580
  H        1.7859030     2.9697170    -0.9386560
  H        3.1912420    -2.5456860     0.5460090
  H        4.6540550    -0.5586080     0.2046590
units angstrom
no_reorient  #important for SAPT in psi4, default
symmetry c1  #important for SAPT in psi4, default
}

set PROPERTIES_ORIGIN ["COM"]
properties('MP2/aug-cc-pvtz', properties = ['dipole'])
--------------------------------------------------------------------------

    Molecular point group: c1
  Charge       = 1
  Multiplicity = 1
  Basis Set: AUG-CC-PVTZ
    Blend: AUG-CC-PVTZ
  Basis Set: (AUG-CC-PVTZ AUX)
    Blend: AUG-CC-PVTZ-JKFIT

    Orbital Energies [Eh]
    ---------------------

    Doubly Occupied:

       1A    -15.865490     2A    -15.703636     3A    -11.457168
       4A    -11.455900     5A    -11.418604     6A    -11.418482
       7A    -11.376293     8A    -11.345417     9A    -11.341049
      10A    -11.332440    11A    -11.330603    12A    -11.329396
      13A    -11.324450    14A     -1.497342    15A     -1.401447
      16A     -1.251417    17A     -1.220070    18A     -1.155353
      19A     -1.143129    20A     -1.089765    21A     -1.055157
      22A     -1.033044    23A     -0.994939    24A     -0.935373
      25A     -0.924105    26A     -0.904681    27A     -0.867487
      28A     -0.821911    29A     -0.812660    30A     -0.797490
      31A     -0.790843    32A     -0.756301    33A     -0.744868
      34A     -0.734191    35A     -0.713173    36A     -0.704770
      37A     -0.686687    38A     -0.677315    39A     -0.669242
      40A     -0.659781    41A     -0.652040    42A     -0.640828
      43A     -0.600579    44A     -0.592572    45A     -0.589322
      46A     -0.521833    47A     -0.434407    48A     -0.424509

  @DF-RHF Final Energy:  -535.30621439070421

   => Energetics <=

    Nuclear Repulsion Energy =            821.2495094276177952
    One-Electron Energy =               -2340.7163312722418596
    Two-Electron Energy =                 984.1606074539198517
    Total Energy =                       -535.3062143907042127
  Basis Set: (AUG-CC-PVTZ AUX)
    Blend: AUG-CC-PVTZ-RI
    Molecular point group: c1

    Geometry (in Angstrom), charge = 1, multiplicity = 1:

       Center              X                  Y                   Z               Mass
    ------------   -----------------  -----------------  -----------------  -----------------
         N           -3.471931313731    -0.171778787414     0.159437728815    14.003074004430
         N           -0.673622313731     0.002084212586    -0.129597271185    14.003074004430
         C           -2.789948313731    -0.595018787414    -1.122523271185    12.000000000000
         C           -2.678689313731     0.863248212586     0.925115728815    12.000000000000
         C           -1.367282413731    -1.042936587414    -0.760589971185    12.000000000000
         C           -1.278934313731     0.324044212586     1.156644728815    12.000000000000
         C            0.756920686269    -0.174592787414    -0.040558271185    12.000000000000
         C            1.565783686269     0.959595212586    -0.236813271185    12.000000000000
         C            1.317684686269    -1.423864787414     0.249107728815    12.000000000000
         C            2.952290686269     0.794845212586    -0.135126271185    12.000000000000
         C            0.967493686269     2.305120212586    -0.550054271185    12.000000000000
         C            2.703668686269    -1.563947787414     0.328408728815    12.000000000000
         C            3.521511686269    -0.449151787414     0.142436728815    12.000000000000
         H           -2.753196313731     0.287032212586    -1.764145271185     1.007825032230
         H           -3.408726313731    -1.370063787414    -1.582163271185     1.007825032230
         H           -3.216366313731     1.068177212586     1.854440728815     1.007825032230
         H           -2.651142313731     1.758797212586     0.301682728815     1.007825032230
         H           -1.464875313731    -2.000042787414    -0.171399271185     1.007825032230
         H           -0.878314313731    -1.344574787414    -1.711667271185     1.007825032230
         H           -0.688714313731     1.101162212586     1.649606728815     1.007825032230
         H           -1.310078313731    -0.545968787414     1.841271728815     1.007825032230
         H           -4.417080313731     0.182439212586    -0.041046271185     1.007825032230
         H           -3.596007313731    -1.001939787414     0.756729728815     1.007825032230
         H            0.683894686269    -2.293778787414     0.407821728815     1.007825032230
         H            3.597734686269     1.656999212586    -0.290263271185     1.007825032230
         H            0.170597686269     2.215520212586    -1.292490271185     1.007825032230
         H            0.539738686269     2.780516212586     0.340823728815     1.007825032230
         H            1.733717686269     2.979638212586    -0.939490271185     1.007825032230
         H            3.139056686269    -2.535764787414     0.545174728815     1.007825032230
         H            4.601869686269    -0.548686787414     0.203824728815     1.007825032230

  Basis Set: AUG-CC-PVTZ
    Blend: AUG-CC-PVTZ
  Basis Set: (AUG-CC-PVTZ AUX)
    Blend: AUG-CC-PVTZ-JKFIT
	 Reference Energy          =    -535.3062143907042127 [Eh]
	 Singles Energy            =      -0.0000000000000000 [Eh]
	 Same-Spin Energy          =      -0.5856783850924557 [Eh]
	 Opposite-Spin Energy      =      -1.9173393773666150 [Eh]
	 Correlation Energy        =      -2.5030177624590708 [Eh]
	 Total Energy              =    -537.8092321531632933 [Eh]

	 ================> DF-SCS-MP2 Energies <==================
	-----------------------------------------------------------
	 SCS Same-Spin Scale       =       0.3333333333333333 [-]
	 SCS Opposite-Spin Scale   =       1.2000000000000000 [-]
	 SCS Same-Spin Energy      =      -0.1952261283641519 [Eh]
	 SCS Opposite-Spin Energy  =      -2.3008072528399377 [Eh]
	 SCS Correlation Energy    =      -2.4960333812040898 [Eh]
	 SCS Total Energy          =    -537.8022477719083554 [Eh]
	-----------------------------------------------------------

  Dipole Moment: [D]
     X:   -12.0045      Y:    -0.6007      Z:     0.7638     Total:    12.0437

*** Psi4 exiting successfully. Buy a developer a beer!
