                               Psi4 1.4a3.dev225

  ==> Input File <==

--------------------------------------------------------------------------
#psi4
#
memory 32 gb

molecule  {
1 1
  N       -3.4197460    -0.1817000     0.1602720
  N       -0.6214370    -0.0078370    -0.1287630
  C       -2.7377630    -0.6049400    -1.1216890
  C       -2.6265040     0.8533270     0.9259500
  C       -1.3397990    -1.0900720    -0.7822260
  C       -1.2267490     0.3141230     1.1574790
  C        0.8091060    -0.1845140    -0.0397240
  C        1.6179690     0.9496740    -0.2359790
  C        1.3698700    -1.4337860     0.2499420
  C        3.0044760     0.7849240    -0.1342920
  C        1.0196790     2.2951990    -0.5492200
  C        2.7558540    -1.5738690     0.3292430
  C        3.5736970    -0.4590730     0.1432710
  H       -2.7010110     0.2771110    -1.7633110
  H       -3.3565410    -1.3799850    -1.5813290
  H       -3.1641810     1.0582560     1.8552750
  H       -2.5989570     1.7488760     0.3025170
  H       -1.4126900    -2.0099640    -0.1705650
  H       -0.8261290    -1.3544960    -1.7108330
  H       -0.6365290     1.0912410     1.6504410
  H       -1.2578930    -0.5558900     1.8421060
  H       -4.3648950     0.1725180    -0.0402120
  H       -3.5438220    -1.0118610     0.7575640
  H        0.7360800    -2.3037000     0.4086560
  H        3.6499200     1.6470780    -0.2894290
  H        0.2044272     2.1818580    -1.2681087
  H        0.5919240     2.7705950     0.3416580
  H        1.7859030     2.9697170    -0.9386560
  H        3.1912420    -2.5456860     0.5460090
  H        4.6540550    -0.5586080     0.2046590
units angstrom
no_reorient  #important for SAPT in psi4, default
symmetry c1  #important for SAPT in psi4, default
}

set PROPERTIES_ORIGIN ["COM"]
properties('MP2/aug-cc-pvtz', properties = ['dipole'])
--------------------------------------------------------------------------

    Molecular point group: c1
  Charge       = 1
  Multiplicity = 1
  Basis Set: AUG-CC-PVTZ
    Blend: AUG-CC-PVTZ
  Basis Set: (AUG-CC-PVTZ AUX)
    Blend: AUG-CC-PVTZ-JKFIT

    Orbital Energies [Eh]
    ---------------------

    Doubly Occupied:

       1A    -15.866748     2A    -15.703246     3A    -11.456933
       4A    -11.456912     5A    -11.417660     6A    -11.417393
       7A    -11.375113     8A    -11.344278     9A    -11.340219
      10A    -11.331701    11A    -11.329786    12A    -11.328557
      13A    -11.323630    14A     -1.497661    15A     -1.390427
      16A     -1.249931    17A     -1.221996    18A     -1.155737
      19A     -1.142741    20A     -1.088156    21A     -1.053630
      22A     -1.031975    23A     -0.996242    24A     -0.935575
      25A     -0.924366    26A     -0.903170    27A     -0.867550
      28A     -0.823866    29A     -0.810274    30A     -0.793686
      31A     -0.788632    32A     -0.754918    33A     -0.745176
      34A     -0.734721    35A     -0.714682    36A     -0.704559
      37A     -0.687870    38A     -0.674089    39A     -0.668986
      40A     -0.660022    41A     -0.655236    42A     -0.643294
      43A     -0.599920    44A     -0.592046    45A     -0.587459
      46A     -0.521729    47A     -0.433492    48A     -0.423302

  @DF-RHF Final Energy:  -535.30865083174956

   => Energetics <=

    Nuclear Repulsion Energy =            820.3867193910270998
    One-Electron Energy =               -2339.0521566289598923
    Two-Electron Energy =                 983.3567864061832324
    Total Energy =                       -535.3086508317495600
  Basis Set: (AUG-CC-PVTZ AUX)
    Blend: AUG-CC-PVTZ-RI
    Molecular point group: c1

    Geometry (in Angstrom), charge = 1, multiplicity = 1:

       Center              X                  Y                   Z               Mass
    ------------   -----------------  -----------------  -----------------  -----------------
         N           -3.470153489954    -0.169122699748     0.160825970820    14.003074004430
         N           -0.671844489954     0.004740300252    -0.128209029180    14.003074004430
         C           -2.788170489954    -0.592362699748    -1.121135029180    12.000000000000
         C           -2.676911489954     0.865904300252     0.926503970820    12.000000000000
         C           -1.390206489954    -1.077494699748    -0.781672029180    12.000000000000
         C           -1.277156489954     0.326700300252     1.158032970820    12.000000000000
         C            0.758698510046    -0.171936699748    -0.039170029180    12.000000000000
         C            1.567561510046     0.962251300252    -0.235425029180    12.000000000000
         C            1.319462510046    -1.421208699748     0.250495970820    12.000000000000
         C            2.954068510046     0.797501300252    -0.133738029180    12.000000000000
         C            0.969271510046     2.307776300252    -0.548666029180    12.000000000000
         C            2.705446510046    -1.561291699748     0.329796970820    12.000000000000
         C            3.523289510046    -0.446495699748     0.143824970820    12.000000000000
         H           -2.751418489954     0.289688300252    -1.762757029180     1.007825032230
         H           -3.406948489954    -1.367407699748    -1.580775029180     1.007825032230
         H           -3.214588489954     1.070833300252     1.855828970820     1.007825032230
         H           -2.649364489954     1.761453300252     0.303070970820     1.007825032230
         H           -1.463097489954    -1.997386699748    -0.170011029180     1.007825032230
         H           -0.876536489954    -1.341918699748    -1.710279029180     1.007825032230
         H           -0.686936489954     1.103818300252     1.650994970820     1.007825032230
         H           -1.308300489954    -0.543312699748     1.842659970820     1.007825032230
         H           -4.415302489954     0.185095300252    -0.039658029180     1.007825032230
         H           -3.594229489954    -0.999283699748     0.758117970820     1.007825032230
         H            0.685672510046    -2.291122699748     0.409209970820     1.007825032230
         H            3.599512510046     1.659655300252    -0.288875029180     1.007825032230
         H            0.154019710046     2.194435300252    -1.267554729180     1.007825032230
         H            0.541516510046     2.783172300252     0.342211970820     1.007825032230
         H            1.735495510046     2.982294300252    -0.938102029180     1.007825032230
         H            3.140834510046    -2.533108699748     0.546562970820     1.007825032230
         H            4.603647510046    -0.546030699748     0.205212970820     1.007825032230

  Basis Set: AUG-CC-PVTZ
    Blend: AUG-CC-PVTZ
  Basis Set: (AUG-CC-PVTZ AUX)
    Blend: AUG-CC-PVTZ-JKFIT
	 Reference Energy          =    -535.3086508317495600 [Eh]
	 Singles Energy            =      -0.0000000000000000 [Eh]
	 Same-Spin Energy          =      -0.5853548035937530 [Eh]
	 Opposite-Spin Energy      =      -1.9172139819277101 [Eh]
	 Correlation Energy        =      -2.5025687855214631 [Eh]
	 Total Energy              =    -537.8112196172710355 [Eh]

	 ================> DF-SCS-MP2 Energies <==================
	-----------------------------------------------------------
	 SCS Same-Spin Scale       =       0.3333333333333333 [-]
	 SCS Opposite-Spin Scale   =       1.2000000000000000 [-]
	 SCS Same-Spin Energy      =      -0.1951182678645843 [Eh]
	 SCS Opposite-Spin Energy  =      -2.3006567783132521 [Eh]
	 SCS Correlation Energy    =      -2.4957750461778363 [Eh]
	 SCS Total Energy          =    -537.8044258779274287 [Eh]
	-----------------------------------------------------------

  Dipole Moment: [D]
     X:   -12.1164      Y:    -0.6893      Z:     0.7440     Total:    12.1588

*** Psi4 exiting successfully. Buy a developer a beer!
