                               Psi4 1.4a3.dev225

  ==> Input File <==

--------------------------------------------------------------------------
#psi4
#
memory 32 gb

molecule  {
1 1
  N       -3.4197460    -0.1817000     0.1602720
  N       -0.6214370    -0.0078370    -0.1287630
  C       -2.7377630    -0.6049400    -1.1216890
  C       -2.6265040     0.8533270     0.9259500
  C       -1.3397990    -1.0900720    -0.7822260
  C       -1.2267490     0.3141230     1.1574790
  C        0.8091060    -0.1845140    -0.0397240
  C        1.6179690     0.9496740    -0.2359790
  C        1.3698700    -1.4337860     0.2499420
  C        3.0044760     0.7849240    -0.1342920
  C        1.0196790     2.2951990    -0.5492200
  C        2.7558540    -1.5738690     0.3292430
  C        3.5736970    -0.4590730     0.1432710
  H       -2.7010110     0.2771110    -1.7633110
  H       -3.3565410    -1.3799850    -1.5813290
  H       -3.1641810     1.0582560     1.8552750
  H       -2.5989570     1.7488760     0.3025170
  H       -1.4126900    -2.0099640    -0.1705650
  H       -0.8261290    -1.3544960    -1.7108330
  H       -0.6365290     1.0912410     1.6504410
  H       -1.2578930    -0.5558900     1.8421060
  H       -4.3648950     0.1725180    -0.0402120
  H       -3.5438220    -1.0118610     0.7575640
  H        0.7943356    -2.2237408     0.3940676
  H        3.6499200     1.6470780    -0.2894290
  H        0.2227830     2.2055990    -1.2916560
  H        0.5919240     2.7705950     0.3416580
  H        1.7859030     2.9697170    -0.9386560
  H        3.1912420    -2.5456860     0.5460090
  H        4.6540550    -0.5586080     0.2046590
units angstrom
no_reorient  #important for SAPT in psi4, default
symmetry c1  #important for SAPT in psi4, default
}

set PROPERTIES_ORIGIN ["COM"]
properties('MP2/aug-cc-pvtz', properties = ['dipole'])
--------------------------------------------------------------------------

    Molecular point group: c1
  Charge       = 1
  Multiplicity = 1
  Basis Set: AUG-CC-PVTZ
    Blend: AUG-CC-PVTZ
  Basis Set: (AUG-CC-PVTZ AUX)
    Blend: AUG-CC-PVTZ-JKFIT

    Orbital Energies [Eh]
    ---------------------

    Doubly Occupied:

       1A    -15.866825     2A    -15.703123     3A    -11.457100
       4A    -11.456913     5A    -11.417972     6A    -11.417444
       7A    -11.374309     8A    -11.343712     9A    -11.331133
      10A    -11.329476    11A    -11.328095    12A    -11.327860
      13A    -11.323234    14A     -1.497737    15A     -1.390466
      16A     -1.250052    17A     -1.222101    18A     -1.155464
      19A     -1.144694    20A     -1.090277    21A     -1.053730
      22A     -1.031817    23A     -0.996766    24A     -0.939047
      25A     -0.926381    26A     -0.905091    27A     -0.867910
      28A     -0.823979    29A     -0.810639    30A     -0.795892
      31A     -0.788667    32A     -0.763519    33A     -0.744624
      34A     -0.734698    35A     -0.717861    36A     -0.706757
      37A     -0.688120    38A     -0.674955    39A     -0.671329
      40A     -0.660336    41A     -0.656081    42A     -0.640243
      43A     -0.600435    44A     -0.593293    45A     -0.587660
      46A     -0.521740    47A     -0.433175    48A     -0.422930

  @DF-RHF Final Energy:  -535.30322290309414

   => Energetics <=

    Nuclear Repulsion Energy =            820.8211337929211595
    One-Electron Energy =               -2339.8773881593451733
    Two-Electron Energy =                 983.7530314633299895
    Total Energy =                       -535.3032229030941380
  Basis Set: (AUG-CC-PVTZ AUX)
    Blend: AUG-CC-PVTZ-RI
    Molecular point group: c1

    Geometry (in Angstrom), charge = 1, multiplicity = 1:

       Center              X                  Y                   Z               Mass
    ------------   -----------------  -----------------  -----------------  -----------------
         N           -3.470589366926    -0.169712697179     0.161042942100    14.003074004430
         N           -0.672280366926     0.004150302821    -0.127992057900    14.003074004430
         C           -2.788606366926    -0.592952697179    -1.120918057900    12.000000000000
         C           -2.677347366926     0.865314302821     0.926720942100    12.000000000000
         C           -1.390642366926    -1.078084697179    -0.781455057900    12.000000000000
         C           -1.277592366926     0.326110302821     1.158249942100    12.000000000000
         C            0.758262633074    -0.172526697179    -0.038953057900    12.000000000000
         C            1.567125633074     0.961661302821    -0.235208057900    12.000000000000
         C            1.319026633074    -1.421798697179     0.250712942100    12.000000000000
         C            2.953632633074     0.796911302821    -0.133521057900    12.000000000000
         C            0.968835633074     2.307186302821    -0.548449057900    12.000000000000
         C            2.705010633074    -1.561881697179     0.330013942100    12.000000000000
         C            3.522853633074    -0.447085697179     0.144041942100    12.000000000000
         H           -2.751854366926     0.289098302821    -1.762540057900     1.007825032230
         H           -3.407384366926    -1.367997697179    -1.580558057900     1.007825032230
         H           -3.215024366926     1.070243302821     1.856045942100     1.007825032230
         H           -2.649800366926     1.760863302821     0.303287942100     1.007825032230
         H           -1.463533366926    -1.997976697179    -0.169794057900     1.007825032230
         H           -0.876972366926    -1.342508697179    -1.710062057900     1.007825032230
         H           -0.687372366926     1.103228302821     1.651211942100     1.007825032230
         H           -1.308736366926    -0.543902697179     1.842876942100     1.007825032230
         H           -4.415738366926     0.184505302821    -0.039441057900     1.007825032230
         H           -3.594665366926    -0.999873697179     0.758334942100     1.007825032230
         H            0.743492233074    -2.211753497179     0.394838542100     1.007825032230
         H            3.599076633074     1.659065302821    -0.288658057900     1.007825032230
         H            0.171939633074     2.217586302821    -1.290885057900     1.007825032230
         H            0.541080633074     2.782582302821     0.342428942100     1.007825032230
         H            1.735059633074     2.981704302821    -0.937885057900     1.007825032230
         H            3.140398633074    -2.533698697179     0.546779942100     1.007825032230
         H            4.603211633074    -0.546620697179     0.205429942100     1.007825032230

  Basis Set: AUG-CC-PVTZ
    Blend: AUG-CC-PVTZ
  Basis Set: (AUG-CC-PVTZ AUX)
    Blend: AUG-CC-PVTZ-JKFIT
	 Reference Energy          =    -535.3032229030941380 [Eh]
	 Singles Energy            =      -0.0000000000000000 [Eh]
	 Same-Spin Energy          =      -0.5850436658880440 [Eh]
	 Opposite-Spin Energy      =      -1.9165609366274161 [Eh]
	 Correlation Energy        =      -2.5016046025154601 [Eh]
	 Total Energy              =    -537.8048275056096372 [Eh]

	 ================> DF-SCS-MP2 Energies <==================
	-----------------------------------------------------------
	 SCS Same-Spin Scale       =       0.3333333333333333 [-]
	 SCS Opposite-Spin Scale   =       1.2000000000000000 [-]
	 SCS Same-Spin Energy      =      -0.1950145552960147 [Eh]
	 SCS Opposite-Spin Energy  =      -2.2998731239528993 [Eh]
	 SCS Correlation Energy    =      -2.4948876792489139 [Eh]
	 SCS Total Energy          =    -537.7981105823430426 [Eh]
	-----------------------------------------------------------

  Dipole Moment: [D]
     X:   -12.1372      Y:    -0.7046      Z:     0.7344     Total:    12.1798

*** Psi4 exiting successfully. Buy a developer a beer!
