                               Psi4 1.4a3.dev225

  ==> Input File <==

--------------------------------------------------------------------------
#psi4
#
memory 32 gb

molecule  {
1 1
  N       -3.4197460    -0.1817000     0.1602720
  N       -0.6214370    -0.0078370    -0.1287630
  C       -2.7377630    -0.6049400    -1.1216890
  C       -2.6265040     0.8533270     0.9259500
  C       -1.3397990    -1.0900720    -0.7822260
  C       -1.2267490     0.3141230     1.1574790
  C        0.8091060    -0.1845140    -0.0397240
  C        1.6179690     0.9496740    -0.2359790
  C        1.3698700    -1.4337860     0.2499420
  C        3.0044760     0.7849240    -0.1342920
  C        0.9998088     2.3398862    -0.5596233
  C        2.7558540    -1.5738690     0.3292430
  C        3.5736970    -0.4590730     0.1432710
  H       -2.7010110     0.2771110    -1.7633110
  H       -3.3565410    -1.3799850    -1.5813290
  H       -3.1641810     1.0582560     1.8552750
  H       -2.5989570     1.7488760     0.3025170
  H       -1.4126900    -2.0099640    -0.1705650
  H       -0.8261290    -1.3544960    -1.7108330
  H       -0.6365290     1.0912410     1.6504410
  H       -1.2578930    -0.5558900     1.8421060
  H       -4.3648950     0.1725180    -0.0402120
  H       -3.5438220    -1.0118610     0.7575640
  H        0.7360800    -2.3037000     0.4086560
  H        3.6499200     1.6470780    -0.2894290
  H        0.2227830     2.2055990    -1.2916560
  H        0.5919240     2.7705950     0.3416580
  H        1.7859030     2.9697170    -0.9386560
  H        3.1912420    -2.5456860     0.5460090
  H        4.6540550    -0.5586080     0.2046590
units angstrom
no_reorient  #important for SAPT in psi4, default
symmetry c1  #important for SAPT in psi4, default
}

set PROPERTIES_ORIGIN ["COM"]
properties('MP2/aug-cc-pvtz', properties = ['dipole'])
--------------------------------------------------------------------------

    Molecular point group: c1
  Charge       = 1
  Multiplicity = 1
  Basis Set: AUG-CC-PVTZ
    Blend: AUG-CC-PVTZ
  Basis Set: (AUG-CC-PVTZ AUX)
    Blend: AUG-CC-PVTZ-JKFIT

    Orbital Energies [Eh]
    ---------------------

    Doubly Occupied:

       1A    -15.866679     2A    -15.703008     3A    -11.456851
       4A    -11.456837     5A    -11.417511     6A    -11.417318
       7A    -11.375025     8A    -11.346191     9A    -11.339973
      10A    -11.331584    11A    -11.329755    12A    -11.328466
      13A    -11.322663    14A     -1.497580    15A     -1.390065
      16A     -1.248342    17A     -1.221900    18A     -1.154653
      19A     -1.138567    20A     -1.087669    21A     -1.053503
      22A     -1.033738    23A     -0.996176    24A     -0.935193
      25A     -0.923953    26A     -0.903790    27A     -0.867362
      28A     -0.823789    29A     -0.809739    30A     -0.793512
      31A     -0.788416    32A     -0.753007    33A     -0.744172
      34A     -0.734543    35A     -0.714316    36A     -0.703800
      37A     -0.687641    38A     -0.680244    39A     -0.666258
      40A     -0.659263    41A     -0.655186    42A     -0.647371
      43A     -0.594942    44A     -0.593274    45A     -0.587172
      46A     -0.521419    47A     -0.433498    48A     -0.424128

  @DF-RHF Final Energy:  -535.30736398018200

   => Energetics <=

    Nuclear Repulsion Energy =            819.3992089374428360
    One-Electron Energy =               -2337.0930575227584995
    Two-Electron Energy =                 982.3864846051336599
    Total Energy =                       -535.3073639801820036
  Basis Set: (AUG-CC-PVTZ AUX)
    Blend: AUG-CC-PVTZ-RI
    Molecular point group: c1

    Geometry (in Angstrom), charge = 1, multiplicity = 1:

       Center              X                  Y                   Z               Mass
    ------------   -----------------  -----------------  -----------------  -----------------
         N           -3.468911850621    -0.172285033425     0.161664696413    14.003074004430
         N           -0.670602850621     0.001577966575    -0.127370303587    14.003074004430
         C           -2.786928850621    -0.595525033425    -1.120296303587    12.000000000000
         C           -2.675669850621     0.862741966575     0.927342696413    12.000000000000
         C           -1.388964850621    -1.080657033425    -0.780833303587    12.000000000000
         C           -1.275914850621     0.323537966575     1.158871696413    12.000000000000
         C            0.759940149379    -0.175099033425    -0.038331303587    12.000000000000
         C            1.568803149379     0.959088966575    -0.234586303587    12.000000000000
         C            1.320704149379    -1.424371033425     0.251334696413    12.000000000000
         C            2.955310149379     0.794338966575    -0.132899303587    12.000000000000
         C            0.950642949379     2.349301166575    -0.558230603587    12.000000000000
         C            2.706688149379    -1.564454033425     0.330635696413    12.000000000000
         C            3.524531149379    -0.449658033425     0.144663696413    12.000000000000
         H           -2.750176850621     0.286525966575    -1.761918303587     1.007825032230
         H           -3.405706850621    -1.370570033425    -1.579936303587     1.007825032230
         H           -3.213346850621     1.067670966575     1.856667696413     1.007825032230
         H           -2.648122850621     1.758290966575     0.303909696413     1.007825032230
         H           -1.461855850621    -2.000549033425    -0.169172303587     1.007825032230
         H           -0.875294850621    -1.345081033425    -1.709440303587     1.007825032230
         H           -0.685694850621     1.100655966575     1.651833696413     1.007825032230
         H           -1.307058850621    -0.546475033425     1.843498696413     1.007825032230
         H           -4.414060850621     0.181932966575    -0.038819303587     1.007825032230
         H           -3.592987850621    -1.002446033425     0.758956696413     1.007825032230
         H            0.686914149379    -2.294285033425     0.410048696413     1.007825032230
         H            3.600754149379     1.656492966575    -0.288036303587     1.007825032230
         H            0.173617149379     2.215013966575    -1.290263303587     1.007825032230
         H            0.542758149379     2.780009966575     0.343050696413     1.007825032230
         H            1.736737149379     2.979131966575    -0.937263303587     1.007825032230
         H            3.142076149379    -2.536271033425     0.547401696413     1.007825032230
         H            4.604889149379    -0.549193033425     0.206051696413     1.007825032230

  Basis Set: AUG-CC-PVTZ
    Blend: AUG-CC-PVTZ
  Basis Set: (AUG-CC-PVTZ AUX)
    Blend: AUG-CC-PVTZ-JKFIT
	 Reference Energy          =    -535.3073639801820036 [Eh]
	 Singles Energy            =      -0.0000000000000000 [Eh]
	 Same-Spin Energy          =      -0.5849191188715923 [Eh]
	 Opposite-Spin Energy      =      -1.9169372253168293 [Eh]
	 Correlation Energy        =      -2.5018563441884218 [Eh]
	 Total Energy              =    -537.8092203243704716 [Eh]

	 ================> DF-SCS-MP2 Energies <==================
	-----------------------------------------------------------
	 SCS Same-Spin Scale       =       0.3333333333333333 [-]
	 SCS Opposite-Spin Scale   =       1.2000000000000000 [-]
	 SCS Same-Spin Energy      =      -0.1949730396238641 [Eh]
	 SCS Opposite-Spin Energy  =      -2.3003246703801952 [Eh]
	 SCS Correlation Energy    =      -2.4952977100040594 [Eh]
	 SCS Total Energy          =    -537.8026616901860280 [Eh]
	-----------------------------------------------------------

  Dipole Moment: [D]
     X:   -12.0982      Y:    -0.7033      Z:     0.7390     Total:    12.1412

*** Psi4 exiting successfully. Buy a developer a beer!
