                               Psi4 1.4a3.dev225

  ==> Input File <==

--------------------------------------------------------------------------
#psi4
#
memory 32 gb

molecule  {
1 1
  N       -3.4197460    -0.1817000     0.1602720
  N       -0.6214370    -0.0078370    -0.1287630
  C       -2.7377630    -0.6049400    -1.1216890
  C       -2.6265040     0.8533270     0.9259500
  C       -1.3397990    -1.0900720    -0.7822260
  C       -1.2267490     0.3141230     1.1574790
  C        0.8091060    -0.1845140    -0.0397240
  C        1.6179690     0.9496740    -0.2359790
  C        1.3698700    -1.4337860     0.2499420
  C        3.0044760     0.7849240    -0.1342920
  C        1.0196790     2.2951990    -0.5492200
  C        2.8551863    -1.5839086     0.3349264
  C        3.5736970    -0.4590730     0.1432710
  H       -2.7010110     0.2771110    -1.7633110
  H       -3.3565410    -1.3799850    -1.5813290
  H       -3.1641810     1.0582560     1.8552750
  H       -2.5989570     1.7488760     0.3025170
  H       -1.4126900    -2.0099640    -0.1705650
  H       -0.8261290    -1.3544960    -1.7108330
  H       -0.6365290     1.0912410     1.6504410
  H       -1.2578930    -0.5558900     1.8421060
  H       -4.3648950     0.1725180    -0.0402120
  H       -3.5438220    -1.0118610     0.7575640
  H        0.7360800    -2.3037000     0.4086560
  H        3.6499200     1.6470780    -0.2894290
  H        0.2227830     2.2055990    -1.2916560
  H        0.5919240     2.7705950     0.3416580
  H        1.7859030     2.9697170    -0.9386560
  H        3.1912420    -2.5456860     0.5460090
  H        4.6540550    -0.5586080     0.2046590
units angstrom
no_reorient  #important for SAPT in psi4, default
symmetry c1  #important for SAPT in psi4, default
}

set PROPERTIES_ORIGIN ["COM"]
properties('MP2/aug-cc-pvtz', properties = ['dipole'])
--------------------------------------------------------------------------

    Molecular point group: c1
  Charge       = 1
  Multiplicity = 1
  Basis Set: AUG-CC-PVTZ
    Blend: AUG-CC-PVTZ
  Basis Set: (AUG-CC-PVTZ AUX)
    Blend: AUG-CC-PVTZ-JKFIT

    Orbital Energies [Eh]
    ---------------------

    Doubly Occupied:

       1A    -15.866683     2A    -15.703379     3A    -11.456886
       4A    -11.456782     5A    -11.417526     6A    -11.417499
       7A    -11.376435     8A    -11.348979     9A    -11.344956
      10A    -11.332903    11A    -11.330202    12A    -11.323941
      13A    -11.323788    14A     -1.497602    15A     -1.390404
      16A     -1.246624    17A     -1.221922    18A     -1.158215
      19A     -1.138123    20A     -1.085585    21A     -1.053528
      22A     -1.033157    23A     -0.997299    24A     -0.936490
      25A     -0.924197    26A     -0.903963    27A     -0.866769
      28A     -0.823783    29A     -0.812277    30A     -0.793903
      31A     -0.788604    32A     -0.752547    33A     -0.743315
      34A     -0.734451    35A     -0.720139    36A     -0.709586
      37A     -0.687694    38A     -0.677151    39A     -0.665412
      40A     -0.660568    41A     -0.654930    42A     -0.638192
      43A     -0.607960    44A     -0.585678    45A     -0.580482
      46A     -0.522423    47A     -0.436330    48A     -0.419464

  @DF-RHF Final Energy:  -535.29739532147971

   => Energetics <=

    Nuclear Repulsion Energy =            818.9176609182499078
    One-Electron Energy =               -2336.0926588032248219
    Two-Electron Energy =                 981.8776025634950884
    Total Energy =                       -535.2973953214797120
  Basis Set: (AUG-CC-PVTZ AUX)
    Blend: AUG-CC-PVTZ-RI
    Molecular point group: c1

    Geometry (in Angstrom), charge = 1, multiplicity = 1:

       Center              X                  Y                   Z               Mass
    ------------   -----------------  -----------------  -----------------  -----------------
         N           -3.476987026604    -0.168577656977     0.160574929559    14.003074004430
         N           -0.678678026604     0.005285343023    -0.128460070441    14.003074004430
         C           -2.795004026604    -0.591817656977    -1.121386070441    12.000000000000
         C           -2.683745026604     0.866449343023     0.926252929559    12.000000000000
         C           -1.397040026604    -1.076949656977    -0.781923070441    12.000000000000
         C           -1.283990026604     0.327245343023     1.157781929559    12.000000000000
         C            0.751864973396    -0.171391656977    -0.039421070441    12.000000000000
         C            1.560727973396     0.962796343023    -0.235676070441    12.000000000000
         C            1.312628973396    -1.420663656977     0.250244929559    12.000000000000
         C            2.947234973396     0.798046343023    -0.133989070441    12.000000000000
         C            0.962437973396     2.308321343023    -0.548917070441    12.000000000000
         C            2.797945273396    -1.570786256977     0.335229329559    12.000000000000
         C            3.516455973396    -0.445950656977     0.143573929559    12.000000000000
         H           -2.758252026604     0.290233343023    -1.763008070441     1.007825032230
         H           -3.413782026604    -1.366862656977    -1.581026070441     1.007825032230
         H           -3.221422026604     1.071378343023     1.855577929559     1.007825032230
         H           -2.656198026604     1.761998343023     0.302819929559     1.007825032230
         H           -1.469931026604    -1.996841656977    -0.170262070441     1.007825032230
         H           -0.883370026604    -1.341373656977    -1.710530070441     1.007825032230
         H           -0.693770026604     1.104363343023     1.650743929559     1.007825032230
         H           -1.315134026604    -0.542767656977     1.842408929559     1.007825032230
         H           -4.422136026604     0.185640343023    -0.039909070441     1.007825032230
         H           -3.601063026604    -0.998738656977     0.757866929559     1.007825032230
         H            0.678838973396    -2.290577656977     0.408958929559     1.007825032230
         H            3.592678973396     1.660200343023    -0.289126070441     1.007825032230
         H            0.165541973396     2.218721343023    -1.291353070441     1.007825032230
         H            0.534682973396     2.783717343023     0.341960929559     1.007825032230
         H            1.728661973396     2.982839343023    -0.938353070441     1.007825032230
         H            3.134000973396    -2.532563656977     0.546311929559     1.007825032230
         H            4.596813973396    -0.545485656977     0.204961929559     1.007825032230

  Basis Set: AUG-CC-PVTZ
    Blend: AUG-CC-PVTZ
  Basis Set: (AUG-CC-PVTZ AUX)
    Blend: AUG-CC-PVTZ-JKFIT
	 Reference Energy          =    -535.2973953214797120 [Eh]
	 Singles Energy            =      -0.0000000000000000 [Eh]
	 Same-Spin Energy          =      -0.5850298817574232 [Eh]
	 Opposite-Spin Energy      =      -1.9178496139943684 [Eh]
	 Correlation Energy        =      -2.5028794957517917 [Eh]
	 Total Energy              =    -537.8002748172315250 [Eh]

	 ================> DF-SCS-MP2 Energies <==================
	-----------------------------------------------------------
	 SCS Same-Spin Scale       =       0.3333333333333333 [-]
	 SCS Opposite-Spin Scale   =       1.2000000000000000 [-]
	 SCS Same-Spin Energy      =      -0.1950099605858077 [Eh]
	 SCS Opposite-Spin Energy  =      -2.3014195367932420 [Eh]
	 SCS Correlation Energy    =      -2.4964294973790495 [Eh]
	 SCS Total Energy          =    -537.7938248188587522 [Eh]
	-----------------------------------------------------------

  Dipole Moment: [D]
     X:   -12.1501      Y:    -0.6976      Z:     0.7348     Total:    12.1923

*** Psi4 exiting successfully. Buy a developer a beer!
