                               Psi4 1.4a3.dev225

  ==> Input File <==

--------------------------------------------------------------------------
#psi4
#
memory 32 gb

molecule  {
1 1
  N       -3.4197460    -0.1817000     0.1602720
  N       -0.6214370    -0.0078370    -0.1287630
  C       -2.7377630    -0.6049400    -1.1216890
  C       -2.6265040     0.8533270     0.9259500
  C       -1.3397990    -1.0900720    -0.7822260
  C       -1.2267490     0.3141230     1.1574790
  C        0.8091060    -0.1845140    -0.0397240
  C        1.6294681     0.9657981    -0.2387690
  C        1.3698700    -1.4337860     0.2499420
  C        3.0044760     0.7849240    -0.1342920
  C        1.0196790     2.2951990    -0.5492200
  C        2.7558540    -1.5738690     0.3292430
  C        3.5736970    -0.4590730     0.1432710
  H       -2.7010110     0.2771110    -1.7633110
  H       -3.3565410    -1.3799850    -1.5813290
  H       -3.1641810     1.0582560     1.8552750
  H       -2.5989570     1.7488760     0.3025170
  H       -1.4126900    -2.0099640    -0.1705650
  H       -0.8261290    -1.3544960    -1.7108330
  H       -0.6365290     1.0912410     1.6504410
  H       -1.2578930    -0.5558900     1.8421060
  H       -4.3648950     0.1725180    -0.0402120
  H       -3.5438220    -1.0118610     0.7575640
  H        0.7360800    -2.3037000     0.4086560
  H        3.6499200     1.6470780    -0.2894290
  H        0.2227830     2.2055990    -1.2916560
  H        0.5919240     2.7705950     0.3416580
  H        1.7859030     2.9697170    -0.9386560
  H        3.1912420    -2.5456860     0.5460090
  H        4.6540550    -0.5586080     0.2046590
units angstrom
no_reorient  #important for SAPT in psi4, default
symmetry c1  #important for SAPT in psi4, default
}

set PROPERTIES_ORIGIN ["COM"]
properties('MP2/aug-cc-pvtz', properties = ['dipole'])
--------------------------------------------------------------------------

    Molecular point group: c1
  Charge       = 1
  Multiplicity = 1
  Basis Set: AUG-CC-PVTZ
    Blend: AUG-CC-PVTZ
  Basis Set: (AUG-CC-PVTZ AUX)
    Blend: AUG-CC-PVTZ-JKFIT

    Orbital Energies [Eh]
    ---------------------

    Doubly Occupied:

       1A    -15.866684     2A    -15.703302     3A    -11.456850
       4A    -11.456835     5A    -11.417587     6A    -11.417365
       7A    -11.377011     8A    -11.345087     9A    -11.340297
      10A    -11.331661    11A    -11.329432    12A    -11.328047
      13A    -11.323258    14A     -1.497590    15A     -1.390016
      16A     -1.249151    17A     -1.221917    18A     -1.155161
      19A     -1.144593    20A     -1.087776    21A     -1.053555
      22A     -1.032340    23A     -0.996250    24A     -0.934914
      25A     -0.923936    26A     -0.902720    27A     -0.867502
      28A     -0.823784    29A     -0.810284    30A     -0.793389
      31A     -0.788522    32A     -0.755099    33A     -0.744874
      34A     -0.734575    35A     -0.714508    36A     -0.704052
      37A     -0.687855    38A     -0.675938    39A     -0.671335
      40A     -0.660044    41A     -0.655479    42A     -0.640150
      43A     -0.602574    44A     -0.590022    45A     -0.586929
      46A     -0.521489    47A     -0.434669    48A     -0.421457

  @DF-RHF Final Energy:  -535.30802798970228

   => Energetics <=

    Nuclear Repulsion Energy =            820.0443072739785748
    One-Electron Energy =               -2338.3689419556576468
    Two-Electron Energy =                 983.0166066919767900
    Total Energy =                       -535.3080279897022820
  Basis Set: (AUG-CC-PVTZ AUX)
    Blend: AUG-CC-PVTZ-RI
    Molecular point group: c1

    Geometry (in Angstrom), charge = 1, multiplicity = 1:

       Center              X                  Y                   Z               Mass
    ------------   -----------------  -----------------  -----------------  -----------------
         N           -3.471036911907    -0.170350073511     0.161148946011    14.003074004430
         N           -0.672727911907     0.003512926489    -0.127886053989    14.003074004430
         C           -2.789053911907    -0.593590073511    -1.120812053989    12.000000000000
         C           -2.677794911907     0.864676926489     0.926826946011    12.000000000000
         C           -1.391089911907    -1.078722073511    -0.781349053989    12.000000000000
         C           -1.278039911907     0.325472926489     1.158355946011    12.000000000000
         C            0.757815088093    -0.173164073511    -0.038847053989    12.000000000000
         C            1.578177188093     0.977148026489    -0.237892053989    12.000000000000
         C            1.318579088093    -1.422436073511     0.250818946011    12.000000000000
         C            2.953185088093     0.796273926489    -0.133415053989    12.000000000000
         C            0.968388088093     2.306548926489    -0.548343053989    12.000000000000
         C            2.704563088093    -1.562519073511     0.330119946011    12.000000000000
         C            3.522406088093    -0.447723073511     0.144147946011    12.000000000000
         H           -2.752301911907     0.288460926489    -1.762434053989     1.007825032230
         H           -3.407831911907    -1.368635073511    -1.580452053989     1.007825032230
         H           -3.215471911907     1.069605926489     1.856151946011     1.007825032230
         H           -2.650247911907     1.760225926489     0.303393946011     1.007825032230
         H           -1.463980911907    -1.998614073511    -0.169688053989     1.007825032230
         H           -0.877419911907    -1.343146073511    -1.709956053989     1.007825032230
         H           -0.687819911907     1.102590926489     1.651317946011     1.007825032230
         H           -1.309183911907    -0.544540073511     1.842982946011     1.007825032230
         H           -4.416185911907     0.183867926489    -0.039335053989     1.007825032230
         H           -3.595112911907    -1.000511073511     0.758440946011     1.007825032230
         H            0.684789088093    -2.292350073511     0.409532946011     1.007825032230
         H            3.598629088093     1.658427926489    -0.288552053989     1.007825032230
         H            0.171492088093     2.216948926489    -1.290779053989     1.007825032230
         H            0.540633088093     2.781944926489     0.342534946011     1.007825032230
         H            1.734612088093     2.981066926489    -0.937779053989     1.007825032230
         H            3.139951088093    -2.534336073511     0.546885946011     1.007825032230
         H            4.602764088093    -0.547258073511     0.205535946011     1.007825032230

  Basis Set: AUG-CC-PVTZ
    Blend: AUG-CC-PVTZ
  Basis Set: (AUG-CC-PVTZ AUX)
    Blend: AUG-CC-PVTZ-JKFIT
	 Reference Energy          =    -535.3080279897022820 [Eh]
	 Singles Energy            =      -0.0000000000000000 [Eh]
	 Same-Spin Energy          =      -0.5854166890791956 [Eh]
	 Opposite-Spin Energy      =      -1.9173391930632762 [Eh]
	 Correlation Energy        =      -2.5027558821424716 [Eh]
	 Total Energy              =    -537.8107838718447056 [Eh]

	 ================> DF-SCS-MP2 Energies <==================
	-----------------------------------------------------------
	 SCS Same-Spin Scale       =       0.3333333333333333 [-]
	 SCS Opposite-Spin Scale   =       1.2000000000000000 [-]
	 SCS Same-Spin Energy      =      -0.1951388963597319 [Eh]
	 SCS Opposite-Spin Energy  =      -2.3008070316759315 [Eh]
	 SCS Correlation Energy    =      -2.4959459280356633 [Eh]
	 SCS Total Energy          =    -537.8039739177379488 [Eh]
	-----------------------------------------------------------

  Dipole Moment: [D]
     X:   -12.1259      Y:    -0.6837      Z:     0.7318     Total:    12.1672

*** Psi4 exiting successfully. Buy a developer a beer!
