                               Psi4 1.4a3.dev225

  ==> Input File <==

--------------------------------------------------------------------------
#psi4
#
memory 32 gb

molecule  {
1 1
  N       -3.4197460    -0.1817000     0.1602720
  N       -0.6214370    -0.0078370    -0.1287630
  C       -2.7377630    -0.6049400    -1.1216890
  C       -2.6265040     0.8533270     0.9259500
  C       -1.3397990    -1.0900720    -0.7822260
  C       -1.2267490     0.3141230     1.1574790
  C        0.8091060    -0.1845140    -0.0397240
  C        1.6179690     0.9496740    -0.2359790
  C        1.3698700    -1.4337860     0.2499420
  C        3.0044760     0.7849240    -0.1342920
  C        1.0196790     2.2951990    -0.5492200
  C        2.7558540    -1.5738690     0.3292430
  C        3.5736970    -0.4590730     0.1432710
  H       -2.7010110     0.2771110    -1.7633110
  H       -3.3565410    -1.3799850    -1.5813290
  H       -3.1641810     1.0582560     1.8552750
  H       -2.5989570     1.7488760     0.3025170
  H       -1.4489309    -1.9680388    -0.1167126
  H       -0.8261290    -1.3544960    -1.7108330
  H       -0.6365290     1.0912410     1.6504410
  H       -1.2578930    -0.5558900     1.8421060
  H       -4.3648950     0.1725180    -0.0402120
  H       -3.5438220    -1.0118610     0.7575640
  H        0.7360800    -2.3037000     0.4086560
  H        3.6499200     1.6470780    -0.2894290
  H        0.2227830     2.2055990    -1.2916560
  H        0.5919240     2.7705950     0.3416580
  H        1.7859030     2.9697170    -0.9386560
  H        3.1912420    -2.5456860     0.5460090
  H        4.6540550    -0.5586080     0.2046590
units angstrom
no_reorient  #important for SAPT in psi4, default
symmetry c1  #important for SAPT in psi4, default
}

set PROPERTIES_ORIGIN ["COM"]
properties('MP2/aug-cc-pvtz', properties = ['dipole'])
--------------------------------------------------------------------------

    Molecular point group: c1
  Charge       = 1
  Multiplicity = 1
  Basis Set: AUG-CC-PVTZ
    Blend: AUG-CC-PVTZ
  Basis Set: (AUG-CC-PVTZ AUX)
    Blend: AUG-CC-PVTZ-JKFIT

    Orbital Energies [Eh]
    ---------------------

    Doubly Occupied:

       1A    -15.866831     2A    -15.702439     3A    -11.456898
       4A    -11.456337     5A    -11.418505     6A    -11.417436
       7A    -11.375058     8A    -11.344310     9A    -11.340068
      10A    -11.331723    11A    -11.329823    12A    -11.328559
      13A    -11.323540    14A     -1.497796    15A     -1.390456
      16A     -1.249948    17A     -1.222168    18A     -1.155729
      19A     -1.142630    20A     -1.088069    21A     -1.053202
      22A     -1.032003    23A     -0.996476    24A     -0.935369
      25A     -0.923620    26A     -0.903314    27A     -0.867600
      28A     -0.824090    29A     -0.810018    30A     -0.794831
      31A     -0.788798    32A     -0.754992    33A     -0.744965
      34A     -0.734902    35A     -0.713908    36A     -0.705178
      37A     -0.686290    38A     -0.675249    39A     -0.669392
      40A     -0.662360    41A     -0.655655    42A     -0.640577
      43A     -0.599881    44A     -0.591622    45A     -0.588012
      46A     -0.521045    47A     -0.433471    48A     -0.423429

  @DF-RHF Final Energy:  -535.30828377487933

   => Energetics <=

    Nuclear Repulsion Energy =            820.4054730125070591
    One-Electron Energy =               -2339.0903677339792921
    Two-Electron Energy =                 983.3766109465927912
    Total Energy =                       -535.3082837748793281
  Basis Set: (AUG-CC-PVTZ AUX)
    Blend: AUG-CC-PVTZ-RI
    Molecular point group: c1

    Geometry (in Angstrom), charge = 1, multiplicity = 1:

       Center              X                  Y                   Z               Mass
    ------------   -----------------  -----------------  -----------------  -----------------
         N           -3.470051733515    -0.169496304517     0.160653551373    14.003074004430
         N           -0.671742733515     0.004366695483    -0.128381448627    14.003074004430
         C           -2.788068733515    -0.592736304517    -1.121307448627    12.000000000000
         C           -2.676809733515     0.865530695483     0.926331551373    12.000000000000
         C           -1.390104733515    -1.077868304517    -0.781844448627    12.000000000000
         C           -1.277054733515     0.326326695483     1.157860551373    12.000000000000
         C            0.758800266485    -0.172310304517    -0.039342448627    12.000000000000
         C            1.567663266485     0.961877695483    -0.235597448627    12.000000000000
         C            1.319564266485    -1.421582304517     0.250323551373    12.000000000000
         C            2.954170266485     0.797127695483    -0.133910448627    12.000000000000
         C            0.969373266485     2.307402695483    -0.548838448627    12.000000000000
         C            2.705548266485    -1.561665304517     0.329624551373    12.000000000000
         C            3.523391266485    -0.446869304517     0.143652551373    12.000000000000
         H           -2.751316733515     0.289314695483    -1.762929448627     1.007825032230
         H           -3.406846733515    -1.367781304517    -1.580947448627     1.007825032230
         H           -3.214486733515     1.070459695483     1.855656551373     1.007825032230
         H           -2.649262733515     1.761079695483     0.302898551373     1.007825032230
         H           -1.499236633515    -1.955835104517    -0.116331048627     1.007825032230
         H           -0.876434733515    -1.342292304517    -1.710451448627     1.007825032230
         H           -0.686834733515     1.103444695483     1.650822551373     1.007825032230
         H           -1.308198733515    -0.543686304517     1.842487551373     1.007825032230
         H           -4.415200733515     0.184721695483    -0.039830448627     1.007825032230
         H           -3.594127733515    -0.999657304517     0.757945551373     1.007825032230
         H            0.685774266485    -2.291496304517     0.409037551373     1.007825032230
         H            3.599614266485     1.659281695483    -0.289047448627     1.007825032230
         H            0.172477266485     2.217802695483    -1.291274448627     1.007825032230
         H            0.541618266485     2.782798695483     0.342039551373     1.007825032230
         H            1.735597266485     2.981920695483    -0.938274448627     1.007825032230
         H            3.140936266485    -2.533482304517     0.546390551373     1.007825032230
         H            4.603749266485    -0.546404304517     0.205040551373     1.007825032230

  Basis Set: AUG-CC-PVTZ
    Blend: AUG-CC-PVTZ
  Basis Set: (AUG-CC-PVTZ AUX)
    Blend: AUG-CC-PVTZ-JKFIT
	 Reference Energy          =    -535.3082837748793281 [Eh]
	 Singles Energy            =      -0.0000000000000000 [Eh]
	 Same-Spin Energy          =      -0.5853678403368761 [Eh]
	 Opposite-Spin Energy      =      -1.9172666726805416 [Eh]
	 Correlation Energy        =      -2.5026345130174175 [Eh]
	 Total Energy              =    -537.8109182878966976 [Eh]

	 ================> DF-SCS-MP2 Energies <==================
	-----------------------------------------------------------
	 SCS Same-Spin Scale       =       0.3333333333333333 [-]
	 SCS Opposite-Spin Scale   =       1.2000000000000000 [-]
	 SCS Same-Spin Energy      =      -0.1951226134456253 [Eh]
	 SCS Opposite-Spin Energy  =      -2.3007200072166500 [Eh]
	 SCS Correlation Energy    =      -2.4958426206622755 [Eh]
	 SCS Total Energy          =    -537.8041263955416298 [Eh]
	-----------------------------------------------------------

  Dipole Moment: [D]
     X:   -12.1147      Y:    -0.6653      Z:     0.7287     Total:    12.1549

*** Psi4 exiting successfully. Buy a developer a beer!
