                               Psi4 1.4a3.dev225

  ==> Input File <==

--------------------------------------------------------------------------
#psi4
#
memory 32 gb

molecule  {
1 1
  N       -3.4124024    -0.2154862     0.2001549
  N       -0.6214370    -0.0078370    -0.1287630
  C       -2.7377630    -0.6049400    -1.1216890
  C       -2.6265040     0.8533270     0.9259500
  C       -1.3397990    -1.0900720    -0.7822260
  C       -1.2267490     0.3141230     1.1574790
  C        0.8091060    -0.1845140    -0.0397240
  C        1.6179690     0.9496740    -0.2359790
  C        1.3698700    -1.4337860     0.2499420
  C        3.0044760     0.7849240    -0.1342920
  C        1.0196790     2.2951990    -0.5492200
  C        2.7558540    -1.5738690     0.3292430
  C        3.5736970    -0.4590730     0.1432710
  H       -2.7010110     0.2771110    -1.7633110
  H       -3.3565410    -1.3799850    -1.5813290
  H       -3.1641810     1.0582560     1.8552750
  H       -2.5989570     1.7488760     0.3025170
  H       -1.4126900    -2.0099640    -0.1705650
  H       -0.8261290    -1.3544960    -1.7108330
  H       -0.6365290     1.0912410     1.6504410
  H       -1.2578930    -0.5558900     1.8421060
  H       -4.3648950     0.1725180    -0.0402120
  H       -3.5438220    -1.0118610     0.7575640
  H        0.7360800    -2.3037000     0.4086560
  H        3.6499200     1.6470780    -0.2894290
  H        0.2227830     2.2055990    -1.2916560
  H        0.5919240     2.7705950     0.3416580
  H        1.7859030     2.9697170    -0.9386560
  H        3.1912420    -2.5456860     0.5460090
  H        4.6540550    -0.5586080     0.2046590
units angstrom
no_reorient  #important for SAPT in psi4, default
symmetry c1  #important for SAPT in psi4, default
}

set PROPERTIES_ORIGIN ["COM"]
properties('MP2/aug-cc-pvtz', properties = ['dipole'])
--------------------------------------------------------------------------

    Molecular point group: c1
  Charge       = 1
  Multiplicity = 1
  Basis Set: AUG-CC-PVTZ
    Blend: AUG-CC-PVTZ
  Basis Set: (AUG-CC-PVTZ AUX)
    Blend: AUG-CC-PVTZ-JKFIT

    Orbital Energies [Eh]
    ---------------------

    Doubly Occupied:

       1A    -15.864195     2A    -15.702860     3A    -11.459102
       4A    -11.456680     5A    -11.417173     6A    -11.416422
       7A    -11.375093     8A    -11.344314     9A    -11.340094
      10A    -11.331737    11A    -11.329819    12A    -11.328540
      13A    -11.323606    14A     -1.496847    15A     -1.390091
      16A     -1.249878    17A     -1.220735    18A     -1.156187
      19A     -1.142883    20A     -1.089247    21A     -1.050886
      22A     -1.032775    23A     -1.001594    24A     -0.933485
      25A     -0.918901    26A     -0.902967    27A     -0.870688
      28A     -0.826070    29A     -0.812000    30A     -0.792790
      31A     -0.784458    32A     -0.754330    33A     -0.745920
      34A     -0.735506    35A     -0.715729    36A     -0.706164
      37A     -0.686890    38A     -0.675181    39A     -0.669166
      40A     -0.659079    41A     -0.654221    42A     -0.640453
      43A     -0.599888    44A     -0.591523    45A     -0.588003
      46A     -0.521509    47A     -0.433467    48A     -0.423408

  @DF-RHF Final Energy:  -535.30557429373005

   => Energetics <=

    Nuclear Repulsion Energy =            820.2287546609102264
    One-Electron Energy =               -2338.7435501770728479
    Two-Electron Energy =                 983.2092212224325749
    Total Energy =                       -535.3055742937300465
  Basis Set: (AUG-CC-PVTZ AUX)
    Blend: AUG-CC-PVTZ-RI
    Molecular point group: c1

    Geometry (in Angstrom), charge = 1, multiplicity = 1:

       Center              X                  Y                   Z               Mass
    ------------   -----------------  -----------------  -----------------  -----------------
         N           -3.463494845215    -0.200373131539     0.197690048777    14.003074004430
         N           -0.672529445215     0.007276068461    -0.131227851223    14.003074004430
         C           -2.788855445215    -0.589826931539    -1.124153851223    12.000000000000
         C           -2.677596445215     0.868440068461     0.923485148777    12.000000000000
         C           -1.390891445215    -1.074958931539    -0.784690851223    12.000000000000
         C           -1.277841445215     0.329236068461     1.155014148777    12.000000000000
         C            0.758013554785    -0.169400931539    -0.042188851223    12.000000000000
         C            1.566876554785     0.964787068461    -0.238443851223    12.000000000000
         C            1.318777554785    -1.418672931539     0.247477148777    12.000000000000
         C            2.953383554785     0.800037068461    -0.136756851223    12.000000000000
         C            0.968586554785     2.310312068461    -0.551684851223    12.000000000000
         C            2.704761554785    -1.558755931539     0.326778148777    12.000000000000
         C            3.522604554785    -0.443959931539     0.140806148777    12.000000000000
         H           -2.752103445215     0.292224068461    -1.765775851223     1.007825032230
         H           -3.407633445215    -1.364871931539    -1.583793851223     1.007825032230
         H           -3.215273445215     1.073369068461     1.852810148777     1.007825032230
         H           -2.650049445215     1.763989068461     0.300052148777     1.007825032230
         H           -1.463782445215    -1.994850931539    -0.173029851223     1.007825032230
         H           -0.877221445215    -1.339382931539    -1.713297851223     1.007825032230
         H           -0.687621445215     1.106354068461     1.647976148777     1.007825032230
         H           -1.308985445215    -0.540776931539     1.839641148777     1.007825032230
         H           -4.415987445215     0.187631068461    -0.042676851223     1.007825032230
         H           -3.594914445215    -0.996747931539     0.755099148777     1.007825032230
         H            0.684987554785    -2.288586931539     0.406191148777     1.007825032230
         H            3.598827554785     1.662191068461    -0.291893851223     1.007825032230
         H            0.171690554785     2.220712068461    -1.294120851223     1.007825032230
         H            0.540831554785     2.785708068461     0.339193148777     1.007825032230
         H            1.734810554785     2.984830068461    -0.941120851223     1.007825032230
         H            3.140149554785    -2.530572931539     0.543544148777     1.007825032230
         H            4.602962554785    -0.543494931539     0.202194148777     1.007825032230

  Basis Set: AUG-CC-PVTZ
    Blend: AUG-CC-PVTZ
  Basis Set: (AUG-CC-PVTZ AUX)
    Blend: AUG-CC-PVTZ-JKFIT
	 Reference Energy          =    -535.3055742937300465 [Eh]
	 Singles Energy            =      -0.0000000000000000 [Eh]
	 Same-Spin Energy          =      -0.5851176269973544 [Eh]
	 Opposite-Spin Energy      =      -1.9170899527664529 [Eh]
	 Correlation Energy        =      -2.5022075797638070 [Eh]
	 Total Energy              =    -537.8077818734938091 [Eh]

	 ================> DF-SCS-MP2 Energies <==================
	-----------------------------------------------------------
	 SCS Same-Spin Scale       =       0.3333333333333333 [-]
	 SCS Opposite-Spin Scale   =       1.2000000000000000 [-]
	 SCS Same-Spin Energy      =      -0.1950392089991181 [Eh]
	 SCS Opposite-Spin Energy  =      -2.3005079433197433 [Eh]
	 SCS Correlation Energy    =      -2.4955471523188613 [Eh]
	 SCS Total Energy          =    -537.8011214460489100 [Eh]
	-----------------------------------------------------------

  Dipole Moment: [D]
     X:   -12.1186      Y:    -0.6624      Z:     0.6819     Total:    12.1558

*** Psi4 exiting successfully. Buy a developer a beer!
