                               Psi4 1.4a3.dev225

  ==> Input File <==

--------------------------------------------------------------------------
#psi4
#
memory 32 gb

molecule  {
1 1
  N       -3.4197460    -0.1817000     0.1602720
  N       -0.6214370    -0.0078370    -0.1287630
  C       -2.7377630    -0.6049400    -1.1216890
  C       -2.6265040     0.8533270     0.9259500
  C       -1.3397990    -1.0900720    -0.7822260
  C       -1.2267490     0.3141230     1.1574790
  C        0.8091060    -0.1845140    -0.0397240
  C        1.6179690     0.9496740    -0.2359790
  C        1.3698700    -1.4337860     0.2499420
  C        3.0044760     0.7849240    -0.1342920
  C        1.0196790     2.2951990    -0.5492200
  C        2.7558540    -1.5738690     0.3292430
  C        3.5736970    -0.4590730     0.1432710
  H       -2.7010110     0.2771110    -1.7633110
  H       -3.3565410    -1.3799850    -1.5813290
  H       -3.1641810     1.0582560     1.8552750
  H       -2.5989570     1.7488760     0.3025170
  H       -1.4126900    -2.0099640    -0.1705650
  H       -0.8026450    -1.3665850    -1.7532872
  H       -0.6365290     1.0912410     1.6504410
  H       -1.2578930    -0.5558900     1.8421060
  H       -4.3648950     0.1725180    -0.0402120
  H       -3.5438220    -1.0118610     0.7575640
  H        0.7360800    -2.3037000     0.4086560
  H        3.6499200     1.6470780    -0.2894290
  H        0.2227830     2.2055990    -1.2916560
  H        0.5919240     2.7705950     0.3416580
  H        1.7859030     2.9697170    -0.9386560
  H        3.1912420    -2.5456860     0.5460090
  H        4.6540550    -0.5586080     0.2046590
units angstrom
no_reorient  #important for SAPT in psi4, default
symmetry c1  #important for SAPT in psi4, default
}

set PROPERTIES_ORIGIN ["COM"]
properties('MP2/aug-cc-pvtz', properties = ['dipole'])
--------------------------------------------------------------------------

    Molecular point group: c1
  Charge       = 1
  Multiplicity = 1
  Basis Set: AUG-CC-PVTZ
    Blend: AUG-CC-PVTZ
  Basis Set: (AUG-CC-PVTZ AUX)
    Blend: AUG-CC-PVTZ-JKFIT

    Orbital Energies [Eh]
    ---------------------

    Doubly Occupied:

       1A    -15.866743     2A    -15.703392     3A    -11.456962
       4A    -11.456922     5A    -11.422776     6A    -11.417584
       7A    -11.375156     8A    -11.344385     9A    -11.340144
      10A    -11.331772    11A    -11.329857    12A    -11.328588
      13A    -11.323588    14A     -1.497682    15A     -1.390172
      16A     -1.249842    17A     -1.221038    18A     -1.155435
      19A     -1.142608    20A     -1.088111    21A     -1.051300
      22A     -1.031963    23A     -0.995759    24A     -0.935219
      25A     -0.922617    26A     -0.903310    27A     -0.867457
      28A     -0.823790    29A     -0.810320    30A     -0.791339
      31A     -0.787934    32A     -0.754312    33A     -0.744385
      34A     -0.733641    35A     -0.714518    36A     -0.704376
      37A     -0.687913    38A     -0.675156    39A     -0.669003
      40A     -0.656902    41A     -0.653780    42A     -0.640283
      43A     -0.599879    44A     -0.591669    45A     -0.588077
      46A     -0.521735    47A     -0.433514    48A     -0.423496

  @DF-RHF Final Energy:  -535.30653373360167

   => Energetics <=

    Nuclear Repulsion Energy =            820.0333398872516000
    One-Electron Energy =               -2338.3669404038068933
    Two-Electron Energy =                 983.0270667829535114
    Total Energy =                       -535.3065337336016682
  Basis Set: (AUG-CC-PVTZ AUX)
    Blend: AUG-CC-PVTZ-RI
    Molecular point group: c1

    Geometry (in Angstrom), charge = 1, multiplicity = 1:

       Center              X                  Y                   Z               Mass
    ------------   -----------------  -----------------  -----------------  -----------------
         N           -3.470391535536    -0.169188993256     0.161201483264    14.003074004430
         N           -0.672082535536     0.004674006744    -0.127833516736    14.003074004430
         C           -2.788408535536    -0.592428993256    -1.120759516736    12.000000000000
         C           -2.677149535536     0.865838006744     0.926879483264    12.000000000000
         C           -1.390444535536    -1.077560993256    -0.781296516736    12.000000000000
         C           -1.277394535536     0.326634006744     1.158408483264    12.000000000000
         C            0.758460464464    -0.172002993256    -0.038794516736    12.000000000000
         C            1.567323464464     0.962185006744    -0.235049516736    12.000000000000
         C            1.319224464464    -1.421274993256     0.250871483264    12.000000000000
         C            2.953830464464     0.797435006744    -0.133362516736    12.000000000000
         C            0.969033464464     2.307710006744    -0.548290516736    12.000000000000
         C            2.705208464464    -1.561357993256     0.330172483264    12.000000000000
         C            3.523051464464    -0.446561993256     0.144200483264    12.000000000000
         H           -2.751656535536     0.289622006744    -1.762381516736     1.007825032230
         H           -3.407186535536    -1.367473993256    -1.580399516736     1.007825032230
         H           -3.214826535536     1.070767006744     1.856204483264     1.007825032230
         H           -2.649602535536     1.761387006744     0.303446483264     1.007825032230
         H           -1.463335535536    -1.997452993256    -0.169635516736     1.007825032230
         H           -0.853290535536    -1.354073993256    -1.752357716736     1.007825032230
         H           -0.687174535536     1.103752006744     1.651370483264     1.007825032230
         H           -1.308538535536    -0.543378993256     1.843035483264     1.007825032230
         H           -4.415540535536     0.185029006744    -0.039282516736     1.007825032230
         H           -3.594467535536    -0.999349993256     0.758493483264     1.007825032230
         H            0.685434464464    -2.291188993256     0.409585483264     1.007825032230
         H            3.599274464464     1.659589006744    -0.288499516736     1.007825032230
         H            0.172137464464     2.218110006744    -1.290726516736     1.007825032230
         H            0.541278464464     2.783106006744     0.342587483264     1.007825032230
         H            1.735257464464     2.982228006744    -0.937726516736     1.007825032230
         H            3.140596464464    -2.533174993256     0.546938483264     1.007825032230
         H            4.603409464464    -0.546096993256     0.205588483264     1.007825032230

  Basis Set: AUG-CC-PVTZ
    Blend: AUG-CC-PVTZ
  Basis Set: (AUG-CC-PVTZ AUX)
    Blend: AUG-CC-PVTZ-JKFIT
	 Reference Energy          =    -535.3065337336016682 [Eh]
	 Singles Energy            =      -0.0000000000000000 [Eh]
	 Same-Spin Energy          =      -0.5854146208517199 [Eh]
	 Opposite-Spin Energy      =      -1.9176056211944155 [Eh]
	 Correlation Energy        =      -2.5030202420461354 [Eh]
	 Total Energy              =    -537.8095539756477592 [Eh]

	 ================> DF-SCS-MP2 Energies <==================
	-----------------------------------------------------------
	 SCS Same-Spin Scale       =       0.3333333333333333 [-]
	 SCS Opposite-Spin Scale   =       1.2000000000000000 [-]
	 SCS Same-Spin Energy      =      -0.1951382069505733 [Eh]
	 SCS Opposite-Spin Energy  =      -2.3011267454332986 [Eh]
	 SCS Correlation Energy    =      -2.4962649523838718 [Eh]
	 SCS Total Energy          =    -537.8027986859855218 [Eh]
	-----------------------------------------------------------

  Dipole Moment: [D]
     X:   -12.1016      Y:    -0.6816      Z:     0.7340     Total:    12.1430

*** Psi4 exiting successfully. Buy a developer a beer!
