                               Psi4 1.4a3.dev225

  ==> Input File <==

--------------------------------------------------------------------------
#psi4
#
memory 32 gb

molecule  {
1 1
  N       -3.4197460    -0.1817000     0.1602720
  N       -0.6214370    -0.0078370    -0.1287630
  C       -2.7377630    -0.6049400    -1.1216890
  C       -2.6265040     0.8533270     0.9259500
  C       -1.3397990    -1.0900720    -0.7822260
  C       -1.2267490     0.3141230     1.1574790
  C        0.8091060    -0.1845140    -0.0397240
  C        1.6179690     0.9496740    -0.2359790
  C        1.3698700    -1.4337860     0.2499420
  C        3.0044760     0.7849240    -0.1342920
  C        1.0196790     2.2951990    -0.5492200
  C        2.7362756    -1.5598243     0.3257398
  C        3.5736970    -0.4590730     0.1432710
  H       -2.7010110     0.2771110    -1.7633110
  H       -3.3565410    -1.3799850    -1.5813290
  H       -3.1641810     1.0582560     1.8552750
  H       -2.5989570     1.7488760     0.3025170
  H       -1.4126900    -2.0099640    -0.1705650
  H       -0.8261290    -1.3544960    -1.7108330
  H       -0.6365290     1.0912410     1.6504410
  H       -1.2578930    -0.5558900     1.8421060
  H       -4.3648950     0.1725180    -0.0402120
  H       -3.5438220    -1.0118610     0.7575640
  H        0.7360800    -2.3037000     0.4086560
  H        3.6499200     1.6470780    -0.2894290
  H        0.2227830     2.2055990    -1.2916560
  H        0.5919240     2.7705950     0.3416580
  H        1.7859030     2.9697170    -0.9386560
  H        3.1912420    -2.5456860     0.5460090
  H        4.6540550    -0.5586080     0.2046590
units angstrom
no_reorient  #important for SAPT in psi4, default
symmetry c1  #important for SAPT in psi4, default
}

set PROPERTIES_ORIGIN ["COM"]
properties('MP2/aug-cc-pvtz', properties = ['dipole'])
--------------------------------------------------------------------------

    Molecular point group: c1
  Charge       = 1
  Multiplicity = 1
  Basis Set: AUG-CC-PVTZ
    Blend: AUG-CC-PVTZ
  Basis Set: (AUG-CC-PVTZ AUX)
    Blend: AUG-CC-PVTZ-JKFIT

    Orbital Energies [Eh]
    ---------------------

    Doubly Occupied:

       1A    -15.866672     2A    -15.702971     3A    -11.456871
       4A    -11.456798     5A    -11.417627     6A    -11.417294
       7A    -11.375017     8A    -11.344053     9A    -11.337871
      10A    -11.331164    11A    -11.329792    12A    -11.328507
      13A    -11.323485    14A     -1.497575    15A     -1.390295
      16A     -1.251749    17A     -1.221906    18A     -1.155984
      19A     -1.143836    20A     -1.089048    21A     -1.053548
      22A     -1.031600    23A     -0.995995    24A     -0.935599
      25A     -0.924679    26A     -0.902685    27A     -0.867577
      28A     -0.823771    29A     -0.809223    30A     -0.793746
      31A     -0.788454    32A     -0.756069    33A     -0.745545
      34A     -0.734648    35A     -0.713874    36A     -0.703436
      37A     -0.687704    38A     -0.675004    39A     -0.669573
      40A     -0.659925    41A     -0.655089    42A     -0.641008
      43A     -0.597844    44A     -0.593425    45A     -0.588842
      46A     -0.521200    47A     -0.434879    48A     -0.423559

  @DF-RHF Final Energy:  -535.30821301185188

   => Energetics <=

    Nuclear Repulsion Energy =            820.7930382032998295
    One-Electron Energy =               -2339.8684651906851286
    Two-Electron Energy =                 983.7672139755334229
    Total Energy =                       -535.3082130118518762
  Basis Set: (AUG-CC-PVTZ AUX)
    Blend: AUG-CC-PVTZ-RI
    Molecular point group: c1

    Geometry (in Angstrom), charge = 1, multiplicity = 1:

       Center              X                  Y                   Z               Mass
    ------------   -----------------  -----------------  -----------------  -----------------
         N           -3.468931618129    -0.170209208001     0.161197260564    14.003074004430
         N           -0.670622618129     0.003653791999    -0.127837739436    14.003074004430
         C           -2.786948618129    -0.593449208001    -1.120763739436    12.000000000000
         C           -2.675689618129     0.864817791999     0.926875260564    12.000000000000
         C           -1.388984618129    -1.078581208001    -0.781300739436    12.000000000000
         C           -1.275934618129     0.325613791999     1.158404260564    12.000000000000
         C            0.759920381871    -0.173023208001    -0.038798739436    12.000000000000
         C            1.568783381871     0.961164791999    -0.235053739436    12.000000000000
         C            1.320684381871    -1.422295208001     0.250867260564    12.000000000000
         C            2.955290381871     0.796414791999    -0.133366739436    12.000000000000
         C            0.970493381871     2.306689791999    -0.548294739436    12.000000000000
         C            2.687089981871    -1.548333508001     0.326665060564    12.000000000000
         C            3.524511381871    -0.447582208001     0.144196260564    12.000000000000
         H           -2.750196618129     0.288601791999    -1.762385739436     1.007825032230
         H           -3.405726618129    -1.368494208001    -1.580403739436     1.007825032230
         H           -3.213366618129     1.069746791999     1.856200260564     1.007825032230
         H           -2.648142618129     1.760366791999     0.303442260564     1.007825032230
         H           -1.461875618129    -1.998473208001    -0.169639739436     1.007825032230
         H           -0.875314618129    -1.343005208001    -1.709907739436     1.007825032230
         H           -0.685714618129     1.102731791999     1.651366260564     1.007825032230
         H           -1.307078618129    -0.544399208001     1.843031260564     1.007825032230
         H           -4.414080618129     0.184008791999    -0.039286739436     1.007825032230
         H           -3.593007618129    -1.000370208001     0.758489260564     1.007825032230
         H            0.686894381871    -2.292209208001     0.409581260564     1.007825032230
         H            3.600734381871     1.658568791999    -0.288503739436     1.007825032230
         H            0.173597381871     2.217089791999    -1.290730739436     1.007825032230
         H            0.542738381871     2.782085791999     0.342583260564     1.007825032230
         H            1.736717381871     2.981207791999    -0.937730739436     1.007825032230
         H            3.142056381871    -2.534195208001     0.546934260564     1.007825032230
         H            4.604869381871    -0.547117208001     0.205584260564     1.007825032230

  Basis Set: AUG-CC-PVTZ
    Blend: AUG-CC-PVTZ
  Basis Set: (AUG-CC-PVTZ AUX)
    Blend: AUG-CC-PVTZ-JKFIT
	 Reference Energy          =    -535.3082130118518762 [Eh]
	 Singles Energy            =      -0.0000000000000000 [Eh]
	 Same-Spin Energy          =      -0.5853416581996707 [Eh]
	 Opposite-Spin Energy      =      -1.9171036558348034 [Eh]
	 Correlation Energy        =      -2.5024453140344738 [Eh]
	 Total Energy              =    -537.8106583258863793 [Eh]

	 ================> DF-SCS-MP2 Energies <==================
	-----------------------------------------------------------
	 SCS Same-Spin Scale       =       0.3333333333333333 [-]
	 SCS Opposite-Spin Scale   =       1.2000000000000000 [-]
	 SCS Same-Spin Energy      =      -0.1951138860665569 [Eh]
	 SCS Opposite-Spin Energy  =      -2.3005243870017638 [Eh]
	 SCS Correlation Energy    =      -2.4956382730683204 [Eh]
	 SCS Total Energy          =    -537.8038512849201425 [Eh]
	-----------------------------------------------------------

  Dipole Moment: [D]
     X:   -12.1008      Y:    -0.6800      Z:     0.7310     Total:    12.1419

*** Psi4 exiting successfully. Buy a developer a beer!
