                               Psi4 1.4a3.dev225

  ==> Input File <==

--------------------------------------------------------------------------
#psi4
#
memory 32 gb

molecule  {
1 1
  N       -3.4197460    -0.1817000     0.1602720
  N       -0.6214370    -0.0078370    -0.1287630
  C       -2.7377630    -0.6049400    -1.1216890
  C       -2.6265040     0.8533270     0.9259500
  C       -1.3397990    -1.0900720    -0.7822260
  C       -1.2267490     0.3141230     1.1574790
  C        0.8091060    -0.1845140    -0.0397240
  C        1.6179690     0.9496740    -0.2359790
  C        1.3653908    -1.4814225     0.2590335
  C        3.0044760     0.7849240    -0.1342920
  C        1.0196790     2.2951990    -0.5492200
  C        2.7558540    -1.5738690     0.3292430
  C        3.5736970    -0.4590730     0.1432710
  H       -2.7010110     0.2771110    -1.7633110
  H       -3.3565410    -1.3799850    -1.5813290
  H       -3.1641810     1.0582560     1.8552750
  H       -2.5989570     1.7488760     0.3025170
  H       -1.4126900    -2.0099640    -0.1705650
  H       -0.8261290    -1.3544960    -1.7108330
  H       -0.6365290     1.0912410     1.6504410
  H       -1.2578930    -0.5558900     1.8421060
  H       -4.3648950     0.1725180    -0.0402120
  H       -3.5438220    -1.0118610     0.7575640
  H        0.7360800    -2.3037000     0.4086560
  H        3.6499200     1.6470780    -0.2894290
  H        0.2227830     2.2055990    -1.2916560
  H        0.5919240     2.7705950     0.3416580
  H        1.7859030     2.9697170    -0.9386560
  H        3.1912420    -2.5456860     0.5460090
  H        4.6540550    -0.5586080     0.2046590
units angstrom
no_reorient  #important for SAPT in psi4, default
symmetry c1  #important for SAPT in psi4, default
}

set PROPERTIES_ORIGIN ["COM"]
properties('MP2/aug-cc-pvtz', properties = ['dipole'])
--------------------------------------------------------------------------

    Molecular point group: c1
  Charge       = 1
  Multiplicity = 1
  Basis Set: AUG-CC-PVTZ
    Blend: AUG-CC-PVTZ
  Basis Set: (AUG-CC-PVTZ AUX)
    Blend: AUG-CC-PVTZ-JKFIT

    Orbital Energies [Eh]
    ---------------------

    Doubly Occupied:

       1A    -15.866626     2A    -15.702732     3A    -11.456870
       4A    -11.456671     5A    -11.417693     6A    -11.417121
       7A    -11.379375     8A    -11.344622     9A    -11.340981
      10A    -11.332669    11A    -11.330946    12A    -11.329021
      13A    -11.323871    14A     -1.497519    15A     -1.389512
      16A     -1.246665    17A     -1.221836    18A     -1.155355
      19A     -1.142371    20A     -1.086440    21A     -1.053458
      22A     -1.031187    23A     -0.995975    24A     -0.937304
      25A     -0.925524    26A     -0.902302    27A     -0.866595
      28A     -0.823725    29A     -0.808338    30A     -0.793874
      31A     -0.788204    32A     -0.760956    33A     -0.743053
      34A     -0.733997    35A     -0.714323    36A     -0.706495
      37A     -0.687696    38A     -0.675213    39A     -0.670964
      40A     -0.659940    41A     -0.655213    42A     -0.640489
      43A     -0.599161    44A     -0.595533    45A     -0.585125
      46A     -0.519675    47A     -0.431315    48A     -0.423232

  @DF-RHF Final Energy:  -535.30508842899576

   => Energetics <=

    Nuclear Repulsion Energy =            819.4061021401538483
    One-Electron Energy =               -2337.0868567556667585
    Two-Electron Energy =                 982.3756661865170372
    Total Energy =                       -535.3050884289957594
  Basis Set: (AUG-CC-PVTZ AUX)
    Blend: AUG-CC-PVTZ-RI
    Molecular point group: c1

    Geometry (in Angstrom), charge = 1, multiplicity = 1:

       Center              X                  Y                   Z               Mass
    ------------   -----------------  -----------------  -----------------  -----------------
         N           -3.469954488431    -0.166030717241     0.160344053467    14.003074004430
         N           -0.671645488431     0.007832282759    -0.128690946533    14.003074004430
         C           -2.787971488431    -0.589270717241    -1.121616946533    12.000000000000
         C           -2.676712488431     0.868996282759     0.926022053467    12.000000000000
         C           -1.390007488431    -1.074402717241    -0.782153946533    12.000000000000
         C           -1.276957488431     0.329792282759     1.157551053467    12.000000000000
         C            0.758897511569    -0.168844717241    -0.039651946533    12.000000000000
         C            1.567760511569     0.965343282759    -0.235906946533    12.000000000000
         C            1.315182311569    -1.465753217241     0.259105553467    12.000000000000
         C            2.954267511569     0.800593282759    -0.134219946533    12.000000000000
         C            0.969470511569     2.310868282759    -0.549147946533    12.000000000000
         C            2.705645511569    -1.558199717241     0.329315053467    12.000000000000
         C            3.523488511569    -0.443403717241     0.143343053467    12.000000000000
         H           -2.751219488431     0.292780282759    -1.763238946533     1.007825032230
         H           -3.406749488431    -1.364315717241    -1.581256946533     1.007825032230
         H           -3.214389488431     1.073925282759     1.855347053467     1.007825032230
         H           -2.649165488431     1.764545282759     0.302589053467     1.007825032230
         H           -1.462898488431    -1.994294717241    -0.170492946533     1.007825032230
         H           -0.876337488431    -1.338826717241    -1.710760946533     1.007825032230
         H           -0.686737488431     1.106910282759     1.650513053467     1.007825032230
         H           -1.308101488431    -0.540220717241     1.842178053467     1.007825032230
         H           -4.415103488431     0.188187282759    -0.040139946533     1.007825032230
         H           -3.594030488431    -0.996191717241     0.757636053467     1.007825032230
         H            0.685871511569    -2.288030717241     0.408728053467     1.007825032230
         H            3.599711511569     1.662747282759    -0.289356946533     1.007825032230
         H            0.172574511569     2.221268282759    -1.291583946533     1.007825032230
         H            0.541715511569     2.786264282759     0.341730053467     1.007825032230
         H            1.735694511569     2.985386282759    -0.938583946533     1.007825032230
         H            3.141033511569    -2.530016717241     0.546081053467     1.007825032230
         H            4.603846511569    -0.542938717241     0.204731053467     1.007825032230

  Basis Set: AUG-CC-PVTZ
    Blend: AUG-CC-PVTZ
  Basis Set: (AUG-CC-PVTZ AUX)
    Blend: AUG-CC-PVTZ-JKFIT
	 Reference Energy          =    -535.3050884289957594 [Eh]
	 Singles Energy            =      -0.0000000000000000 [Eh]
	 Same-Spin Energy          =      -0.5853621628246366 [Eh]
	 Opposite-Spin Energy      =      -1.9176579255032036 [Eh]
	 Correlation Energy        =      -2.5030200883278404 [Eh]
	 Total Energy              =    -537.8081085173236033 [Eh]

	 ================> DF-SCS-MP2 Energies <==================
	-----------------------------------------------------------
	 SCS Same-Spin Scale       =       0.3333333333333333 [-]
	 SCS Opposite-Spin Scale   =       1.2000000000000000 [-]
	 SCS Same-Spin Energy      =      -0.1951207209415455 [Eh]
	 SCS Opposite-Spin Energy  =      -2.3011895106038440 [Eh]
	 SCS Correlation Energy    =      -2.4963102315453893 [Eh]
	 SCS Total Energy          =    -537.8013986605411674 [Eh]
	-----------------------------------------------------------

  Dipole Moment: [D]
     X:   -12.1094      Y:    -0.6514      Z:     0.7222     Total:    12.1484

*** Psi4 exiting successfully. Buy a developer a beer!
