                               Psi4 1.4a3.dev225

  ==> Input File <==

--------------------------------------------------------------------------
#psi4
#
memory 32 gb

molecule  {
1 1
  N       -3.4197460    -0.1817000     0.1602720
  N       -0.6214370    -0.0078370    -0.1287630
  C       -2.7377630    -0.6049400    -1.1216890
  C       -2.6265040     0.8533270     0.9259500
  C       -1.3397990    -1.0900720    -0.7822260
  C       -1.2267490     0.3141230     1.1574790
  C        0.7891790    -0.1707160    -0.0436481
  C        1.6179690     0.9496740    -0.2359790
  C        1.3698700    -1.4337860     0.2499420
  C        3.0044760     0.7849240    -0.1342920
  C        1.0196790     2.2951990    -0.5492200
  C        2.7558540    -1.5738690     0.3292430
  C        3.5736970    -0.4590730     0.1432710
  H       -2.7010110     0.2771110    -1.7633110
  H       -3.3565410    -1.3799850    -1.5813290
  H       -3.1641810     1.0582560     1.8552750
  H       -2.5989570     1.7488760     0.3025170
  H       -1.4126900    -2.0099640    -0.1705650
  H       -0.8261290    -1.3544960    -1.7108330
  H       -0.6365290     1.0912410     1.6504410
  H       -1.2578930    -0.5558900     1.8421060
  H       -4.3648950     0.1725180    -0.0402120
  H       -3.5438220    -1.0118610     0.7575640
  H        0.7360800    -2.3037000     0.4086560
  H        3.6499200     1.6470780    -0.2894290
  H        0.2227830     2.2055990    -1.2916560
  H        0.5919240     2.7705950     0.3416580
  H        1.7859030     2.9697170    -0.9386560
  H        3.1912420    -2.5456860     0.5460090
  H        4.6540550    -0.5586080     0.2046590
units angstrom
no_reorient  #important for SAPT in psi4, default
symmetry c1  #important for SAPT in psi4, default
}

set PROPERTIES_ORIGIN ["COM"]
properties('MP2/aug-cc-pvtz', properties = ['dipole'])
--------------------------------------------------------------------------

    Molecular point group: c1
  Charge       = 1
  Multiplicity = 1
  Basis Set: AUG-CC-PVTZ
    Blend: AUG-CC-PVTZ
  Basis Set: (AUG-CC-PVTZ AUX)
    Blend: AUG-CC-PVTZ-JKFIT

    Orbital Energies [Eh]
    ---------------------

    Doubly Occupied:

       1A    -15.867190     2A    -15.703771     3A    -11.457455
       4A    -11.457317     5A    -11.418592     6A    -11.418181
       7A    -11.375544     8A    -11.343952     9A    -11.341457
      10A    -11.331458    11A    -11.329639    12A    -11.328428
      13A    -11.322826    14A     -1.498238    15A     -1.394774
      16A     -1.247681    17A     -1.222654    18A     -1.157571
      19A     -1.141704    20A     -1.086417    21A     -1.054594
      22A     -1.031325    23A     -0.997323    24A     -0.936406
      25A     -0.925027    26A     -0.902171    27A     -0.867839
      28A     -0.824395    29A     -0.811068    30A     -0.794533
      31A     -0.790043    32A     -0.756184    33A     -0.744436
      34A     -0.735271    35A     -0.713323    36A     -0.704644
      37A     -0.688496    38A     -0.675086    39A     -0.669069
      40A     -0.660917    41A     -0.657598    42A     -0.639577
      43A     -0.599237    44A     -0.593517    45A     -0.585557
      46A     -0.521394    47A     -0.430908    48A     -0.423126

  @DF-RHF Final Energy:  -535.30785356639296

   => Energetics <=

    Nuclear Repulsion Energy =            820.3978388010383469
    One-Electron Energy =               -2339.0555641084097260
    Two-Electron Energy =                 983.3498717409785286
    Total Energy =                       -535.3078535663929642
  Basis Set: (AUG-CC-PVTZ AUX)
    Blend: AUG-CC-PVTZ-RI
    Molecular point group: c1

    Geometry (in Angstrom), charge = 1, multiplicity = 1:

       Center              X                  Y                   Z               Mass
    ------------   -----------------  -----------------  -----------------  -----------------
         N           -3.468908002799    -0.170192495718     0.161225773738    14.003074004430
         N           -0.670599002799     0.003670504282    -0.127809226262    14.003074004430
         C           -2.786925002799    -0.593432495718    -1.120735226262    12.000000000000
         C           -2.675666002799     0.864834504282     0.926903773738    12.000000000000
         C           -1.388961002799    -1.078564495718    -0.781272226262    12.000000000000
         C           -1.275911002799     0.325630504282     1.158432773738    12.000000000000
         C            0.740016997201    -0.159208495718    -0.042694326262    12.000000000000
         C            1.568806997201     0.961181504282    -0.235025226262    12.000000000000
         C            1.320707997201    -1.422278495718     0.250895773738    12.000000000000
         C            2.955313997201     0.796431504282    -0.133338226262    12.000000000000
         C            0.970516997201     2.306706504282    -0.548266226262    12.000000000000
         C            2.706691997201    -1.562361495718     0.330196773738    12.000000000000
         C            3.524534997201    -0.447565495718     0.144224773738    12.000000000000
         H           -2.750173002799     0.288618504282    -1.762357226262     1.007825032230
         H           -3.405703002799    -1.368477495718    -1.580375226262     1.007825032230
         H           -3.213343002799     1.069763504282     1.856228773738     1.007825032230
         H           -2.648119002799     1.760383504282     0.303470773738     1.007825032230
         H           -1.461852002799    -1.998456495718    -0.169611226262     1.007825032230
         H           -0.875291002799    -1.342988495718    -1.709879226262     1.007825032230
         H           -0.685691002799     1.102748504282     1.651394773738     1.007825032230
         H           -1.307055002799    -0.544382495718     1.843059773738     1.007825032230
         H           -4.414057002799     0.184025504282    -0.039258226262     1.007825032230
         H           -3.592984002799    -1.000353495718     0.758517773738     1.007825032230
         H            0.686917997201    -2.292192495718     0.409609773738     1.007825032230
         H            3.600757997201     1.658585504282    -0.288475226262     1.007825032230
         H            0.173620997201     2.217106504282    -1.290702226262     1.007825032230
         H            0.542761997201     2.782102504282     0.342611773738     1.007825032230
         H            1.736740997201     2.981224504282    -0.937702226262     1.007825032230
         H            3.142079997201    -2.534178495718     0.546962773738     1.007825032230
         H            4.604892997201    -0.547100495718     0.205612773738     1.007825032230

  Basis Set: AUG-CC-PVTZ
    Blend: AUG-CC-PVTZ
  Basis Set: (AUG-CC-PVTZ AUX)
    Blend: AUG-CC-PVTZ-JKFIT
	 Reference Energy          =    -535.3078535663929642 [Eh]
	 Singles Energy            =      -0.0000000000000000 [Eh]
	 Same-Spin Energy          =      -0.5854868174500002 [Eh]
	 Opposite-Spin Energy      =      -1.9173781151078479 [Eh]
	 Correlation Energy        =      -2.5028649325578480 [Eh]
	 Total Energy              =    -537.8107184989507914 [Eh]

	 ================> DF-SCS-MP2 Energies <==================
	-----------------------------------------------------------
	 SCS Same-Spin Scale       =       0.3333333333333333 [-]
	 SCS Opposite-Spin Scale   =       1.2000000000000000 [-]
	 SCS Same-Spin Energy      =      -0.1951622724833334 [Eh]
	 SCS Opposite-Spin Energy  =      -2.3008537381294176 [Eh]
	 SCS Correlation Energy    =      -2.4960160106127511 [Eh]
	 SCS Total Energy          =    -537.8038695770056847 [Eh]
	-----------------------------------------------------------

  Dipole Moment: [D]
     X:   -12.1749      Y:    -0.6885      Z:     0.7326     Total:    12.2164

*** Psi4 exiting successfully. Buy a developer a beer!
