                               Psi4 1.4a3.dev225

  ==> Input File <==

--------------------------------------------------------------------------
#psi4
#
memory 32 gb

molecule  {
1 1
  N       -3.4197460    -0.1817000     0.1602720
  N       -0.6214370    -0.0078370    -0.1287630
  C       -2.7377630    -0.6049400    -1.1216890
  C       -2.6265040     0.8533270     0.9259500
  C       -1.3397990    -1.0900720    -0.7822260
  C       -1.2267490     0.3141230     1.1574790
  C        0.8091060    -0.1845140    -0.0397240
  C        1.6179690     0.9496740    -0.2359790
  C        1.3698700    -1.4337860     0.2499420
  C        3.0044760     0.7849240    -0.1342920
  C        1.0196790     2.2951990    -0.5492200
  C        2.7558540    -1.5738690     0.3292430
  C        3.5736970    -0.4590730     0.1432710
  H       -2.7010110     0.2771110    -1.7633110
  H       -3.3565410    -1.3799850    -1.5813290
  H       -3.2625629     1.0957531     2.0253190
  H       -2.5989570     1.7488760     0.3025170
  H       -1.4126900    -2.0099640    -0.1705650
  H       -0.8261290    -1.3544960    -1.7108330
  H       -0.6365290     1.0912410     1.6504410
  H       -1.2578930    -0.5558900     1.8421060
  H       -4.3648950     0.1725180    -0.0402120
  H       -3.5438220    -1.0118610     0.7575640
  H        0.7360800    -2.3037000     0.4086560
  H        3.6499200     1.6470780    -0.2894290
  H        0.2227830     2.2055990    -1.2916560
  H        0.5919240     2.7705950     0.3416580
  H        1.7859030     2.9697170    -0.9386560
  H        3.1912420    -2.5456860     0.5460090
  H        4.6540550    -0.5586080     0.2046590
units angstrom
no_reorient  #important for SAPT in psi4, default
symmetry c1  #important for SAPT in psi4, default
}

set PROPERTIES_ORIGIN ["COM"]
properties('MP2/aug-cc-pvtz', properties = ['dipole'])
--------------------------------------------------------------------------

    Molecular point group: c1
  Charge       = 1
  Multiplicity = 1
  Basis Set: AUG-CC-PVTZ
    Blend: AUG-CC-PVTZ
  Basis Set: (AUG-CC-PVTZ AUX)
    Blend: AUG-CC-PVTZ-JKFIT

    Orbital Energies [Eh]
    ---------------------

    Doubly Occupied:

       1A    -15.867748     2A    -15.704134     3A    -11.476072
       4A    -11.457480     5A    -11.418284     6A    -11.418115
       7A    -11.375765     8A    -11.344827     9A    -11.340661
      10A    -11.332162    11A    -11.330236    12A    -11.328984
      13A    -11.323888    14A     -1.497555    15A     -1.391105
      16A     -1.250349    17A     -1.217438    18A     -1.154584
      19A     -1.142680    20A     -1.086549    21A     -1.049130
      22A     -1.031826    23A     -0.996285    24A     -0.935847
      25A     -0.921729    26A     -0.902400    27A     -0.859798
      28A     -0.824284    29A     -0.810328    30A     -0.790140
      31A     -0.784881    32A     -0.755503    33A     -0.740723
      34A     -0.724629    35A     -0.715103    36A     -0.700721
      37A     -0.684810    38A     -0.675441    39A     -0.669380
      40A     -0.658331    41A     -0.650723    42A     -0.640197
      43A     -0.600338    44A     -0.591885    45A     -0.588301
      46A     -0.522395    47A     -0.433954    48A     -0.423892

  @DF-RHF Final Energy:  -535.28773353899908

   => Energetics <=

    Nuclear Repulsion Energy =            819.2840642138108933
    One-Electron Energy =               -2336.8604177819183860
    Two-Electron Energy =                 982.2886200291085288
    Total Energy =                       -535.2877335389990776
  Basis Set: (AUG-CC-PVTZ AUX)
    Blend: AUG-CC-PVTZ-RI
    Molecular point group: c1

    Geometry (in Angstrom), charge = 1, multiplicity = 1:

       Center              X                  Y                   Z               Mass
    ------------   -----------------  -----------------  -----------------  -----------------
         N           -3.469698185205    -0.169471111050     0.159992484706    14.003074004430
         N           -0.671389185205     0.004391888950    -0.129042515294    14.003074004430
         C           -2.787715185205    -0.592711111050    -1.121968515294    12.000000000000
         C           -2.676456185205     0.865555888950     0.925670484706    12.000000000000
         C           -1.389751185205    -1.077843111050    -0.782505515294    12.000000000000
         C           -1.276701185205     0.326351888950     1.157199484706    12.000000000000
         C            0.759153814795    -0.172285111050    -0.040003515294    12.000000000000
         C            1.568016814795     0.961902888950    -0.236258515294    12.000000000000
         C            1.319917814795    -1.421557111050     0.249662484706    12.000000000000
         C            2.954523814795     0.797152888950    -0.134571515294    12.000000000000
         C            0.969726814795     2.307427888950    -0.549499515294    12.000000000000
         C            2.705901814795    -1.561640111050     0.328963484706    12.000000000000
         C            3.523744814795    -0.446844111050     0.142991484706    12.000000000000
         H           -2.750963185205     0.289339888950    -1.763590515294     1.007825032230
         H           -3.406493185205    -1.367756111050    -1.581608515294     1.007825032230
         H           -3.312515085205     1.107981988950     2.025039484706     1.007825032230
         H           -2.648909185205     1.761104888950     0.302237484706     1.007825032230
         H           -1.462642185205    -1.997735111050    -0.170844515294     1.007825032230
         H           -0.876081185205    -1.342267111050    -1.711112515294     1.007825032230
         H           -0.686481185205     1.103469888950     1.650161484706     1.007825032230
         H           -1.307845185205    -0.543661111050     1.841826484706     1.007825032230
         H           -4.414847185205     0.184746888950    -0.040491515294     1.007825032230
         H           -3.593774185205    -0.999632111050     0.757284484706     1.007825032230
         H            0.686127814795    -2.291471111050     0.408376484706     1.007825032230
         H            3.599967814795     1.659306888950    -0.289708515294     1.007825032230
         H            0.172830814795     2.217827888950    -1.291935515294     1.007825032230
         H            0.541971814795     2.782823888950     0.341378484706     1.007825032230
         H            1.735950814795     2.981945888950    -0.938935515294     1.007825032230
         H            3.141289814795    -2.533457111050     0.545729484706     1.007825032230
         H            4.604102814795    -0.546379111050     0.204379484706     1.007825032230

  Basis Set: AUG-CC-PVTZ
    Blend: AUG-CC-PVTZ
  Basis Set: (AUG-CC-PVTZ AUX)
    Blend: AUG-CC-PVTZ-JKFIT
	 Reference Energy          =    -535.2877335389990776 [Eh]
	 Singles Energy            =      -0.0000000000000000 [Eh]
	 Same-Spin Energy          =      -0.5856841358335769 [Eh]
	 Opposite-Spin Energy      =      -1.9192011758171958 [Eh]
	 Correlation Energy        =      -2.5048853116507726 [Eh]
	 Total Energy              =    -537.7926188506498875 [Eh]

	 ================> DF-SCS-MP2 Energies <==================
	-----------------------------------------------------------
	 SCS Same-Spin Scale       =       0.3333333333333333 [-]
	 SCS Opposite-Spin Scale   =       1.2000000000000000 [-]
	 SCS Same-Spin Energy      =      -0.1952280452778590 [Eh]
	 SCS Opposite-Spin Energy  =      -2.3030414109806348 [Eh]
	 SCS Correlation Energy    =      -2.4982694562584937 [Eh]
	 SCS Total Energy          =    -537.7860029952576042 [Eh]
	-----------------------------------------------------------

  Dipole Moment: [D]
     X:   -12.0633      Y:    -0.7042      Z:     0.7181     Total:    12.1051

*** Psi4 exiting successfully. Buy a developer a beer!
