                               Psi4 1.4a3.dev225

  ==> Input File <==

--------------------------------------------------------------------------
#psi4
#
memory 32 gb

molecule  {
0 1
  C        0.0000000    -0.6978810     1.1359140
  C        0.0000000     0.6978810     1.1359140
  N        0.0000000     1.4281183    -0.0168956
  C        0.0000000     0.6978810    -1.1359140
  C        0.0000000    -0.6978810    -1.1359140
  N        0.0000010    -1.4174160     0.0000000
  H       -0.0000020    -1.2582750     2.0684350
  H       -0.0000020     1.2582750     2.0684350
  H       -0.0000020     1.2582750    -2.0684350
  H       -0.0000020    -1.2582750    -2.0684350
units angstrom
no_reorient  #important for SAPT in psi4, default
symmetry c1  #important for SAPT in psi4, default
}

set PROPERTIES_ORIGIN ["COM"]
properties('MP2/aug-cc-pvtz', properties = ['dipole'])
--------------------------------------------------------------------------

    Molecular point group: c1
  Charge       = 0
  Multiplicity = 1
  Basis Set: AUG-CC-PVTZ
    Blend: AUG-CC-PVTZ
  Basis Set: (AUG-CC-PVTZ AUX)
    Blend: AUG-CC-PVTZ-JKFIT

    Orbital Energies [Eh]
    ---------------------

    Doubly Occupied:

       1A    -15.600441     2A    -15.598991     3A    -11.290293
       4A    -11.289175     5A    -11.287870     6A    -11.287479
       7A     -1.302607     8A     -1.216268     9A     -1.052589
      10A     -0.904376    11A     -0.885575    12A     -0.725805
      13A     -0.701745    14A     -0.677710    15A     -0.610394
      16A     -0.572329    17A     -0.549029    18A     -0.503000
      19A     -0.434398    20A     -0.417927    21A     -0.360236

  @DF-RHF Final Energy:  -262.76755792641472

   => Energetics <=

    Nuclear Repulsion Energy =            207.6356686990807248
    One-Electron Energy =                -766.2699752868265932
    Two-Electron Energy =                 295.8667486613311439
    Total Energy =                       -262.7675579264147245
  Basis Set: (AUG-CC-PVTZ AUX)
    Blend: AUG-CC-PVTZ-RI
    Molecular point group: c1

    Geometry (in Angstrom), charge = 0, multiplicity = 1:

       Center              X                  Y                   Z               Mass
    ------------   -----------------  -----------------  -----------------  -----------------
         C           -0.000000074221    -0.699753437245     1.138869995508    12.000000000000
         C           -0.000000074221     0.696008562755     1.138869995508    12.000000000000
         N           -0.000000074221     1.426245862755    -0.013939604492    14.003074004430
         C           -0.000000074221     0.696008562755    -1.132958004492    12.000000000000
         C           -0.000000074221    -0.699753437245    -1.132958004492    12.000000000000
         N            0.000000925779    -1.419288437245     0.002955995508    14.003074004430
         H           -0.000002074221    -1.260147437245     2.071390995508     1.007825032230
         H           -0.000002074221     1.256402562755     2.071390995508     1.007825032230
         H           -0.000002074221     1.256402562755    -2.065479004492     1.007825032230
         H           -0.000002074221    -1.260147437245    -2.065479004492     1.007825032230

  Basis Set: AUG-CC-PVTZ
    Blend: AUG-CC-PVTZ
  Basis Set: (AUG-CC-PVTZ AUX)
    Blend: AUG-CC-PVTZ-JKFIT
	 Reference Energy          =    -262.7675579264147245 [Eh]
	 Singles Energy            =      -0.0000000000000000 [Eh]
	 Same-Spin Energy          =      -0.2834386836115999 [Eh]
	 Opposite-Spin Energy      =      -0.8605871389958653 [Eh]
	 Correlation Energy        =      -1.1440258226074651 [Eh]
	 Total Energy              =    -263.9115837490222134 [Eh]

	 ================> DF-SCS-MP2 Energies <==================
	-----------------------------------------------------------
	 SCS Same-Spin Scale       =       0.3333333333333333 [-]
	 SCS Opposite-Spin Scale   =       1.2000000000000000 [-]
	 SCS Same-Spin Energy      =      -0.0944795612038666 [Eh]
	 SCS Opposite-Spin Energy  =      -1.0327045667950383 [Eh]
	 SCS Correlation Energy    =      -1.1271841279989050 [Eh]
	 SCS Total Energy          =    -263.8947420544136548 [Eh]
	-----------------------------------------------------------

  Dipole Moment: [D]
     X:    -0.0000      Y:    -0.0182      Z:     0.0144     Total:     0.0232

*** Psi4 exiting successfully. Buy a developer a beer!
