                               Psi4 1.3.2 release

  ==> Input File <==

--------------------------------------------------------------------------
#psi4
#
memory 32 gb

molecule  {
0 1
  C       -0.0001220    -0.6981010     1.1356930
  C       -0.0001222     0.7180260     1.1480662
  N       -0.0001290     1.4176070     0.0000000
  C       -0.0001220     0.6980960    -1.1356820
  C       -0.0001220    -0.6981010    -1.1356930
  N        0.0001330    -1.4176010     0.0000000
  H        0.0008350    -1.2582580     2.0685610
  H        0.0006130     1.2582660     2.0685540
  H        0.0006130     1.2582660    -2.0685540
  H        0.0008350    -1.2582580    -2.0685610
units angstrom
no_reorient  #important for SAPT in psi4, default
symmetry c1  #important for SAPT in psi4, default
}

set PROPERTIES_ORIGIN ["COM"]
properties('MP2/aug-cc-pvtz', properties = ['dipole'])
--------------------------------------------------------------------------

    Molecular point group: c1
  Charge       = 0
  Multiplicity = 1
  Basis Set: AUG-CC-PVTZ
    Blend: AUG-CC-PVTZ
  Basis Set: (AUG-CC-PVTZ AUX)
    Blend: AUG-CC-PVTZ-JKFIT

    Orbital Energies [Eh]
    ---------------------

    Doubly Occupied:

       1A    -15.598321     2A    -15.598112     3A    -11.291111
       4A    -11.289362     5A    -11.288517     6A    -11.287170
       7A     -1.302244     8A     -1.216806     9A     -1.051387
      10A     -0.900899    11A     -0.888330    12A     -0.725833
      13A     -0.701001    14A     -0.681605    15A     -0.611047
      16A     -0.571565    17A     -0.553800    18A     -0.501429
      19A     -0.435528    20A     -0.414202    21A     -0.357839

  @DF-RHF Final Energy:  -262.76792518986576

   => Energetics <=

    Nuclear Repulsion Energy =            207.5423551746575868
    One-Electron Energy =                -766.0883502925579478
    Two-Electron Energy =                 295.7780699280345971
    Total Energy =                       -262.7679251898657640
  Basis Set: (AUG-CC-PVTZ AUX)
    Blend: AUG-CC-PVTZ-RI
    Molecular point group: c1

    Geometry (in Angstrom), charge = 0, multiplicity = 1:

       Center              X                  Y                   Z               Mass
    ------------   -----------------  -----------------  -----------------  -----------------
         C           -0.000085970285    -0.701088853176     1.133836239153    12.000000000000
         C           -0.000086170285     0.715038146824     1.146209439153    12.000000000000
         N           -0.000092970285     1.414619146824    -0.001856760847    14.003074004430
         C           -0.000085970285     0.695108146824    -1.137538760847    12.000000000000
         C           -0.000085970285    -0.701088853176    -1.137549760847    12.000000000000
         N            0.000169029715    -1.420588853176    -0.001856760847    14.003074004430
         H            0.000871029715    -1.261245853176     2.066704239153     1.007825032230
         H            0.000649029715     1.255278146824     2.066697239153     1.007825032230
         H            0.000649029715     1.255278146824    -2.070410760847     1.007825032230
         H            0.000871029715    -1.261245853176    -2.070417760847     1.007825032230

  Basis Set: AUG-CC-PVTZ
    Blend: AUG-CC-PVTZ
  Basis Set: (AUG-CC-PVTZ AUX)
    Blend: AUG-CC-PVTZ-JKFIT
	 Reference Energy          =    -262.7679251898657640 [Eh]
	 Singles Energy            =      -0.0000000000000000 [Eh]
	 Same-Spin Energy          =      -0.2832883671898985 [Eh]
	 Opposite-Spin Energy      =      -0.8602427117552685 [Eh]
	 Correlation Energy        =      -1.1435310789451669 [Eh]
	 Total Energy              =    -263.9114562688109231 [Eh]

	 ================> DF-SCS-MP2 Energies <==================
	-----------------------------------------------------------
	 SCS Same-Spin Scale       =       0.3333333333333333 [-]
	 SCS Opposite-Spin Scale   =       1.2000000000000000 [-]
	 SCS Same-Spin Energy      =      -0.0944294557299662 [Eh]
	 SCS Opposite-Spin Energy  =      -1.0322912541063221 [Eh]
	 SCS Correlation Energy    =      -1.1267207098362881 [Eh]
	 SCS Total Energy          =    -263.8946458997020272 [Eh]
	-----------------------------------------------------------

  Dipole Moment: [D]
     X:     0.0013      Y:     0.0151      Z:     0.0435     Total:     0.0461

*** Psi4 exiting successfully. Buy a developer a beer!
