                               Psi4 1.3.2 release

  ==> Input File <==

--------------------------------------------------------------------------
#psi4
#
memory 32 gb

molecule  {
0 1
  C       -0.0001220    -0.6981010     1.1356930
  C       -0.0001216     0.6588996     1.1098796
  N       -0.0001290     1.4176070     0.0000000
  C       -0.0001220     0.6980960    -1.1356820
  C       -0.0001220    -0.6981010    -1.1356930
  N        0.0001330    -1.4176010     0.0000000
  H        0.0008350    -1.2582580     2.0685610
  H        0.0006130     1.2582660     2.0685540
  H        0.0006130     1.2582660    -2.0685540
  H        0.0008350    -1.2582580    -2.0685610
units angstrom
no_reorient  #important for SAPT in psi4, default
symmetry c1  #important for SAPT in psi4, default
}

set PROPERTIES_ORIGIN ["COM"]
properties('MP2/aug-cc-pvtz', properties = ['dipole'])
--------------------------------------------------------------------------

    Molecular point group: c1
  Charge       = 0
  Multiplicity = 1
  Basis Set: AUG-CC-PVTZ
    Blend: AUG-CC-PVTZ
  Basis Set: (AUG-CC-PVTZ AUX)
    Blend: AUG-CC-PVTZ-JKFIT

    Orbital Energies [Eh]
    ---------------------

    Doubly Occupied:

       1A    -15.599737     2A    -15.599154     3A    -11.290088
       4A    -11.288374     5A    -11.286011     6A    -11.282741
       7A     -1.307900     8A     -1.218246     9A     -1.056771
      10A     -0.909186    11A     -0.883938    12A     -0.727280
      13A     -0.706113    14A     -0.671046    15A     -0.609529
      16A     -0.576733    17A     -0.541383    18A     -0.503992
      19A     -0.434527    20A     -0.420248    21A     -0.364892

  @DF-RHF Final Energy:  -262.76576448660603

   => Energetics <=

    Nuclear Repulsion Energy =            208.5927630887723012
    One-Electron Energy =                -768.1612815145914510
    Two-Electron Energy =                 296.8027539392130620
    Total Energy =                       -262.7657644866060309
  Basis Set: (AUG-CC-PVTZ AUX)
    Blend: AUG-CC-PVTZ-RI
    Molecular point group: c1

    Geometry (in Angstrom), charge = 0, multiplicity = 1:

       Center              X                  Y                   Z               Mass
    ------------   -----------------  -----------------  -----------------  -----------------
         C           -0.000086060243    -0.692224042809     1.139561549125    12.000000000000
         C           -0.000085660243     0.664776557191     1.113748149125    12.000000000000
         N           -0.000093060243     1.423483957191     0.003868549125    14.003074004430
         C           -0.000086060243     0.703972957191    -1.131813450875    12.000000000000
         C           -0.000086060243    -0.692224042809    -1.131824450875    12.000000000000
         N            0.000168939757    -1.411724042809     0.003868549125    14.003074004430
         H            0.000870939757    -1.252381042809     2.072429549125     1.007825032230
         H            0.000648939757     1.264142957191     2.072422549125     1.007825032230
         H            0.000648939757     1.264142957191    -2.064685450875     1.007825032230
         H            0.000870939757    -1.252381042809    -2.064692450875     1.007825032230

  Basis Set: AUG-CC-PVTZ
    Blend: AUG-CC-PVTZ
  Basis Set: (AUG-CC-PVTZ AUX)
    Blend: AUG-CC-PVTZ-JKFIT
	 Reference Energy          =    -262.7657644866060309 [Eh]
	 Singles Energy            =      -0.0000000000000000 [Eh]
	 Same-Spin Energy          =      -0.2834608107311977 [Eh]
	 Opposite-Spin Energy      =      -0.8602216527298643 [Eh]
	 Correlation Energy        =      -1.1436824634610621 [Eh]
	 Total Energy              =    -263.9094469500670925 [Eh]

	 ================> DF-SCS-MP2 Energies <==================
	-----------------------------------------------------------
	 SCS Same-Spin Scale       =       0.3333333333333333 [-]
	 SCS Opposite-Spin Scale   =       1.2000000000000000 [-]
	 SCS Same-Spin Energy      =      -0.0944869369103992 [Eh]
	 SCS Opposite-Spin Energy  =      -1.0322659832758372 [Eh]
	 SCS Correlation Energy    =      -1.1267529201862363 [Eh]
	 SCS Total Energy          =    -263.8925174067922512 [Eh]
	-----------------------------------------------------------

  Dipole Moment: [D]
     X:     0.0013      Y:    -0.0321      Z:    -0.0963     Total:     0.1015

*** Psi4 exiting successfully. Buy a developer a beer!
