                               Psi4 1.4a3.dev225

  ==> Input File <==

--------------------------------------------------------------------------
#psi4
#
memory 32 gb

molecule  {
0 1
  C        0.0000000    -0.6978810     1.1359140
  C        0.0000000     0.6978810     1.1359140
  N        0.0000000     1.4067137     0.0168956
  C        0.0000000     0.6978810    -1.1359140
  C        0.0000000    -0.6978810    -1.1359140
  N        0.0000010    -1.4174160     0.0000000
  H       -0.0000020    -1.2582750     2.0684350
  H       -0.0000020     1.2582750     2.0684350
  H       -0.0000020     1.2582750    -2.0684350
  H       -0.0000020    -1.2582750    -2.0684350
units angstrom
no_reorient  #important for SAPT in psi4, default
symmetry c1  #important for SAPT in psi4, default
}

set PROPERTIES_ORIGIN ["COM"]
properties('MP2/aug-cc-pvtz', properties = ['dipole'])
--------------------------------------------------------------------------

    Molecular point group: c1
  Charge       = 0
  Multiplicity = 1
  Basis Set: AUG-CC-PVTZ
    Blend: AUG-CC-PVTZ
  Basis Set: (AUG-CC-PVTZ AUX)
    Blend: AUG-CC-PVTZ-JKFIT

    Orbital Energies [Eh]
    ---------------------

    Doubly Occupied:

       1A    -15.598193     2A    -15.596620     3A    -11.288961
       4A    -11.288581     5A    -11.287288     6A    -11.286030
       7A     -1.305523     8A     -1.218089     9A     -1.053619
      10A     -0.903210    11A     -0.887549    12A     -0.726514
      13A     -0.703502    14A     -0.677936    15A     -0.611245
      16A     -0.574096    17A     -0.551435    18A     -0.501079
      19A     -0.435874    20A     -0.414845    21A     -0.360140

  @DF-RHF Final Energy:  -262.76912136001926

   => Energetics <=

    Nuclear Repulsion Energy =            208.1456916633633796
    One-Electron Energy =                -767.2889672125306788
    Two-Electron Energy =                 296.3741541891481006
    Total Energy =                       -262.7691213600192555
  Basis Set: (AUG-CC-PVTZ AUX)
    Blend: AUG-CC-PVTZ-RI
    Molecular point group: c1

    Geometry (in Angstrom), charge = 0, multiplicity = 1:

       Center              X                  Y                   Z               Mass
    ------------   -----------------  -----------------  -----------------  -----------------
         C           -0.000000074221    -0.696008562755     1.132958004492    12.000000000000
         C           -0.000000074221     0.699753437245     1.132958004492    12.000000000000
         N           -0.000000074221     1.408586137245     0.013939604492    14.003074004430
         C           -0.000000074221     0.699753437245    -1.138869995508    12.000000000000
         C           -0.000000074221    -0.696008562755    -1.138869995508    12.000000000000
         N            0.000000925779    -1.415543562755    -0.002955995508    14.003074004430
         H           -0.000002074221    -1.256402562755     2.065479004492     1.007825032230
         H           -0.000002074221     1.260147437245     2.065479004492     1.007825032230
         H           -0.000002074221     1.260147437245    -2.071390995508     1.007825032230
         H           -0.000002074221    -1.256402562755    -2.071390995508     1.007825032230

  Basis Set: AUG-CC-PVTZ
    Blend: AUG-CC-PVTZ
  Basis Set: (AUG-CC-PVTZ AUX)
    Blend: AUG-CC-PVTZ-JKFIT
	 Reference Energy          =    -262.7691213600192555 [Eh]
	 Singles Energy            =      -0.0000000000000000 [Eh]
	 Same-Spin Energy          =      -0.2831943695801755 [Eh]
	 Opposite-Spin Energy      =      -0.8597609012512850 [Eh]
	 Correlation Energy        =      -1.1429552708314605 [Eh]
	 Total Energy              =    -263.9120766308507200 [Eh]

	 ================> DF-SCS-MP2 Energies <==================
	-----------------------------------------------------------
	 SCS Same-Spin Scale       =       0.3333333333333333 [-]
	 SCS Opposite-Spin Scale   =       1.2000000000000000 [-]
	 SCS Same-Spin Energy      =      -0.0943981231933918 [Eh]
	 SCS Opposite-Spin Energy  =      -1.0317130815015421 [Eh]
	 SCS Correlation Energy    =      -1.1261112046949340 [Eh]
	 SCS Total Energy          =    -263.8952325647142061 [Eh]
	-----------------------------------------------------------

  Dipole Moment: [D]
     X:    -0.0000      Y:     0.0189      Z:    -0.0158     Total:     0.0247

*** Psi4 exiting successfully. Buy a developer a beer!
