                               Psi4 1.3.2 release

  ==> Input File <==

--------------------------------------------------------------------------
#psi4
#
memory 32 gb

molecule  {
0 1
  C       -0.0001220    -0.6981010     1.1356930
  C       -0.0001224     0.7381690     1.1601007
  N       -0.0001290     1.4176070     0.0000000
  C       -0.0001220     0.6980960    -1.1356820
  C       -0.0001220    -0.6981010    -1.1356930
  N        0.0001330    -1.4176010     0.0000000
  H        0.0008350    -1.2582580     2.0685610
  H        0.0006130     1.2582660     2.0685540
  H        0.0006130     1.2582660    -2.0685540
  H        0.0008350    -1.2582580    -2.0685610
units angstrom
no_reorient  #important for SAPT in psi4, default
symmetry c1  #important for SAPT in psi4, default
}

set PROPERTIES_ORIGIN ["COM"]
properties('MP2/aug-cc-pvtz', properties = ['dipole'])
--------------------------------------------------------------------------

    Molecular point group: c1
  Charge       = 0
  Multiplicity = 1
  Basis Set: AUG-CC-PVTZ
    Blend: AUG-CC-PVTZ
  Basis Set: (AUG-CC-PVTZ AUX)
    Blend: AUG-CC-PVTZ-JKFIT

    Orbital Energies [Eh]
    ---------------------

    Doubly Occupied:

       1A    -15.598069     2A    -15.597713     3A    -11.293599
       4A    -11.290786     5A    -11.288286     6A    -11.286607
       7A     -1.300535     8A     -1.216431     9A     -1.049880
      10A     -0.899008    11A     -0.889310    12A     -0.726024
      13A     -0.699281    14A     -0.685509    15A     -0.611317
      16A     -0.570024    17A     -0.556782    18A     -0.500684
      19A     -0.435971    20A     -0.411837    21A     -0.355647

  @DF-RHF Final Energy:  -262.76557608063808

   => Energetics <=

    Nuclear Repulsion Energy =            207.2075444950208976
    One-Electron Energy =                -765.4196393525450048
    Two-Electron Energy =                 295.4465187768860233
    Total Energy =                       -262.7655760806380840
  Basis Set: (AUG-CC-PVTZ AUX)
    Blend: AUG-CC-PVTZ-RI
    Molecular point group: c1

    Geometry (in Angstrom), charge = 0, multiplicity = 1:

       Center              X                  Y                   Z               Mass
    ------------   -----------------  -----------------  -----------------  -----------------
         C           -0.000085940299    -0.704108889492     1.132031908763    12.000000000000
         C           -0.000086340299     0.732161110508     1.156439608763    12.000000000000
         N           -0.000092940299     1.411599110508    -0.003661091237    14.003074004430
         C           -0.000085940299     0.692088110508    -1.139343091237    12.000000000000
         C           -0.000085940299    -0.704108889492    -1.139354091237    12.000000000000
         N            0.000169059701    -1.423608889492    -0.003661091237    14.003074004430
         H            0.000871059701    -1.264265889492     2.064899908763     1.007825032230
         H            0.000649059701     1.252258110508     2.064892908763     1.007825032230
         H            0.000649059701     1.252258110508    -2.072215091237     1.007825032230
         H            0.000871059701    -1.264265889492    -2.072222091237     1.007825032230

  Basis Set: AUG-CC-PVTZ
    Blend: AUG-CC-PVTZ
  Basis Set: (AUG-CC-PVTZ AUX)
    Blend: AUG-CC-PVTZ-JKFIT
	 Reference Energy          =    -262.7655760806380840 [Eh]
	 Singles Energy            =      -0.0000000000000000 [Eh]
	 Same-Spin Energy          =      -0.2832628142830256 [Eh]
	 Opposite-Spin Energy      =      -0.8604120199460681 [Eh]
	 Correlation Energy        =      -1.1436748342290937 [Eh]
	 Total Energy              =    -263.9092509148671866 [Eh]

	 ================> DF-SCS-MP2 Energies <==================
	-----------------------------------------------------------
	 SCS Same-Spin Scale       =       0.3333333333333333 [-]
	 SCS Opposite-Spin Scale   =       1.2000000000000000 [-]
	 SCS Same-Spin Energy      =      -0.0944209380943418 [Eh]
	 SCS Opposite-Spin Energy  =      -1.0324944239352816 [Eh]
	 SCS Correlation Energy    =      -1.1269153620296235 [Eh]
	 SCS Total Energy          =    -263.8924914426677333 [Eh]
	-----------------------------------------------------------

  Dipole Moment: [D]
     X:     0.0013      Y:     0.0300      Z:     0.0840     Total:     0.0892

*** Psi4 exiting successfully. Buy a developer a beer!
