                               Psi4 1.3.2 release

  ==> Input File <==

--------------------------------------------------------------------------
#psi4
#
memory 32 gb

molecule  {
0 1
  C       -0.0001220    -0.6981010     1.1356930
  C       -0.0001220     0.6980960     1.1356820
  N       -0.0001300     1.5246435    -0.1689473
  C       -0.0001220     0.6980960    -1.1356820
  C       -0.0001220    -0.6981010    -1.1356930
  N        0.0001330    -1.4176010     0.0000000
  H        0.0008350    -1.2582580     2.0685610
  H        0.0006130     1.2582660     2.0685540
  H        0.0006130     1.2582660    -2.0685540
  H        0.0008350    -1.2582580    -2.0685610
units angstrom
no_reorient  #important for SAPT in psi4, default
symmetry c1  #important for SAPT in psi4, default
}

set PROPERTIES_ORIGIN ["COM"]
properties('MP2/aug-cc-pvtz', properties = ['dipole'])
--------------------------------------------------------------------------

    Molecular point group: c1
  Charge       = 0
  Multiplicity = 1
  Basis Set: AUG-CC-PVTZ
    Blend: AUG-CC-PVTZ
  Basis Set: (AUG-CC-PVTZ AUX)
    Blend: AUG-CC-PVTZ-JKFIT

    Orbital Energies [Eh]
    ---------------------

    Doubly Occupied:

       1A    -15.612726     2A    -15.602183     3A    -11.302139
       4A    -11.295765     5A    -11.287361     6A    -11.283259
       7A     -1.297157     8A     -1.219410     9A     -1.044502
      10A     -0.917907    11A     -0.864931    12A     -0.727560
      13A     -0.689085    14A     -0.675413    15A     -0.608946
      16A     -0.568337    17A     -0.546481    18A     -0.498518
      19A     -0.439418    20A     -0.423606    21A     -0.357409

  @DF-RHF Final Energy:  -262.73144756468992

   => Energetics <=

    Nuclear Repulsion Energy =            205.5710190728484577
    One-Electron Energy =                -762.0807099023027149
    Two-Electron Energy =                 293.7782432647643418
    Total Energy =                       -262.7314475646899155
  Basis Set: (AUG-CC-PVTZ AUX)
    Blend: AUG-CC-PVTZ-RI
    Molecular point group: c1

    Geometry (in Angstrom), charge = 0, multiplicity = 1:

       Center              X                  Y                   Z               Mass
    ------------   -----------------  -----------------  -----------------  -----------------
         C           -0.000085825315    -0.716827486279     1.165251432956    12.000000000000
         C           -0.000085825315     0.679369513721     1.165240432956    12.000000000000
         N           -0.000093825315     1.505917013721    -0.139388867044    14.003074004430
         C           -0.000085825315     0.679369513721    -1.106123567044    12.000000000000
         C           -0.000085825315    -0.716827486279    -1.106134567044    12.000000000000
         N            0.000169174685    -1.436327486279     0.029558432956    14.003074004430
         H            0.000871174685    -1.276984486279     2.098119432956     1.007825032230
         H            0.000649174685     1.239539513721     2.098112432956     1.007825032230
         H            0.000649174685     1.239539513721    -2.038995567044     1.007825032230
         H            0.000871174685    -1.276984486279    -2.039002567044     1.007825032230

  Basis Set: AUG-CC-PVTZ
    Blend: AUG-CC-PVTZ
  Basis Set: (AUG-CC-PVTZ AUX)
    Blend: AUG-CC-PVTZ-JKFIT
	 Reference Energy          =    -262.7314475646899155 [Eh]
	 Singles Energy            =      -0.0000000000000000 [Eh]
	 Same-Spin Energy          =      -0.2833930520673706 [Eh]
	 Opposite-Spin Energy      =      -0.8654932642219166 [Eh]
	 Correlation Energy        =      -1.1488863162892873 [Eh]
	 Total Energy              =    -263.8803338809792081 [Eh]

	 ================> DF-SCS-MP2 Energies <==================
	-----------------------------------------------------------
	 SCS Same-Spin Scale       =       0.3333333333333333 [-]
	 SCS Opposite-Spin Scale   =       1.2000000000000000 [-]
	 SCS Same-Spin Energy      =      -0.0944643506891235 [Eh]
	 SCS Opposite-Spin Energy  =      -1.0385919170662998 [Eh]
	 SCS Correlation Energy    =      -1.1330562677554235 [Eh]
	 SCS Total Energy          =    -263.8645038324453367 [Eh]
	-----------------------------------------------------------

  Dipole Moment: [D]
     X:     0.0014      Y:    -0.1487      Z:     0.0833     Total:     0.1704

*** Psi4 exiting successfully. Buy a developer a beer!
