                               Psi4 1.3.2 release

  ==> Input File <==

--------------------------------------------------------------------------
#psi4
#
memory 32 gb

molecule  {
0 1
  C       -0.0001220    -0.6981010     1.1356930
  C       -0.0001232     0.8207487     1.2046700
  N       -0.0001290     1.4176070     0.0000000
  C       -0.0001220     0.6980960    -1.1356820
  C       -0.0001220    -0.6981010    -1.1356930
  N        0.0001330    -1.4176010     0.0000000
  H        0.0008350    -1.2582580     2.0685610
  H        0.0006130     1.2582660     2.0685540
  H        0.0006130     1.2582660    -2.0685540
  H        0.0008350    -1.2582580    -2.0685610
units angstrom
no_reorient  #important for SAPT in psi4, default
symmetry c1  #important for SAPT in psi4, default
}

set PROPERTIES_ORIGIN ["COM"]
properties('MP2/aug-cc-pvtz', properties = ['dipole'])
--------------------------------------------------------------------------

    Molecular point group: c1
  Charge       = 0
  Multiplicity = 1
  Basis Set: AUG-CC-PVTZ
    Blend: AUG-CC-PVTZ
  Basis Set: (AUG-CC-PVTZ AUX)
    Blend: AUG-CC-PVTZ-JKFIT

    Orbital Energies [Eh]
    ---------------------

    Doubly Occupied:

       1A    -15.597060     2A    -15.596858     3A    -11.303063
       4A    -11.296498     5A    -11.287962     6A    -11.284391
       7A     -1.294469     8A     -1.215255     9A     -1.045306
      10A     -0.902602    11A     -0.884967    12A     -0.733232
      13A     -0.699486    14A     -0.691051    15A     -0.610312
      16A     -0.564642    17A     -0.564031    18A     -0.498199
      19A     -0.438173    20A     -0.400925    21A     -0.347738

  @DF-RHF Final Energy:  -262.74097906962112

   => Energetics <=

    Nuclear Repulsion Energy =            205.9470602309364153
    One-Electron Energy =                -762.8636372886925301
    Two-Electron Energy =                 294.1755979881349390
    Total Energy =                       -262.7409790696211189
  Basis Set: (AUG-CC-PVTZ AUX)
    Blend: AUG-CC-PVTZ-RI
    Molecular point group: c1

    Geometry (in Angstrom), charge = 0, multiplicity = 1:

       Center              X                  Y                   Z               Mass
    ------------   -----------------  -----------------  -----------------  -----------------
         C           -0.000085820356    -0.716490048850     1.125349641744    12.000000000000
         C           -0.000087020356     0.802359651150     1.194326641744    12.000000000000
         N           -0.000092820356     1.399217951150    -0.010343358256    14.003074004430
         C           -0.000085820356     0.679706951150    -1.146025358256    12.000000000000
         C           -0.000085820356    -0.716490048850    -1.146036358256    12.000000000000
         N            0.000169179644    -1.435990048850    -0.010343358256    14.003074004430
         H            0.000871179644    -1.276647048850     2.058217641744     1.007825032230
         H            0.000649179644     1.239876951150     2.058210641744     1.007825032230
         H            0.000649179644     1.239876951150    -2.078897358256     1.007825032230
         H            0.000871179644    -1.276647048850    -2.078904358256     1.007825032230

  Basis Set: AUG-CC-PVTZ
    Blend: AUG-CC-PVTZ
  Basis Set: (AUG-CC-PVTZ AUX)
    Blend: AUG-CC-PVTZ-JKFIT
	 Reference Energy          =    -262.7409790696211189 [Eh]
	 Singles Energy            =      -0.0000000000000000 [Eh]
	 Same-Spin Energy          =      -0.2833226351778277 [Eh]
	 Opposite-Spin Energy      =      -0.8618707407398493 [Eh]
	 Correlation Energy        =      -1.1451933759176769 [Eh]
	 Total Energy              =    -263.8861724455388185 [Eh]

	 ================> DF-SCS-MP2 Energies <==================
	-----------------------------------------------------------
	 SCS Same-Spin Scale       =       0.3333333333333333 [-]
	 SCS Opposite-Spin Scale   =       1.2000000000000000 [-]
	 SCS Same-Spin Energy      =      -0.0944408783926092 [Eh]
	 SCS Opposite-Spin Energy  =      -1.0342448888878191 [Eh]
	 SCS Correlation Energy    =      -1.1286857672804282 [Eh]
	 SCS Total Energy          =    -263.8696648369015634 [Eh]
	-----------------------------------------------------------

  Dipole Moment: [D]
     X:     0.0014      Y:     0.0896      Z:     0.2186     Total:     0.2362

*** Psi4 exiting successfully. Buy a developer a beer!
