                               Psi4 1.3.2 release

  ==> Input File <==

--------------------------------------------------------------------------
#psi4
#
memory 32 gb

molecule  {
0 1
  C       -0.0001220    -0.6981010     1.1356930
  C       -0.0001209     0.5833265     1.0542512
  N       -0.0001290     1.4176070     0.0000000
  C       -0.0001220     0.6980960    -1.1356820
  C       -0.0001220    -0.6981010    -1.1356930
  N        0.0001330    -1.4176010     0.0000000
  H        0.0008350    -1.2582580     2.0685610
  H        0.0006130     1.2582660     2.0685540
  H        0.0006130     1.2582660    -2.0685540
  H        0.0008350    -1.2582580    -2.0685610
units angstrom
no_reorient  #important for SAPT in psi4, default
symmetry c1  #important for SAPT in psi4, default
}

set PROPERTIES_ORIGIN ["COM"]
properties('MP2/aug-cc-pvtz', properties = ['dipole'])
--------------------------------------------------------------------------

    Molecular point group: c1
  Charge       = 0
  Multiplicity = 1
  Basis Set: AUG-CC-PVTZ
    Blend: AUG-CC-PVTZ
  Basis Set: (AUG-CC-PVTZ AUX)
    Blend: AUG-CC-PVTZ-JKFIT

    Orbital Energies [Eh]
    ---------------------

    Doubly Occupied:

       1A    -15.602953     2A    -15.600655     3A    -11.293579
       4A    -11.289569     5A    -11.281923     6A    -11.272329
       7A     -1.316877     8A     -1.221302     9A     -1.065773
      10A     -0.921442    11A     -0.878392    12A     -0.731813
      13A     -0.712481    14A     -0.662136    15A     -0.607627
      16A     -0.585110    17A     -0.518552    18A     -0.507417
      19A     -0.434185    20A     -0.424866    21A     -0.375234

  @DF-RHF Final Energy:  -262.74146660282861

   => Energetics <=

    Nuclear Repulsion Energy =            210.0922721690244543
    One-Electron Energy =                -771.0590459941383870
    Two-Electron Energy =                 298.2253072222853234
    Total Energy =                       -262.7414666028286092
  Basis Set: (AUG-CC-PVTZ AUX)
    Blend: AUG-CC-PVTZ-RI
    Molecular point group: c1

    Geometry (in Angstrom), charge = 0, multiplicity = 1:

       Center              X                  Y                   Z               Mass
    ------------   -----------------  -----------------  -----------------  -----------------
         C           -0.000086165194    -0.680893381711     1.147901904991    12.000000000000
         C           -0.000085065194     0.600534118289     1.066460104991    12.000000000000
         N           -0.000093165194     1.434814618289     0.012208904991    14.003074004430
         C           -0.000086165194     0.715303618289    -1.123473095009    12.000000000000
         C           -0.000086165194    -0.680893381711    -1.123484095009    12.000000000000
         N            0.000168834806    -1.400393381711     0.012208904991    14.003074004430
         H            0.000870834806    -1.241050381711     2.080769904991     1.007825032230
         H            0.000648834806     1.275473618289     2.080762904991     1.007825032230
         H            0.000648834806     1.275473618289    -2.056345095009     1.007825032230
         H            0.000870834806    -1.241050381711    -2.056352095009     1.007825032230

  Basis Set: AUG-CC-PVTZ
    Blend: AUG-CC-PVTZ
  Basis Set: (AUG-CC-PVTZ AUX)
    Blend: AUG-CC-PVTZ-JKFIT
	 Reference Energy          =    -262.7414666028286092 [Eh]
	 Singles Energy            =      -0.0000000000000000 [Eh]
	 Same-Spin Energy          =      -0.2839319200873583 [Eh]
	 Opposite-Spin Energy      =      -0.8613091036743354 [Eh]
	 Correlation Energy        =      -1.1452410237616937 [Eh]
	 Total Energy              =    -263.8867076265902938 [Eh]

	 ================> DF-SCS-MP2 Energies <==================
	-----------------------------------------------------------
	 SCS Same-Spin Scale       =       0.3333333333333333 [-]
	 SCS Opposite-Spin Scale   =       1.2000000000000000 [-]
	 SCS Same-Spin Energy      =      -0.0946439733624528 [Eh]
	 SCS Opposite-Spin Energy  =      -1.0335709244092024 [Eh]
	 SCS Correlation Energy    =      -1.1282148977716551 [Eh]
	 SCS Total Energy          =    -263.8696815006002794 [Eh]
	-----------------------------------------------------------

  Dipole Moment: [D]
     X:     0.0012      Y:    -0.1093      Z:    -0.3302     Total:     0.3479

*** Psi4 exiting successfully. Buy a developer a beer!
