                               Psi4 1.3.2 release

  ==> Input File <==

--------------------------------------------------------------------------
#psi4
#
memory 32 gb

molecule  {
0 1
  C       -0.0001220    -0.6981010     1.1356930
  C       -0.0001218     0.6783852     1.1229518
  N       -0.0001290     1.4176070     0.0000000
  C       -0.0001220     0.6980960    -1.1356820
  C       -0.0001220    -0.6981010    -1.1356930
  N        0.0001330    -1.4176010     0.0000000
  H        0.0008350    -1.2582580     2.0685610
  H        0.0006130     1.2582660     2.0685540
  H        0.0006130     1.2582660    -2.0685540
  H        0.0008350    -1.2582580    -2.0685610
units angstrom
no_reorient  #important for SAPT in psi4, default
symmetry c1  #important for SAPT in psi4, default
}

set PROPERTIES_ORIGIN ["COM"]
properties('MP2/aug-cc-pvtz', properties = ['dipole'])
--------------------------------------------------------------------------

    Molecular point group: c1
  Charge       = 0
  Multiplicity = 1
  Basis Set: AUG-CC-PVTZ
    Blend: AUG-CC-PVTZ
  Basis Set: (AUG-CC-PVTZ AUX)
    Blend: AUG-CC-PVTZ-JKFIT

    Orbital Energies [Eh]
    ---------------------

    Doubly Occupied:

       1A    -15.599123     2A    -15.598858     3A    -11.289411
       4A    -11.288060     5A    -11.287292     6A    -11.285338
       7A     -1.305921     8A     -1.217705     9A     -1.054835
      10A     -0.906214    11A     -0.885452    12A     -0.726541
      13A     -0.704438    14A     -0.674243    15A     -0.610103
      16A     -0.574914    17A     -0.546111    18A     -0.503084
      19A     -0.434800    20A     -0.418424    21A     -0.362465

  @DF-RHF Final Energy:  -262.76802076065127

   => Energetics <=

    Nuclear Repulsion Energy =            208.2351271334375724
    One-Electron Energy =                -767.4596300336394279
    Two-Electron Energy =                 296.4564821395505874
    Total Energy =                       -262.7680207606512681
  Basis Set: (AUG-CC-PVTZ AUX)
    Blend: AUG-CC-PVTZ-RI
    Molecular point group: c1

    Geometry (in Angstrom), charge = 0, multiplicity = 1:

       Center              X                  Y                   Z               Mass
    ------------   -----------------  -----------------  -----------------  -----------------
         C           -0.000086030257    -0.695145515263     1.137601636564    12.000000000000
         C           -0.000085830257     0.681340684737     1.124860436564    12.000000000000
         N           -0.000093030257     1.420562484737     0.001908636564    14.003074004430
         C           -0.000086030257     0.701051484737    -1.133773363436    12.000000000000
         C           -0.000086030257    -0.695145515263    -1.133784363436    12.000000000000
         N            0.000168969743    -1.414645515263     0.001908636564    14.003074004430
         H            0.000870969743    -1.255302515263     2.070469636564     1.007825032230
         H            0.000648969743     1.261221484737     2.070462636564     1.007825032230
         H            0.000648969743     1.261221484737    -2.066645363436     1.007825032230
         H            0.000870969743    -1.255302515263    -2.066652363436     1.007825032230

  Basis Set: AUG-CC-PVTZ
    Blend: AUG-CC-PVTZ
  Basis Set: (AUG-CC-PVTZ AUX)
    Blend: AUG-CC-PVTZ-JKFIT
	 Reference Energy          =    -262.7680207606512681 [Eh]
	 Singles Energy            =      -0.0000000000000000 [Eh]
	 Same-Spin Energy          =      -0.2833871519169989 [Eh]
	 Opposite-Spin Energy      =      -0.8601474795888636 [Eh]
	 Correlation Energy        =      -1.1435346315058625 [Eh]
	 Total Energy              =    -263.9115553921571404 [Eh]

	 ================> DF-SCS-MP2 Energies <==================
	-----------------------------------------------------------
	 SCS Same-Spin Scale       =       0.3333333333333333 [-]
	 SCS Opposite-Spin Scale   =       1.2000000000000000 [-]
	 SCS Same-Spin Energy      =      -0.0944623839723330 [Eh]
	 SCS Opposite-Spin Energy  =      -1.0321769755066363 [Eh]
	 SCS Correlation Energy    =      -1.1266393594789692 [Eh]
	 SCS Total Energy          =    -263.8946601201302542 [Eh]
	-----------------------------------------------------------

  Dipole Moment: [D]
     X:     0.0013      Y:    -0.0157      Z:    -0.0466     Total:     0.0492

*** Psi4 exiting successfully. Buy a developer a beer!
