                               Psi4 1.3.2 release

  ==> Input File <==

--------------------------------------------------------------------------
#psi4
#
memory 32 gb

molecule  {
0 1
  C       -0.0001220    -0.6981010     1.1356930
  C       -0.0001220     0.6980960     1.1356820
  N       -0.0001295     1.4711253    -0.0844736
  C       -0.0001220     0.6980960    -1.1356820
  C       -0.0001220    -0.6981010    -1.1356930
  N        0.0001330    -1.4176010     0.0000000
  H        0.0008350    -1.2582580     2.0685610
  H        0.0006130     1.2582660     2.0685540
  H        0.0006130     1.2582660    -2.0685540
  H        0.0008350    -1.2582580    -2.0685610
units angstrom
no_reorient  #important for SAPT in psi4, default
symmetry c1  #important for SAPT in psi4, default
}

set PROPERTIES_ORIGIN ["COM"]
properties('MP2/aug-cc-pvtz', properties = ['dipole'])
--------------------------------------------------------------------------

    Molecular point group: c1
  Charge       = 0
  Multiplicity = 1
  Basis Set: AUG-CC-PVTZ
    Blend: AUG-CC-PVTZ
  Basis Set: (AUG-CC-PVTZ AUX)
    Blend: AUG-CC-PVTZ-JKFIT

    Orbital Energies [Eh]
    ---------------------

    Doubly Occupied:

       1A    -15.606645     2A    -15.600447     3A    -11.296613
       4A    -11.292005     5A    -11.287516     6A    -11.285664
       7A     -1.299078     8A     -1.215782     9A     -1.049240
      10A     -0.910100    11A     -0.877098    12A     -0.725886
      13A     -0.696658    14A     -0.676938    15A     -0.609249
      16A     -0.569934    17A     -0.545721    18A     -0.504090
      19A     -0.434779    20A     -0.422077    21A     -0.359396

  @DF-RHF Final Energy:  -262.75636826310813

   => Energetics <=

    Nuclear Repulsion Energy =            206.6777101822759164
    One-Electron Energy =                -764.3383270501748257
    Two-Electron Energy =                 294.9042486047907232
    Total Energy =                       -262.7563682631081292
  Basis Set: (AUG-CC-PVTZ AUX)
    Blend: AUG-CC-PVTZ-RI
    Molecular point group: c1

    Geometry (in Angstrom), charge = 0, multiplicity = 1:

       Center              X                  Y                   Z               Mass
    ------------   -----------------  -----------------  -----------------  -----------------
         C           -0.000085912793    -0.707464127843     1.150472207730    12.000000000000
         C           -0.000085912793     0.688732872157     1.150461207730    12.000000000000
         N           -0.000093412793     1.461762172157    -0.069694392270    14.003074004430
         C           -0.000085912793     0.688732872157    -1.120902792270    12.000000000000
         C           -0.000085912793    -0.707464127843    -1.120913792270    12.000000000000
         N            0.000169087207    -1.426964127843     0.014779207730    14.003074004430
         H            0.000871087207    -1.267621127843     2.083340207730     1.007825032230
         H            0.000649087207     1.248902872157     2.083333207730     1.007825032230
         H            0.000649087207     1.248902872157    -2.053774792270     1.007825032230
         H            0.000871087207    -1.267621127843    -2.053781792270     1.007825032230

  Basis Set: AUG-CC-PVTZ
    Blend: AUG-CC-PVTZ
  Basis Set: (AUG-CC-PVTZ AUX)
    Blend: AUG-CC-PVTZ-JKFIT
	 Reference Energy          =    -262.7563682631081292 [Eh]
	 Singles Energy            =      -0.0000000000000000 [Eh]
	 Same-Spin Energy          =      -0.2835569506313343 [Eh]
	 Opposite-Spin Energy      =      -0.8625037809414455 [Eh]
	 Correlation Energy        =      -1.1460607315727798 [Eh]
	 Total Energy              =    -263.9024289946809176 [Eh]

	 ================> DF-SCS-MP2 Energies <==================
	-----------------------------------------------------------
	 SCS Same-Spin Scale       =       0.3333333333333333 [-]
	 SCS Opposite-Spin Scale   =       1.2000000000000000 [-]
	 SCS Same-Spin Energy      =      -0.0945189835437781 [Eh]
	 SCS Opposite-Spin Energy  =      -1.0350045371297345 [Eh]
	 SCS Correlation Energy    =      -1.1295235206735126 [Eh]
	 SCS Total Energy          =    -263.8858917837816307 [Eh]
	-----------------------------------------------------------

  Dipole Moment: [D]
     X:     0.0014      Y:    -0.0833      Z:     0.0580     Total:     0.1015

*** Psi4 exiting successfully. Buy a developer a beer!
