                               Psi4 1.4a3.dev225

  ==> Input File <==

--------------------------------------------------------------------------
#psi4
#
memory 32 gb

molecule  {
0 1
  C        0.0000000    -0.6978810     1.1359140
  C        0.0000000     0.6978810     1.1359140
  N        0.0000000     1.4441719    -0.0422389
  C        0.0000000     0.6978810    -1.1359140
  C        0.0000000    -0.6978810    -1.1359140
  N        0.0000010    -1.4174160     0.0000000
  H       -0.0000020    -1.2582750     2.0684350
  H       -0.0000020     1.2582750     2.0684350
  H       -0.0000020     1.2582750    -2.0684350
  H       -0.0000020    -1.2582750    -2.0684350
units angstrom
no_reorient  #important for SAPT in psi4, default
symmetry c1  #important for SAPT in psi4, default
}

set PROPERTIES_ORIGIN ["COM"]
properties('MP2/aug-cc-pvtz', properties = ['dipole'])
--------------------------------------------------------------------------

    Molecular point group: c1
  Charge       = 0
  Multiplicity = 1
  Basis Set: AUG-CC-PVTZ
    Blend: AUG-CC-PVTZ
  Basis Set: (AUG-CC-PVTZ AUX)
    Blend: AUG-CC-PVTZ-JKFIT

    Orbital Energies [Eh]
    ---------------------

    Doubly Occupied:

       1A    -15.602972     2A    -15.599561     3A    -11.292823
       4A    -11.290128     5A    -11.287718     6A    -11.286859
       7A     -1.300958     8A     -1.215572     9A     -1.051523
      10A     -0.906309    11A     -0.882775    12A     -0.725651
      13A     -0.700033    14A     -0.677481    15A     -0.609921
      16A     -0.571267    17A     -0.547457    18A     -0.503893
      19A     -0.434026    20A     -0.419808    21A     -0.360094

  @DF-RHF Final Energy:  -262.76448337595099

   => Energetics <=

    Nuclear Repulsion Energy =            207.2683692910053992
    One-Electron Energy =                -765.5320505221752683
    Two-Electron Energy =                 295.4991978552188243
    Total Energy =                       -262.7644833759509879
  Basis Set: (AUG-CC-PVTZ AUX)
    Blend: AUG-CC-PVTZ-RI
    Molecular point group: c1

    Geometry (in Angstrom), charge = 0, multiplicity = 1:

       Center              X                  Y                   Z               Mass
    ------------   -----------------  -----------------  -----------------  -----------------
         C           -0.000000074221    -0.702562119357     1.143303971274    12.000000000000
         C           -0.000000074221     0.693199880643     1.143303971274    12.000000000000
         N           -0.000000074221     1.439490780643    -0.034848928726    14.003074004430
         C           -0.000000074221     0.693199880643    -1.128524028726    12.000000000000
         C           -0.000000074221    -0.702562119357    -1.128524028726    12.000000000000
         N            0.000000925779    -1.422097119357     0.007389971274    14.003074004430
         H           -0.000002074221    -1.262956119357     2.075824971274     1.007825032230
         H           -0.000002074221     1.253593880643     2.075824971274     1.007825032230
         H           -0.000002074221     1.253593880643    -2.061045028726     1.007825032230
         H           -0.000002074221    -1.262956119357    -2.061045028726     1.007825032230

  Basis Set: AUG-CC-PVTZ
    Blend: AUG-CC-PVTZ
  Basis Set: (AUG-CC-PVTZ AUX)
    Blend: AUG-CC-PVTZ-JKFIT
	 Reference Energy          =    -262.7644833759509879 [Eh]
	 Singles Energy            =      -0.0000000000000000 [Eh]
	 Same-Spin Energy          =      -0.2835341169412025 [Eh]
	 Opposite-Spin Energy      =      -0.8612652034471439 [Eh]
	 Correlation Energy        =      -1.1447993203883464 [Eh]
	 Total Energy              =    -263.9092826963393463 [Eh]

	 ================> DF-SCS-MP2 Energies <==================
	-----------------------------------------------------------
	 SCS Same-Spin Scale       =       0.3333333333333333 [-]
	 SCS Opposite-Spin Scale   =       1.2000000000000000 [-]
	 SCS Same-Spin Energy      =      -0.0945113723137341 [Eh]
	 SCS Opposite-Spin Energy  =      -1.0335182441365727 [Eh]
	 SCS Correlation Energy    =      -1.1280296164503067 [Eh]
	 SCS Total Energy          =    -263.8925129924012936 [Eh]
	-----------------------------------------------------------

  Dipole Moment: [D]
     X:    -0.0000      Y:    -0.0440      Z:     0.0333     Total:     0.0552

*** Psi4 exiting successfully. Buy a developer a beer!
