                               Psi4 1.3.2 release

  ==> Input File <==

--------------------------------------------------------------------------
#psi4
#
memory 32 gb

molecule  {
0 1
  C       -0.0001220    -0.6981010     1.1356930
  C       -0.0001220     0.6980960     1.1356820
  N       -0.0001280     1.3105705     0.1689473
  C       -0.0001220     0.6980960    -1.1356820
  C       -0.0001220    -0.6981010    -1.1356930
  N        0.0001330    -1.4176010     0.0000000
  H        0.0008350    -1.2582580     2.0685610
  H        0.0006130     1.2582660     2.0685540
  H        0.0006130     1.2582660    -2.0685540
  H        0.0008350    -1.2582580    -2.0685610
units angstrom
no_reorient  #important for SAPT in psi4, default
symmetry c1  #important for SAPT in psi4, default
}

set PROPERTIES_ORIGIN ["COM"]
properties('MP2/aug-cc-pvtz', properties = ['dipole'])
--------------------------------------------------------------------------

    Molecular point group: c1
  Charge       = 0
  Multiplicity = 1
  Basis Set: AUG-CC-PVTZ
    Blend: AUG-CC-PVTZ
  Basis Set: (AUG-CC-PVTZ AUX)
    Blend: AUG-CC-PVTZ-JKFIT

    Orbital Energies [Eh]
    ---------------------

    Doubly Occupied:

       1A    -15.594040     2A    -15.572156     3A    -11.292649
       4A    -11.290636     5A    -11.283670     6A    -11.262031
       7A     -1.335493     8A     -1.235304     9A     -1.050769
      10A     -0.916599    11A     -0.871238    12A     -0.737862
      13A     -0.703567    14A     -0.677827    15A     -0.618960
      16A     -0.590455    17A     -0.561409    18A     -0.488206
      19A     -0.455863    20A     -0.391958    21A     -0.356375

  @DF-RHF Final Energy:  -262.72011377294677

   => Energetics <=

    Nuclear Repulsion Energy =            210.8316931946051511
    One-Electron Energy =                -772.5294834552739758
    Two-Electron Energy =                 298.9776764877220785
    Total Energy =                       -262.7201137729467746
  Basis Set: (AUG-CC-PVTZ AUX)
    Blend: AUG-CC-PVTZ-RI
    Molecular point group: c1

    Geometry (in Angstrom), charge = 0, multiplicity = 1:

       Center              X                  Y                   Z               Mass
    ------------   -----------------  -----------------  -----------------  -----------------
         C           -0.000086175228    -0.679374017545     1.106134567044    12.000000000000
         C           -0.000086175228     0.716822982455     1.106123567044    12.000000000000
         N           -0.000092175228     1.329297482455     0.139388867044    14.003074004430
         C           -0.000086175228     0.716822982455    -1.165240432956    12.000000000000
         C           -0.000086175228    -0.679374017545    -1.165251432956    12.000000000000
         N            0.000168824772    -1.398874017545    -0.029558432956    14.003074004430
         H            0.000870824772    -1.239531017545     2.039002567044     1.007825032230
         H            0.000648824772     1.276992982455     2.038995567044     1.007825032230
         H            0.000648824772     1.276992982455    -2.098112432956     1.007825032230
         H            0.000870824772    -1.239531017545    -2.098119432956     1.007825032230

  Basis Set: AUG-CC-PVTZ
    Blend: AUG-CC-PVTZ
  Basis Set: (AUG-CC-PVTZ AUX)
    Blend: AUG-CC-PVTZ-JKFIT
	 Reference Energy          =    -262.7201137729467746 [Eh]
	 Singles Energy            =      -0.0000000000000000 [Eh]
	 Same-Spin Energy          =      -0.2805340522557335 [Eh]
	 Opposite-Spin Energy      =      -0.8570641918819444 [Eh]
	 Correlation Energy        =      -1.1375982441376777 [Eh]
	 Total Energy              =    -263.8577120170844523 [Eh]

	 ================> DF-SCS-MP2 Energies <==================
	-----------------------------------------------------------
	 SCS Same-Spin Scale       =       0.3333333333333333 [-]
	 SCS Opposite-Spin Scale   =       1.2000000000000000 [-]
	 SCS Same-Spin Energy      =      -0.0935113507519112 [Eh]
	 SCS Opposite-Spin Energy  =      -1.0284770302583333 [Eh]
	 SCS Correlation Energy    =      -1.1219883810102445 [Eh]
	 SCS Total Energy          =    -263.8421021539570006 [Eh]
	-----------------------------------------------------------

  Dipole Moment: [D]
     X:     0.0012      Y:     0.2202      Z:    -0.2333     Total:     0.3208

*** Psi4 exiting successfully. Buy a developer a beer!
