                               Psi4 1.3.2 release

  ==> Input File <==

--------------------------------------------------------------------------
#psi4
#
memory 32 gb

molecule  {
0 1
  C       -0.0001220    -0.6981010     1.1356930
  C       -0.0001212     0.6206275     1.0827250
  N       -0.0001290     1.4176070     0.0000000
  C       -0.0001220     0.6980960    -1.1356820
  C       -0.0001220    -0.6981010    -1.1356930
  N        0.0001330    -1.4176010     0.0000000
  H        0.0008350    -1.2582580     2.0685610
  H        0.0006130     1.2582660     2.0685540
  H        0.0006130     1.2582660    -2.0685540
  H        0.0008350    -1.2582580    -2.0685610
units angstrom
no_reorient  #important for SAPT in psi4, default
symmetry c1  #important for SAPT in psi4, default
}

set PROPERTIES_ORIGIN ["COM"]
properties('MP2/aug-cc-pvtz', properties = ['dipole'])
--------------------------------------------------------------------------

    Molecular point group: c1
  Charge       = 0
  Multiplicity = 1
  Basis Set: AUG-CC-PVTZ
    Blend: AUG-CC-PVTZ
  Basis Set: (AUG-CC-PVTZ AUX)
    Blend: AUG-CC-PVTZ-JKFIT

    Orbital Energies [Eh]
    ---------------------

    Doubly Occupied:

       1A    -15.601187     2A    -15.599828     3A    -11.291710
       4A    -11.288943     5A    -11.283771     6A    -11.277458
       7A     -1.312163     8A     -1.219570     9A     -1.061039
      10A     -0.915325    11A     -0.881032    12A     -0.729283
      13A     -0.709357    14A     -0.665844    15A     -0.608425
      16A     -0.580688    17A     -0.530387    18A     -0.505916
      19A     -0.434191    20A     -0.423185    21A     -0.369950

  @DF-RHF Final Energy:  -262.75665452037407

   => Energetics <=

    Nuclear Repulsion Energy =            209.3293678917180785
    One-Electron Energy =                -769.5935409489618451
    Two-Electron Energy =                 297.5075185368696680
    Total Energy =                       -262.7566545203740702
  Basis Set: (AUG-CC-PVTZ AUX)
    Blend: AUG-CC-PVTZ-RI
    Molecular point group: c1

    Geometry (in Angstrom), charge = 0, multiplicity = 1:

       Center              X                  Y                   Z               Mass
    ------------   -----------------  -----------------  -----------------  -----------------
         C           -0.000086120215    -0.686485913837     1.143632833350    12.000000000000
         C           -0.000085320215     0.632242586163     1.090664833350    12.000000000000
         N           -0.000093120215     1.429222086163     0.007939833350    14.003074004430
         C           -0.000086120215     0.709711086163    -1.127742166650    12.000000000000
         C           -0.000086120215    -0.686485913837    -1.127753166650    12.000000000000
         N            0.000168879785    -1.405985913837     0.007939833350    14.003074004430
         H            0.000870879785    -1.246642913837     2.076500833350     1.007825032230
         H            0.000648879785     1.269881086163     2.076493833350     1.007825032230
         H            0.000648879785     1.269881086163    -2.060614166650     1.007825032230
         H            0.000870879785    -1.246642913837    -2.060621166650     1.007825032230

  Basis Set: AUG-CC-PVTZ
    Blend: AUG-CC-PVTZ
  Basis Set: (AUG-CC-PVTZ AUX)
    Blend: AUG-CC-PVTZ-JKFIT
	 Reference Energy          =    -262.7566545203740702 [Eh]
	 Singles Energy            =      -0.0000000000000000 [Eh]
	 Same-Spin Energy          =      -0.2836592704038058 [Eh]
	 Opposite-Spin Energy      =      -0.8606098491299805 [Eh]
	 Correlation Energy        =      -1.1442691195337864 [Eh]
	 Total Energy              =    -263.9009236399078304 [Eh]

	 ================> DF-SCS-MP2 Energies <==================
	-----------------------------------------------------------
	 SCS Same-Spin Scale       =       0.3333333333333333 [-]
	 SCS Opposite-Spin Scale   =       1.2000000000000000 [-]
	 SCS Same-Spin Energy      =      -0.0945530901346019 [Eh]
	 SCS Opposite-Spin Energy  =      -1.0327318189559767 [Eh]
	 SCS Correlation Energy    =      -1.1272849090905785 [Eh]
	 SCS Total Energy          =    -263.8839394294646468 [Eh]
	-----------------------------------------------------------

  Dipole Moment: [D]
     X:     0.0013      Y:    -0.0680      Z:    -0.2060     Total:     0.2169

*** Psi4 exiting successfully. Buy a developer a beer!
