                               Psi4 1.3.2 release

  ==> Input File <==

--------------------------------------------------------------------------
#psi4
#
memory 32 gb

molecule  {
0 1
  C       -0.0001220    -0.6981010     1.1356930
  C       -0.0001228     0.7790699     1.1831061
  N       -0.0001290     1.4176070     0.0000000
  C       -0.0001220     0.6980960    -1.1356820
  C       -0.0001220    -0.6981010    -1.1356930
  N        0.0001330    -1.4176010     0.0000000
  H        0.0008350    -1.2582580     2.0685610
  H        0.0006130     1.2582660     2.0685540
  H        0.0006130     1.2582660    -2.0685540
  H        0.0008350    -1.2582580    -2.0685610
units angstrom
no_reorient  #important for SAPT in psi4, default
symmetry c1  #important for SAPT in psi4, default
}

set PROPERTIES_ORIGIN ["COM"]
properties('MP2/aug-cc-pvtz', properties = ['dipole'])
--------------------------------------------------------------------------

    Molecular point group: c1
  Charge       = 0
  Multiplicity = 1
  Basis Set: AUG-CC-PVTZ
    Blend: AUG-CC-PVTZ
  Basis Set: (AUG-CC-PVTZ AUX)
    Blend: AUG-CC-PVTZ-JKFIT

    Orbital Energies [Eh]
    ---------------------

    Doubly Occupied:

       1A    -15.597574     2A    -15.597135     3A    -11.298508
       4A    -11.293587     5A    -11.288038     6A    -11.285457
       7A     -1.297356     8A     -1.215789     9A     -1.047305
      10A     -0.898916    11A     -0.888381    12A     -0.728103
      13A     -0.696596    14A     -0.692078    15A     -0.611269
      16A     -0.567185    17A     -0.561235    18A     -0.499348
      19A     -0.436994    20A     -0.406658    21A     -0.351518

  @DF-RHF Final Energy:  -262.75629837166855

   => Energetics <=

    Nuclear Repulsion Energy =            206.5615271641156312
    One-Electron Energy =                -764.1175927211656926
    Two-Electron Energy =                 294.7997671853814836
    Total Energy =                       -262.7562983716685494
  Basis Set: (AUG-CC-PVTZ AUX)
    Blend: AUG-CC-PVTZ-RI
    Molecular point group: c1

    Geometry (in Angstrom), charge = 0, multiplicity = 1:

       Center              X                  Y                   Z               Mass
    ------------   -----------------  -----------------  -----------------  -----------------
         C           -0.000085880328    -0.710241153969     1.128582713337    12.000000000000
         C           -0.000086680328     0.766929746031     1.175995813337    12.000000000000
         N           -0.000092880328     1.405466846031    -0.007110286663    14.003074004430
         C           -0.000085880328     0.685955846031    -1.142792286663    12.000000000000
         C           -0.000085880328    -0.710241153969    -1.142803286663    12.000000000000
         N            0.000169119672    -1.429741153969    -0.007110286663    14.003074004430
         H            0.000871119672    -1.270398153969     2.061450713337     1.007825032230
         H            0.000649119672     1.246125846031     2.061443713337     1.007825032230
         H            0.000649119672     1.246125846031    -2.075664286663     1.007825032230
         H            0.000871119672    -1.270398153969    -2.075671286663     1.007825032230

  Basis Set: AUG-CC-PVTZ
    Blend: AUG-CC-PVTZ
  Basis Set: (AUG-CC-PVTZ AUX)
    Blend: AUG-CC-PVTZ-JKFIT
	 Reference Energy          =    -262.7562983716685494 [Eh]
	 Singles Energy            =      -0.0000000000000000 [Eh]
	 Same-Spin Energy          =      -0.2832596770013176 [Eh]
	 Opposite-Spin Energy      =      -0.8609890596006080 [Eh]
	 Correlation Energy        =      -1.1442487366019256 [Eh]
	 Total Energy              =    -263.9005471082704730 [Eh]

	 ================> DF-SCS-MP2 Energies <==================
	-----------------------------------------------------------
	 SCS Same-Spin Scale       =       0.3333333333333333 [-]
	 SCS Opposite-Spin Scale   =       1.2000000000000000 [-]
	 SCS Same-Spin Energy      =      -0.0944198923337725 [Eh]
	 SCS Opposite-Spin Energy  =      -1.0331868715207295 [Eh]
	 SCS Correlation Energy    =      -1.1276067638545020 [Eh]
	 SCS Total Energy          =    -263.8839051355230367 [Eh]
	-----------------------------------------------------------

  Dipole Moment: [D]
     X:     0.0014      Y:     0.0594      Z:     0.1567     Total:     0.1675

*** Psi4 exiting successfully. Buy a developer a beer!
