                               Psi4 1.4a3.dev225

  ==> Input File <==

--------------------------------------------------------------------------
#psi4
#
memory 32 gb

molecule  {
0 1
  C        0.0000000    -0.6978810     1.1359140
  C        0.0000000     0.6978810     1.1359140
  N        0.0000000     1.3906601     0.0422389
  C        0.0000000     0.6978810    -1.1359140
  C        0.0000000    -0.6978810    -1.1359140
  N        0.0000010    -1.4174160     0.0000000
  H       -0.0000020    -1.2582750     2.0684350
  H       -0.0000020     1.2582750     2.0684350
  H       -0.0000020     1.2582750    -2.0684350
  H       -0.0000020    -1.2582750    -2.0684350
units angstrom
no_reorient  #important for SAPT in psi4, default
symmetry c1  #important for SAPT in psi4, default
}

set PROPERTIES_ORIGIN ["COM"]
properties('MP2/aug-cc-pvtz', properties = ['dipole'])
--------------------------------------------------------------------------

    Molecular point group: c1
  Charge       = 0
  Multiplicity = 1
  Basis Set: AUG-CC-PVTZ
    Blend: AUG-CC-PVTZ
  Basis Set: (AUG-CC-PVTZ AUX)
    Blend: AUG-CC-PVTZ-JKFIT

    Orbital Energies [Eh]
    ---------------------

    Doubly Occupied:

       1A    -15.597562     2A    -15.593384     3A    -11.289509
       4A    -11.288829     5A    -11.286480     6A    -11.282810
       7A     -1.308375     8A     -1.220106     9A     -1.054029
      10A     -0.904005    11A     -0.887051    12A     -0.727486
      13A     -0.704360    14A     -0.678050    15A     -0.612072
      16A     -0.575740    17A     -0.553320    18A     -0.499242
      19A     -0.437747    20A     -0.412088    21A     -0.359851

  @DF-RHF Final Energy:  -262.76805783915268

   => Energetics <=

    Nuclear Repulsion Energy =            208.5455162158966118
    One-Electron Energy =                -768.0829547775304036
    Two-Electron Energy =                 296.7693807224810598
    Total Energy =                       -262.7680578391526751
  Basis Set: (AUG-CC-PVTZ AUX)
    Blend: AUG-CC-PVTZ-RI
    Molecular point group: c1

    Geometry (in Angstrom), charge = 0, multiplicity = 1:

       Center              X                  Y                   Z               Mass
    ------------   -----------------  -----------------  -----------------  -----------------
         C           -0.000000074221    -0.693199880643     1.128524028726    12.000000000000
         C           -0.000000074221     0.702562119357     1.128524028726    12.000000000000
         N           -0.000000074221     1.395341219357     0.034848928726    14.003074004430
         C           -0.000000074221     0.702562119357    -1.143303971274    12.000000000000
         C           -0.000000074221    -0.693199880643    -1.143303971274    12.000000000000
         N            0.000000925779    -1.412734880643    -0.007389971274    14.003074004430
         H           -0.000002074221    -1.253593880643     2.061045028726     1.007825032230
         H           -0.000002074221     1.262956119357     2.061045028726     1.007825032230
         H           -0.000002074221     1.262956119357    -2.075824971274     1.007825032230
         H           -0.000002074221    -1.253593880643    -2.075824971274     1.007825032230

  Basis Set: AUG-CC-PVTZ
    Blend: AUG-CC-PVTZ
  Basis Set: (AUG-CC-PVTZ AUX)
    Blend: AUG-CC-PVTZ-JKFIT
	 Reference Energy          =    -262.7680578391526751 [Eh]
	 Singles Energy            =      -0.0000000000000000 [Eh]
	 Same-Spin Energy          =      -0.2829154206452861 [Eh]
	 Opposite-Spin Energy      =      -0.8591973039384309 [Eh]
	 Correlation Energy        =      -1.1421127245837170 [Eh]
	 Total Energy              =    -263.9101705637364148 [Eh]

	 ================> DF-SCS-MP2 Energies <==================
	-----------------------------------------------------------
	 SCS Same-Spin Scale       =       0.3333333333333333 [-]
	 SCS Opposite-Spin Scale   =       1.2000000000000000 [-]
	 SCS Same-Spin Energy      =      -0.0943051402150954 [Eh]
	 SCS Opposite-Spin Energy  =      -1.0310367647261169 [Eh]
	 SCS Correlation Energy    =      -1.1253419049412123 [Eh]
	 SCS Total Energy          =    -263.8933997440938697 [Eh]
	-----------------------------------------------------------

  Dipole Moment: [D]
     X:    -0.0000      Y:     0.0487      Z:    -0.0423     Total:     0.0645

*** Psi4 exiting successfully. Buy a developer a beer!
