                               Psi4 1.3.2 release

  ==> Input File <==

--------------------------------------------------------------------------
#psi4
#
memory 32 gb

molecule  {
0 1
  C       -0.0001220    -0.6981010     1.1356930
  C       -0.0001220     0.6980960     1.1356820
  N       -0.0001285     1.3640887     0.0844736
  C       -0.0001220     0.6980960    -1.1356820
  C       -0.0001220    -0.6981010    -1.1356930
  N        0.0001330    -1.4176010     0.0000000
  H        0.0008350    -1.2582580     2.0685610
  H        0.0006130     1.2582660     2.0685540
  H        0.0006130     1.2582660    -2.0685540
  H        0.0008350    -1.2582580    -2.0685610
units angstrom
no_reorient  #important for SAPT in psi4, default
symmetry c1  #important for SAPT in psi4, default
}

set PROPERTIES_ORIGIN ["COM"]
properties('MP2/aug-cc-pvtz', properties = ['dipole'])
--------------------------------------------------------------------------

    Molecular point group: c1
  Charge       = 0
  Multiplicity = 1
  Basis Set: AUG-CC-PVTZ
    Blend: AUG-CC-PVTZ
  Basis Set: (AUG-CC-PVTZ AUX)
    Blend: AUG-CC-PVTZ-JKFIT

    Orbital Energies [Eh]
    ---------------------

    Doubly Occupied:

       1A    -15.596437     2A    -15.587219     3A    -11.290576
       4A    -11.289457     5A    -11.285240     6A    -11.276689
       7A     -1.314833     8A     -1.224692     9A     -1.053804
      10A     -0.907574    11A     -0.883264    12A     -0.729941
      13A     -0.704936    14A     -0.678097    15A     -0.613691
      16A     -0.579286    17A     -0.556407    18A     -0.495815
      19A     -0.442435    20A     -0.406529    21A     -0.358891

  @DF-RHF Final Energy:  -262.76106121770192

   => Energetics <=

    Nuclear Repulsion Energy =            209.2476743949802653
    One-Electron Energy =                -769.4658429360695209
    Two-Electron Energy =                 297.4571073233872767
    Total Energy =                       -262.7610612177019220
  Basis Set: (AUG-CC-PVTZ AUX)
    Blend: AUG-CC-PVTZ-RI
    Molecular point group: c1

    Geometry (in Angstrom), charge = 0, multiplicity = 1:

       Center              X                  Y                   Z               Mass
    ------------   -----------------  -----------------  -----------------  -----------------
         C           -0.000086087750    -0.688737375980     1.120913792270    12.000000000000
         C           -0.000086087750     0.707459624020     1.120902792270    12.000000000000
         N           -0.000092587750     1.373452324020     0.069694392270    14.003074004430
         C           -0.000086087750     0.707459624020    -1.150461207730    12.000000000000
         C           -0.000086087750    -0.688737375980    -1.150472207730    12.000000000000
         N            0.000168912250    -1.408237375980    -0.014779207730    14.003074004430
         H            0.000870912250    -1.248894375980     2.053781792270     1.007825032230
         H            0.000648912250     1.267629624020     2.053774792270     1.007825032230
         H            0.000648912250     1.267629624020    -2.083333207730     1.007825032230
         H            0.000870912250    -1.248894375980    -2.083340207730     1.007825032230

  Basis Set: AUG-CC-PVTZ
    Blend: AUG-CC-PVTZ
  Basis Set: (AUG-CC-PVTZ AUX)
    Blend: AUG-CC-PVTZ-JKFIT
	 Reference Energy          =    -262.7610612177019220 [Eh]
	 Singles Energy            =      -0.0000000000000000 [Eh]
	 Same-Spin Energy          =      -0.2822694886178909 [Eh]
	 Opposite-Spin Energy      =      -0.8583540245799668 [Eh]
	 Correlation Energy        =      -1.1406235131978577 [Eh]
	 Total Energy              =    -263.9016847308997740 [Eh]

	 ================> DF-SCS-MP2 Energies <==================
	-----------------------------------------------------------
	 SCS Same-Spin Scale       =       0.3333333333333333 [-]
	 SCS Opposite-Spin Scale   =       1.2000000000000000 [-]
	 SCS Same-Spin Energy      =      -0.0940898295392970 [Eh]
	 SCS Opposite-Spin Energy  =      -1.0300248294959602 [Eh]
	 SCS Correlation Energy    =      -1.1241146590352571 [Eh]
	 SCS Total Energy          =    -263.8851758767372075 [Eh]
	-----------------------------------------------------------

  Dipole Moment: [D]
     X:     0.0013      Y:     0.1020      Z:    -0.0943     Total:     0.1389

*** Psi4 exiting successfully. Buy a developer a beer!
