                               Psi4 1.3.2 release

  ==> Input File <==

--------------------------------------------------------------------------
#psi4
#
memory 32 gb

molecule  {
0 1
  P       -0.0357750     0.4680410     0.0705770
  O        1.0998514    -0.4363211     0.7511454
  O       -1.0048410    -0.5865790    -0.6866490
  O        0.7629471     1.1103601    -1.1891088
  O       -0.7044350     1.4170700     0.9839100
  C        1.8748370    -1.3345260    -0.0598200
  C       -1.9591270    -1.2882720     0.1502070
  H        1.2215740    -2.0052580    -0.6255210
  H        2.4895380    -1.9045040     0.6353170
  H        2.5026780    -0.7584230    -0.7438410
  H       -2.6431830    -0.5774540     0.6174740
  H       -1.4396990    -1.8621430     0.9229490
  H       -2.4975470    -1.9601810    -0.5134620
  H        0.3645100     1.9871850    -1.4006590
units angstrom
no_reorient  #important for SAPT in psi4, default
symmetry c1  #important for SAPT in psi4, default
}

set PROPERTIES_ORIGIN ["COM"]
properties('MP2/aug-cc-pvtz', properties = ['dipole'])
--------------------------------------------------------------------------

    Molecular point group: c1
  Charge       = 0
  Multiplicity = 1
  Basis Set: AUG-CC-PVTZ
    Blend: AUG-CC-PVTZ
  Basis Set: (AUG-CC-PVTZ AUX)
    Blend: AUG-CC-PVTZ-JKFIT

    Orbital Energies [Eh]
    ---------------------

    Doubly Occupied:

       1A    -80.109793     2A    -20.609257     3A    -20.597351
       4A    -20.597088     5A    -20.516674     6A    -11.299350
       7A    -11.298878     8A     -7.625313     9A     -5.523841
      10A     -5.523331    11A     -5.522301    12A     -1.450124
      13A     -1.382261    14A     -1.379941    15A     -1.297373
      16A     -0.972522    17A     -0.956959    18A     -0.815693
      19A     -0.731076    20A     -0.708635    21A     -0.678518
      22A     -0.656907    23A     -0.642233    24A     -0.633111
      25A     -0.628942    26A     -0.573330    27A     -0.559944
      28A     -0.542158    29A     -0.518133    30A     -0.499326
      31A     -0.489059    32A     -0.471941    33A     -0.465903

  @DF-RHF Final Energy:  -720.28073758804237

   => Energetics <=

    Nuclear Repulsion Energy =            451.2225669710780380
    One-Electron Energy =               -1890.4520783496880085
    Two-Electron Energy =                 718.9487737905675431
    Total Energy =                       -720.2807375880423706
  Basis Set: (AUG-CC-PVTZ AUX)
    Blend: AUG-CC-PVTZ-RI
    Molecular point group: c1

    Geometry (in Angstrom), charge = 0, multiplicity = 1:

       Center              X                  Y                   Z               Mass
    ------------   -----------------  -----------------  -----------------  -----------------
         P           -0.038424568013     0.468421466395     0.071340877289    30.973761998420
         O            1.097201831987    -0.435940633605     0.751909277289    15.994914619570
         O           -1.007490568013    -0.586198533605    -0.685885122711    15.994914619570
         O            0.760297531987     1.110740566395    -1.188344922711    15.994914619570
         O           -0.707084568013     1.417450466395     0.984673877289    15.994914619570
         C            1.872187431987    -1.334145533605    -0.059056122711    12.000000000000
         C           -1.961776568013    -1.287891533605     0.150970877289    12.000000000000
         H            1.218924431987    -2.004877533605    -0.624757122711     1.007825032230
         H            2.486888431987    -1.904123533605     0.636080877289     1.007825032230
         H            2.500028431987    -0.758042533605    -0.743077122711     1.007825032230
         H           -2.645832568013    -0.577073533605     0.618237877289     1.007825032230
         H           -1.442348568013    -1.861762533605     0.923712877289     1.007825032230
         H           -2.500196568013    -1.959800533605    -0.512698122711     1.007825032230
         H            0.361860431987     1.987565466395    -1.399895122711     1.007825032230

  Basis Set: AUG-CC-PVTZ
    Blend: AUG-CC-PVTZ
  Basis Set: (AUG-CC-PVTZ AUX)
    Blend: AUG-CC-PVTZ-JKFIT
	 Reference Energy          =    -720.2807375880423706 [Eh]
	 Singles Energy            =      -0.0000000000000000 [Eh]
	 Same-Spin Energy          =      -0.4044314439564525 [Eh]
	 Opposite-Spin Energy      =      -1.2302154753443570 [Eh]
	 Correlation Energy        =      -1.6346469193008095 [Eh]
	 Total Energy              =    -721.9153845073432194 [Eh]

	 ================> DF-SCS-MP2 Energies <==================
	-----------------------------------------------------------
	 SCS Same-Spin Scale       =       0.3333333333333333 [-]
	 SCS Opposite-Spin Scale   =       1.2000000000000000 [-]
	 SCS Same-Spin Energy      =      -0.1348104813188175 [Eh]
	 SCS Opposite-Spin Energy  =      -1.4762585704132285 [Eh]
	 SCS Correlation Energy    =      -1.6110690517320461 [Eh]
	 SCS Total Energy          =    -721.8918066397744724 [Eh]
	-----------------------------------------------------------

  Dipole Moment: [D]
     X:     0.4074      Y:    -2.5307      Z:    -1.9346     Total:     3.2114

*** Psi4 exiting successfully. Buy a developer a beer!
