                               Psi4 1.3.2 release

  ==> Input File <==

--------------------------------------------------------------------------
#psi4
#
memory 32 gb

molecule  {
0 1
  P       -0.0357750     0.4680410     0.0705770
  O        1.0907140    -0.4402950     0.7609680
  O       -1.0048410    -0.5865790    -0.6866490
  O        0.7512110     1.1173330    -1.1929150
  O       -0.7497022     1.4813178     1.0457412
  C        1.8748370    -1.3345260    -0.0598200
  C       -1.9591270    -1.2882720     0.1502070
  H        1.2215740    -2.0052580    -0.6255210
  H        2.4895380    -1.9045040     0.6353170
  H        2.5026780    -0.7584230    -0.7438410
  H       -2.6431830    -0.5774540     0.6174740
  H       -1.4396990    -1.8621430     0.9229490
  H       -2.4975470    -1.9601810    -0.5134620
  H        0.3645100     1.9871850    -1.4006590
units angstrom
no_reorient  #important for SAPT in psi4, default
symmetry c1  #important for SAPT in psi4, default
}

set PROPERTIES_ORIGIN ["COM"]
properties('MP2/aug-cc-pvtz', properties = ['dipole'])
--------------------------------------------------------------------------

    Molecular point group: c1
  Charge       = 0
  Multiplicity = 1
  Basis Set: AUG-CC-PVTZ
    Blend: AUG-CC-PVTZ
  Basis Set: (AUG-CC-PVTZ AUX)
    Blend: AUG-CC-PVTZ-JKFIT

    Orbital Energies [Eh]
    ---------------------

    Doubly Occupied:

       1A    -80.125834     2A    -20.615206     3A    -20.604503
       4A    -20.602985     5A    -20.518110     6A    -11.304639
       7A    -11.300720     8A     -7.638191     9A     -5.536945
      10A     -5.536492    11A     -5.534479    12A     -1.452160
      13A     -1.388073    14A     -1.385567    15A     -1.255528
      16A     -0.976968    17A     -0.960408    18A     -0.823983
      19A     -0.736108    20A     -0.711190    21A     -0.682873
      22A     -0.657954    23A     -0.646120    24A     -0.635602
      25A     -0.631993    26A     -0.565584    27A     -0.560981
      28A     -0.541616    29A     -0.516198    30A     -0.501595
      31A     -0.492673    32A     -0.451612    33A     -0.449238

  @DF-RHF Final Energy:  -720.26260331948174

   => Energetics <=

    Nuclear Repulsion Energy =            446.7482478855812360
    One-Electron Energy =               -1881.3374454743081969
    Two-Electron Energy =                 714.3265942692453336
    Total Energy =                       -720.2626033194817410
  Basis Set: (AUG-CC-PVTZ AUX)
    Blend: AUG-CC-PVTZ-RI
    Molecular point group: c1

    Geometry (in Angstrom), charge = 0, multiplicity = 1:

       Center              X                  Y                   Z               Mass
    ------------   -----------------  -----------------  -----------------  -----------------
         P           -0.030028964509     0.459885459523     0.062728607562    30.973761998420
         O            1.096460035491    -0.448450540477     0.753119607562    15.994914619570
         O           -0.999094964509    -0.594734540477    -0.694497392438    15.994914619570
         O            0.756957035491     1.109177459523    -1.200763392438    15.994914619570
         O           -0.743956164509     1.473162259523     1.037892807562    15.994914619570
         C            1.880583035491    -1.342681540477    -0.067668392438    12.000000000000
         C           -1.953380964509    -1.296427540477     0.142358607562    12.000000000000
         H            1.227320035491    -2.013413540477    -0.633369392438     1.007825032230
         H            2.495284035491    -1.912659540477     0.627468607562     1.007825032230
         H            2.508424035491    -0.766578540477    -0.751689392438     1.007825032230
         H           -2.637436964509    -0.585609540477     0.609625607562     1.007825032230
         H           -1.433952964509    -1.870298540477     0.915100607562     1.007825032230
         H           -2.491800964509    -1.968336540477    -0.521310392438     1.007825032230
         H            0.370256035491     1.979029459523    -1.408507392438     1.007825032230

  Basis Set: AUG-CC-PVTZ
    Blend: AUG-CC-PVTZ
  Basis Set: (AUG-CC-PVTZ AUX)
    Blend: AUG-CC-PVTZ-JKFIT
	 Reference Energy          =    -720.2626033194817410 [Eh]
	 Singles Energy            =      -0.0000000000000000 [Eh]
	 Same-Spin Energy          =      -0.4064756884060713 [Eh]
	 Opposite-Spin Energy      =      -1.2353593745426361 [Eh]
	 Correlation Energy        =      -1.6418350629487075 [Eh]
	 Total Energy              =    -721.9044383824304987 [Eh]

	 ================> DF-SCS-MP2 Energies <==================
	-----------------------------------------------------------
	 SCS Same-Spin Scale       =       0.3333333333333333 [-]
	 SCS Opposite-Spin Scale   =       1.2000000000000000 [-]
	 SCS Same-Spin Energy      =      -0.1354918961353571 [Eh]
	 SCS Opposite-Spin Energy  =      -1.4824312494511633 [Eh]
	 SCS Correlation Energy    =      -1.6179231455865204 [Eh]
	 SCS Total Energy          =    -721.8805264650682147 [Eh]
	-----------------------------------------------------------

  Dipole Moment: [D]
     X:     0.6837      Y:    -2.8965      Z:    -2.2424     Total:     3.7263

*** Psi4 exiting successfully. Buy a developer a beer!
