                               Psi4 1.3.2 release

  ==> Input File <==

--------------------------------------------------------------------------
#psi4
#
memory 32 gb

molecule  {
0 1
  P       -0.0357750     0.4680410     0.0705770
  O        1.0907140    -0.4402950     0.7609680
  O       -1.0048410    -0.5865790    -0.6866490
  O        0.7435734     1.1431595    -1.1840824
  O       -0.6961695     1.4366226     0.9692807
  C        1.8748370    -1.3345260    -0.0598200
  C       -1.9591270    -1.2882720     0.1502070
  H        1.2215740    -2.0052580    -0.6255210
  H        2.4895380    -1.9045040     0.6353170
  H        2.5026780    -0.7584230    -0.7438410
  H       -2.6431830    -0.5774540     0.6174740
  H       -1.4396990    -1.8621430     0.9229490
  H       -2.4975470    -1.9601810    -0.5134620
  H        0.3645100     1.9871850    -1.4006590
units angstrom
no_reorient  #important for SAPT in psi4, default
symmetry c1  #important for SAPT in psi4, default
}

set PROPERTIES_ORIGIN ["COM"]
properties('MP2/aug-cc-pvtz', properties = ['dipole'])
--------------------------------------------------------------------------

    Molecular point group: c1
  Charge       = 0
  Multiplicity = 1
  Basis Set: AUG-CC-PVTZ
    Blend: AUG-CC-PVTZ
  Basis Set: (AUG-CC-PVTZ AUX)
    Blend: AUG-CC-PVTZ-JKFIT

    Orbital Energies [Eh]
    ---------------------

    Doubly Occupied:

       1A    -80.110019     2A    -20.603889     3A    -20.600440
       4A    -20.597961     5A    -20.513806     6A    -11.301941
       7A    -11.299631     8A     -7.625439     9A     -5.523913
      10A     -5.523481    11A     -5.522454    12A     -1.451021
      13A     -1.385727    14A     -1.381814    15A     -1.295264
      16A     -0.973694    17A     -0.958251    18A     -0.822132
      19A     -0.735078    20A     -0.709790    21A     -0.678418
      22A     -0.655887    23A     -0.644593    24A     -0.633511
      25A     -0.629523    26A     -0.571309    27A     -0.560706
      28A     -0.543569    29A     -0.519601    30A     -0.501221
      31A     -0.490796    32A     -0.469277    33A     -0.464167

  @DF-RHF Final Energy:  -720.28240310602848

   => Energetics <=

    Nuclear Repulsion Energy =            451.0111319557579463
    One-Electron Energy =               -1889.9904242618476928
    Two-Electron Energy =                 718.6968892000612641
    Total Energy =                       -720.2824031060284824
  Basis Set: (AUG-CC-PVTZ AUX)
    Blend: AUG-CC-PVTZ-RI
    Molecular point group: c1

    Geometry (in Angstrom), charge = 0, multiplicity = 1:

       Center              X                  Y                   Z               Mass
    ------------   -----------------  -----------------  -----------------  -----------------
         P           -0.035854682446     0.462280567586     0.071312989557    30.973761998420
         O            1.090634317554    -0.446055432414     0.761703989557    15.994914619570
         O           -1.004920682446    -0.592339432414    -0.685913010443    15.994914619570
         O            0.743493717554     1.137399067586    -1.183346410443    15.994914619570
         O           -0.696249182446     1.430862167586     0.970016689557    15.994914619570
         C            1.874757317554    -1.340286432414    -0.059084010443    12.000000000000
         C           -1.959206682446    -1.294032432414     0.150942989557    12.000000000000
         H            1.221494317554    -2.011018432414    -0.624785010443     1.007825032230
         H            2.489458317554    -1.910264432414     0.636052989557     1.007825032230
         H            2.502598317554    -0.764183432414    -0.743105010443     1.007825032230
         H           -2.643262682446    -0.583214432414     0.618209989557     1.007825032230
         H           -1.439778682446    -1.867903432414     0.923684989557     1.007825032230
         H           -2.497626682446    -1.965941432414    -0.512726010443     1.007825032230
         H            0.364430317554     1.981424567586    -1.399923010443     1.007825032230

  Basis Set: AUG-CC-PVTZ
    Blend: AUG-CC-PVTZ
  Basis Set: (AUG-CC-PVTZ AUX)
    Blend: AUG-CC-PVTZ-JKFIT
	 Reference Energy          =    -720.2824031060284824 [Eh]
	 Singles Energy            =      -0.0000000000000000 [Eh]
	 Same-Spin Energy          =      -0.4038519299690160 [Eh]
	 Opposite-Spin Energy      =      -1.2290581114510182 [Eh]
	 Correlation Energy        =      -1.6329100414200342 [Eh]
	 Total Energy              =    -721.9153131474485008 [Eh]

	 ================> DF-SCS-MP2 Energies <==================
	-----------------------------------------------------------
	 SCS Same-Spin Scale       =       0.3333333333333333 [-]
	 SCS Opposite-Spin Scale   =       1.2000000000000000 [-]
	 SCS Same-Spin Energy      =      -0.1346173099896720 [Eh]
	 SCS Opposite-Spin Energy  =      -1.4748697337412218 [Eh]
	 SCS Correlation Energy    =      -1.6094870437308937 [Eh]
	 SCS Total Energy          =    -721.8918901497593197 [Eh]
	-----------------------------------------------------------

  Dipole Moment: [D]
     X:     0.4657      Y:    -2.7105      Z:    -1.9198     Total:     3.3540

*** Psi4 exiting successfully. Buy a developer a beer!
