                               Psi4 1.3.2 release

  ==> Input File <==

--------------------------------------------------------------------------
#psi4
#
memory 32 gb

molecule  {
0 1
  P       -0.0149852     0.4338581    -0.0032160
  O        1.0907140    -0.4402950     0.7609680
  O       -1.0048410    -0.5865790    -0.6866490
  O        0.7512110     1.1173330    -1.1929150
  O       -0.7044350     1.4170700     0.9839100
  C        1.8358125    -1.3103494    -0.1199545
  C       -1.9591270    -1.2882720     0.1502070
  H        1.2215740    -2.0052580    -0.6255210
  H        2.4895380    -1.9045040     0.6353170
  H        2.5026780    -0.7584230    -0.7438410
  H       -2.6431830    -0.5774540     0.6174740
  H       -1.4396990    -1.8621430     0.9229490
  H       -2.4975470    -1.9601810    -0.5134620
  H        0.3645100     1.9871850    -1.4006590
units angstrom
no_reorient  #important for SAPT in psi4, default
symmetry c1  #important for SAPT in psi4, default
}

set PROPERTIES_ORIGIN ["COM"]
properties('MP2/aug-cc-pvtz', properties = ['dipole'])
--------------------------------------------------------------------------

    Molecular point group: c1
  Charge       = 0
  Multiplicity = 1
  Basis Set: AUG-CC-PVTZ
    Blend: AUG-CC-PVTZ
  Basis Set: (AUG-CC-PVTZ AUX)
    Blend: AUG-CC-PVTZ-JKFIT

    Orbital Energies [Eh]
    ---------------------

    Doubly Occupied:

       1A    -80.110634     2A    -20.620410     3A    -20.604212
       4A    -20.603132     5A    -20.497612     6A    -11.304133
       7A    -11.302348     8A     -7.626015     9A     -5.524656
      10A     -5.524180    11A     -5.522555    12A     -1.466310
      13A     -1.402946    14A     -1.391414    15A     -1.249253
      16A     -0.978371    17A     -0.961497    18A     -0.835184
      19A     -0.746541    20A     -0.717636    21A     -0.685372
      22A     -0.668345    23A     -0.650723    24A     -0.643020
      25A     -0.626795    26A     -0.578640    27A     -0.562289
      28A     -0.532534    29A     -0.514287    30A     -0.505103
      31A     -0.496407    32A     -0.440321    33A     -0.437911

  @DF-RHF Final Energy:  -720.26470293773855

   => Energetics <=

    Nuclear Repulsion Energy =            452.5590405504965474
    One-Electron Energy =               -1892.9859121537247120
    Two-Electron Energy =                 720.1621686654896166
    Total Energy =                       -720.2647029377385479
  Basis Set: (AUG-CC-PVTZ AUX)
    Blend: AUG-CC-PVTZ-RI
    Molecular point group: c1

    Geometry (in Angstrom), charge = 0, multiplicity = 1:

       Center              X                  Y                   Z               Mass
    ------------   -----------------  -----------------  -----------------  -----------------
         P           -0.016379091489     0.439957917078     0.020649779499    30.973761998420
         O            1.089320108511    -0.434195182922     0.784833779499    15.994914619570
         O           -1.006234891489    -0.580479182922    -0.662783220501    15.994914619570
         O            0.749817108511     1.123432817078    -1.169049220501    15.994914619570
         O           -0.705828891489     1.423169817078     1.007775779499    15.994914619570
         C            1.834418608511    -1.304249582922    -0.096088720501    12.000000000000
         C           -1.960520891489    -1.282172182922     0.174072779499    12.000000000000
         H            1.220180108511    -1.999158182922    -0.601655220501     1.007825032230
         H            2.488144108511    -1.898404182922     0.659182779499     1.007825032230
         H            2.501284108511    -0.752323182922    -0.719975220501     1.007825032230
         H           -2.644576891489    -0.571354182922     0.641339779499     1.007825032230
         H           -1.441092891489    -1.856043182922     0.946814779499     1.007825032230
         H           -2.498940891489    -1.954081182922    -0.489596220501     1.007825032230
         H            0.363116108511     1.993284817078    -1.376793220501     1.007825032230

  Basis Set: AUG-CC-PVTZ
    Blend: AUG-CC-PVTZ
  Basis Set: (AUG-CC-PVTZ AUX)
    Blend: AUG-CC-PVTZ-JKFIT
	 Reference Energy          =    -720.2647029377385479 [Eh]
	 Singles Energy            =      -0.0000000000000000 [Eh]
	 Same-Spin Energy          =      -0.4052339990006320 [Eh]
	 Opposite-Spin Energy      =      -1.2311682096550551 [Eh]
	 Correlation Energy        =      -1.6364022086556871 [Eh]
	 Total Energy              =    -721.9011051463942295 [Eh]

	 ================> DF-SCS-MP2 Energies <==================
	-----------------------------------------------------------
	 SCS Same-Spin Scale       =       0.3333333333333333 [-]
	 SCS Opposite-Spin Scale   =       1.2000000000000000 [-]
	 SCS Same-Spin Energy      =      -0.1350779996668773 [Eh]
	 SCS Opposite-Spin Energy  =      -1.4774018515860661 [Eh]
	 SCS Correlation Energy    =      -1.6124798512529435 [Eh]
	 SCS Total Energy          =    -721.8771827889914903 [Eh]
	-----------------------------------------------------------

  Dipole Moment: [D]
     X:     0.5761      Y:    -2.9137      Z:    -2.6820     Total:     4.0018

*** Psi4 exiting successfully. Buy a developer a beer!
