                               Psi4 1.3.2 release

  ==> Input File <==

--------------------------------------------------------------------------
#psi4
#
memory 32 gb

molecule  {
0 1
  P       -0.0357750     0.4680410     0.0705770
  O        1.0907140    -0.4402950     0.7609680
  O       -1.0048410    -0.5865790    -0.6866490
  O        0.7512110     1.1173330    -1.1929150
  O       -0.7044350     1.4170700     0.9839100
  C        1.8205746    -1.2726440    -0.0030203
  C       -1.9591270    -1.2882720     0.1502070
  H        1.2215740    -2.0052580    -0.6255210
  H        2.4895380    -1.9045040     0.6353170
  H        2.5026780    -0.7584230    -0.7438410
  H       -2.6431830    -0.5774540     0.6174740
  H       -1.4396990    -1.8621430     0.9229490
  H       -2.4975470    -1.9601810    -0.5134620
  H        0.3645100     1.9871850    -1.4006590
units angstrom
no_reorient  #important for SAPT in psi4, default
symmetry c1  #important for SAPT in psi4, default
}

set PROPERTIES_ORIGIN ["COM"]
properties('MP2/aug-cc-pvtz', properties = ['dipole'])
--------------------------------------------------------------------------

    Molecular point group: c1
  Charge       = 0
  Multiplicity = 1
  Basis Set: AUG-CC-PVTZ
    Blend: AUG-CC-PVTZ
  Basis Set: (AUG-CC-PVTZ AUX)
    Blend: AUG-CC-PVTZ-JKFIT

    Orbital Energies [Eh]
    ---------------------

    Doubly Occupied:

       1A    -80.116317     2A    -20.611949     3A    -20.608441
       4A    -20.600190     5A    -20.520310     6A    -11.300736
       7A    -11.300365     8A     -7.631864     9A     -5.530352
      10A     -5.529860    11A     -5.528860    12A     -1.468979
      13A     -1.405856    14A     -1.384276    15A     -1.301940
      16A     -0.973745    17A     -0.953708    18A     -0.824342
      19A     -0.738862    20A     -0.723775    21A     -0.688271
      22A     -0.659628    23A     -0.652183    24A     -0.640284
      25A     -0.634217    26A     -0.577682    27A     -0.561817
      28A     -0.536107    29A     -0.512900    30A     -0.493760
      31A     -0.479483    32A     -0.475396    33A     -0.468444

  @DF-RHF Final Energy:  -720.27319313619125

   => Energetics <=

    Nuclear Repulsion Energy =            453.3158522096001661
    One-Electron Energy =               -1894.3082954061985674
    Two-Electron Energy =                 720.7192500604070347
    Total Energy =                       -720.2731931361912530
  Basis Set: (AUG-CC-PVTZ AUX)
    Blend: AUG-CC-PVTZ-RI
    Molecular point group: c1

    Geometry (in Angstrom), charge = 0, multiplicity = 1:

       Center              X                  Y                   Z               Mass
    ------------   -----------------  -----------------  -----------------  -----------------
         P           -0.030607468142     0.462147646311     0.065168039086    30.973761998420
         O            1.095881531858    -0.446188353689     0.755559039086    15.994914619570
         O           -0.999673468142    -0.592472353689    -0.692057960914    15.994914619570
         O            0.756378531858     1.111439646311    -1.198323960914    15.994914619570
         O           -0.699267468142     1.411176646311     0.978501039086    15.994914619570
         C            1.825742131858    -1.278537353689    -0.008429260914    12.000000000000
         C           -1.953959468142    -1.294165353689     0.144798039086    12.000000000000
         H            1.226741531858    -2.011151353689    -0.630929960914     1.007825032230
         H            2.494705531858    -1.910397353689     0.629908039086     1.007825032230
         H            2.507845531858    -0.764316353689    -0.749249960914     1.007825032230
         H           -2.638015468142    -0.583347353689     0.612065039086     1.007825032230
         H           -1.434531468142    -1.868036353689     0.917540039086     1.007825032230
         H           -2.492379468142    -1.966074353689    -0.518870960914     1.007825032230
         H            0.369677531858     1.981291646311    -1.406067960914     1.007825032230

  Basis Set: AUG-CC-PVTZ
    Blend: AUG-CC-PVTZ
  Basis Set: (AUG-CC-PVTZ AUX)
    Blend: AUG-CC-PVTZ-JKFIT
	 Reference Energy          =    -720.2731931361912530 [Eh]
	 Singles Energy            =      -0.0000000000000000 [Eh]
	 Same-Spin Energy          =      -0.4046349839561423 [Eh]
	 Opposite-Spin Energy      =      -1.2294989003982928 [Eh]
	 Correlation Energy        =      -1.6341338843544351 [Eh]
	 Total Energy              =    -721.9073270205457220 [Eh]

	 ================> DF-SCS-MP2 Energies <==================
	-----------------------------------------------------------
	 SCS Same-Spin Scale       =       0.3333333333333333 [-]
	 SCS Opposite-Spin Scale   =       1.2000000000000000 [-]
	 SCS Same-Spin Energy      =      -0.1348783279853807 [Eh]
	 SCS Opposite-Spin Energy  =      -1.4753986804779513 [Eh]
	 SCS Correlation Energy    =      -1.6102770084633320 [Eh]
	 SCS Total Energy          =    -721.8834701446545523 [Eh]
	-----------------------------------------------------------

  Dipole Moment: [D]
     X:     0.1522      Y:    -2.2599      Z:    -1.7932     Total:     2.8889

*** Psi4 exiting successfully. Buy a developer a beer!
