                               Psi4 1.3.2 release

  ==> Input File <==

--------------------------------------------------------------------------
#psi4
#
memory 32 gb

molecule  {
0 1
  P       -0.0357750     0.4680410     0.0705770
  O        1.1143518    -0.3938141     0.7812848
  O       -1.0364743    -0.5432162    -0.7044478
  O        0.7512110     1.1173330    -1.1929150
  O       -0.7044350     1.4170700     0.9839100
  C        1.8748370    -1.3345260    -0.0598200
  C       -1.9591270    -1.2882720     0.1502070
  H        1.2215740    -2.0052580    -0.6255210
  H        2.4895380    -1.9045040     0.6353170
  H        2.5026780    -0.7584230    -0.7438410
  H       -2.6431830    -0.5774540     0.6174740
  H       -1.4396990    -1.8621430     0.9229490
  H       -2.4975470    -1.9601810    -0.5134620
  H        0.3645100     1.9871850    -1.4006590
units angstrom
no_reorient  #important for SAPT in psi4, default
symmetry c1  #important for SAPT in psi4, default
}

set PROPERTIES_ORIGIN ["COM"]
properties('MP2/aug-cc-pvtz', properties = ['dipole'])
--------------------------------------------------------------------------

    Molecular point group: c1
  Charge       = 0
  Multiplicity = 1
  Basis Set: AUG-CC-PVTZ
    Blend: AUG-CC-PVTZ
  Basis Set: (AUG-CC-PVTZ AUX)
    Blend: AUG-CC-PVTZ-JKFIT

    Orbital Energies [Eh]
    ---------------------

    Doubly Occupied:

       1A    -80.107103     2A    -20.604877     3A    -20.602151
       4A    -20.599177     5A    -20.510021     6A    -11.305626
       7A    -11.300734     8A     -7.622780     9A     -5.521262
      10A     -5.520697    11A     -5.519821    12A     -1.446605
      13A     -1.378976    14A     -1.377725    15A     -1.291632
      16A     -0.971549    17A     -0.959269    18A     -0.817024
      19A     -0.729850    20A     -0.706414    21A     -0.674815
      22A     -0.655137    23A     -0.638981    24A     -0.632709
      25A     -0.625732    26A     -0.570663    27A     -0.556905
      28A     -0.546335    29A     -0.520628    30A     -0.503226
      31A     -0.495597    32A     -0.466086    33A     -0.460934

  @DF-RHF Final Energy:  -720.27846156525925

   => Energetics <=

    Nuclear Repulsion Energy =            450.1911814587728600
    One-Electron Energy =               -1888.4572049686405535
    Two-Electron Energy =                 717.9875619446083874
    Total Energy =                       -720.2784615652592493
  Basis Set: (AUG-CC-PVTZ AUX)
    Blend: AUG-CC-PVTZ-RI
    Molecular point group: c1

    Geometry (in Angstrom), charge = 0, multiplicity = 1:

       Center              X                  Y                   Z               Mass
    ------------   -----------------  -----------------  -----------------  -----------------
         P           -0.034760066767     0.456636430896     0.070257558870    30.973761998420
         O            1.115366733233    -0.405218669104     0.780965358870    15.994914619570
         O           -1.035459366767    -0.554620769104    -0.704767241130    15.994914619570
         O            0.752225933233     1.105928430896    -1.193234441130    15.994914619570
         O           -0.703420066767     1.405665430896     0.983590558870    15.994914619570
         C            1.875851933233    -1.345930569104    -0.060139441130    12.000000000000
         C           -1.958112066767    -1.299676569104     0.149887558870    12.000000000000
         H            1.222588933233    -2.016662569104    -0.625840441130     1.007825032230
         H            2.490552933233    -1.915908569104     0.634997558870     1.007825032230
         H            2.503692933233    -0.769827569104    -0.744160441130     1.007825032230
         H           -2.642168066767    -0.588858569104     0.617154558870     1.007825032230
         H           -1.438684066767    -1.873547569104     0.922629558870     1.007825032230
         H           -2.496532066767    -1.971585569104    -0.513781441130     1.007825032230
         H            0.365524933233     1.975780430896    -1.400978441130     1.007825032230

  Basis Set: AUG-CC-PVTZ
    Blend: AUG-CC-PVTZ
  Basis Set: (AUG-CC-PVTZ AUX)
    Blend: AUG-CC-PVTZ-JKFIT
	 Reference Energy          =    -720.2784615652592493 [Eh]
	 Singles Energy            =      -0.0000000000000000 [Eh]
	 Same-Spin Energy          =      -0.4044396384041672 [Eh]
	 Opposite-Spin Energy      =      -1.2308975978312540 [Eh]
	 Correlation Energy        =      -1.6353372362354213 [Eh]
	 Total Energy              =    -721.9137988014946359 [Eh]

	 ================> DF-SCS-MP2 Energies <==================
	-----------------------------------------------------------
	 SCS Same-Spin Scale       =       0.3333333333333333 [-]
	 SCS Opposite-Spin Scale   =       1.2000000000000000 [-]
	 SCS Same-Spin Energy      =      -0.1348132128013891 [Eh]
	 SCS Opposite-Spin Energy  =      -1.4770771173975048 [Eh]
	 SCS Correlation Energy    =      -1.6118903301988938 [Eh]
	 SCS Total Energy          =    -721.8903518954581386 [Eh]
	-----------------------------------------------------------

  Dipole Moment: [D]
     X:     0.5337      Y:    -2.8698      Z:    -1.9704     Total:     3.5217

*** Psi4 exiting successfully. Buy a developer a beer!
