                               Psi4 1.3.2 release

  ==> Input File <==

--------------------------------------------------------------------------
#psi4
#
memory 32 gb

molecule  {
0 1
  P       -0.0357750     0.4680410     0.0705770
  O        1.0721825    -0.4480351     0.7804547
  O       -1.0048410    -0.5865790    -0.6866490
  O        0.7275600     1.1311299    -1.2002385
  O       -0.7044350     1.4170700     0.9839100
  C        1.8748370    -1.3345260    -0.0598200
  C       -1.9591270    -1.2882720     0.1502070
  H        1.2215740    -2.0052580    -0.6255210
  H        2.4895380    -1.9045040     0.6353170
  H        2.5026780    -0.7584230    -0.7438410
  H       -2.6431830    -0.5774540     0.6174740
  H       -1.4396990    -1.8621430     0.9229490
  H       -2.4975470    -1.9601810    -0.5134620
  H        0.3645100     1.9871850    -1.4006590
units angstrom
no_reorient  #important for SAPT in psi4, default
symmetry c1  #important for SAPT in psi4, default
}

set PROPERTIES_ORIGIN ["COM"]
properties('MP2/aug-cc-pvtz', properties = ['dipole'])
--------------------------------------------------------------------------

    Molecular point group: c1
  Charge       = 0
  Multiplicity = 1
  Basis Set: AUG-CC-PVTZ
    Blend: AUG-CC-PVTZ
  Basis Set: (AUG-CC-PVTZ AUX)
    Blend: AUG-CC-PVTZ-JKFIT

    Orbital Energies [Eh]
    ---------------------

    Doubly Occupied:

       1A    -80.109212     2A    -20.606573     3A    -20.601115
       4A    -20.595270     5A    -20.512918     6A    -11.303874
       7A    -11.297636     8A     -7.624710     9A     -5.523127
      10A     -5.522749    11A     -5.521756    12A     -1.449863
      13A     -1.385824    14A     -1.378499    15A     -1.294419
      16A     -0.972219    17A     -0.957504    18A     -0.822373
      19A     -0.733347    20A     -0.708444    21A     -0.677914
      22A     -0.654879    23A     -0.642384    24A     -0.631779
      25A     -0.628159    26A     -0.570261    27A     -0.561834
      28A     -0.543932    29A     -0.520693    30A     -0.501478
      31A     -0.490368    32A     -0.468782    33A     -0.463031

  @DF-RHF Final Energy:  -720.28158665127194

   => Energetics <=

    Nuclear Repulsion Energy =            450.8982862268109670
    One-Electron Energy =               -1889.8058921475244460
    Two-Electron Energy =                 718.6260192694414854
    Total Energy =                       -720.2815866512719367
  Basis Set: (AUG-CC-PVTZ AUX)
    Blend: AUG-CC-PVTZ-RI
    Molecular point group: c1

    Geometry (in Angstrom), charge = 0, multiplicity = 1:

       Center              X                  Y                   Z               Mass
    ------------   -----------------  -----------------  -----------------  -----------------
         P           -0.030420522477     0.467271963801     0.069033240486    30.973761998420
         O            1.077536977523    -0.448804136199     0.778910940486    15.994914619570
         O           -0.999486522477    -0.587348036199    -0.688192759514    15.994914619570
         O            0.732914477523     1.130360863801    -1.201782259514    15.994914619570
         O           -0.699080522477     1.416300963801     0.982366240486    15.994914619570
         C            1.880191477523    -1.335295036199    -0.061363759514    12.000000000000
         C           -1.953772522477    -1.289041036199     0.148663240486    12.000000000000
         H            1.226928477523    -2.006027036199    -0.627064759514     1.007825032230
         H            2.494892477523    -1.905273036199     0.633773240486     1.007825032230
         H            2.508032477523    -0.759192036199    -0.745384759514     1.007825032230
         H           -2.637828522477    -0.578223036199     0.615930240486     1.007825032230
         H           -1.434344522477    -1.862912036199     0.921405240486     1.007825032230
         H           -2.492192522477    -1.960950036199    -0.515005759514     1.007825032230
         H            0.369864477523     1.986415963801    -1.402202759514     1.007825032230

  Basis Set: AUG-CC-PVTZ
    Blend: AUG-CC-PVTZ
  Basis Set: (AUG-CC-PVTZ AUX)
    Blend: AUG-CC-PVTZ-JKFIT
	 Reference Energy          =    -720.2815866512719367 [Eh]
	 Singles Energy            =      -0.0000000000000000 [Eh]
	 Same-Spin Energy          =      -0.4039798336659526 [Eh]
	 Opposite-Spin Energy      =      -1.2295310725277535 [Eh]
	 Correlation Energy        =      -1.6335109061937061 [Eh]
	 Total Energy              =    -721.9150975574656286 [Eh]

	 ================> DF-SCS-MP2 Energies <==================
	-----------------------------------------------------------
	 SCS Same-Spin Scale       =       0.3333333333333333 [-]
	 SCS Opposite-Spin Scale   =       1.2000000000000000 [-]
	 SCS Same-Spin Energy      =      -0.1346599445553175 [Eh]
	 SCS Opposite-Spin Energy  =      -1.4754372870333041 [Eh]
	 SCS Correlation Energy    =      -1.6100972315886217 [Eh]
	 SCS Total Energy          =    -721.8916838828605478 [Eh]
	-----------------------------------------------------------

  Dipole Moment: [D]
     X:     0.6212      Y:    -2.6224      Z:    -1.9799     Total:     3.3441

*** Psi4 exiting successfully. Buy a developer a beer!
