                               Psi4 1.3.2 release

  ==> Input File <==

--------------------------------------------------------------------------
#psi4
#
memory 32 gb

molecule  {
0 1
  P       -0.0420346     0.4648830     0.0828540
  O        1.0907140    -0.4402950     0.7609680
  O       -1.0048410    -0.5865790    -0.6866490
  O        0.7512110     1.1173330    -1.1929150
  O       -0.7044350     1.4170700     0.9839100
  C        1.8748370    -1.3345260    -0.0598200
  C       -1.9547328    -1.2820671     0.1603248
  H        1.2215740    -2.0052580    -0.6255210
  H        2.4895380    -1.9045040     0.6353170
  H        2.5026780    -0.7584230    -0.7438410
  H       -2.6431830    -0.5774540     0.6174740
  H       -1.4396990    -1.8621430     0.9229490
  H       -2.4975470    -1.9601810    -0.5134620
  H        0.3645100     1.9871850    -1.4006590
units angstrom
no_reorient  #important for SAPT in psi4, default
symmetry c1  #important for SAPT in psi4, default
}

set PROPERTIES_ORIGIN ["COM"]
properties('MP2/aug-cc-pvtz', properties = ['dipole'])
--------------------------------------------------------------------------

    Molecular point group: c1
  Charge       = 0
  Multiplicity = 1
  Basis Set: AUG-CC-PVTZ
    Blend: AUG-CC-PVTZ
  Basis Set: (AUG-CC-PVTZ AUX)
    Blend: AUG-CC-PVTZ-JKFIT

    Orbital Energies [Eh]
    ---------------------

    Doubly Occupied:

       1A    -80.109104     2A    -20.604502     3A    -20.599154
       4A    -20.597559     5A    -20.517281     6A    -11.301198
       7A    -11.298861     8A     -7.624828     9A     -5.523260
      10A     -5.522828    11A     -5.521893    12A     -1.448796
      13A     -1.382055    14A     -1.377425    15A     -1.301526
      16A     -0.972679    17A     -0.957488    18A     -0.815114
      19A     -0.730484    20A     -0.708840    21A     -0.678569
      22A     -0.654287    23A     -0.641546    24A     -0.633499
      25A     -0.627878    26A     -0.573040    27A     -0.556539
      28A     -0.543331    29A     -0.518907    30A     -0.501427
      31A     -0.490911    32A     -0.473879    33A     -0.468103

  @DF-RHF Final Energy:  -720.28090659718373

   => Energetics <=

    Nuclear Repulsion Energy =            451.2153824963069724
    One-Electron Energy =               -1890.4390050905333283
    Two-Electron Energy =                 718.9427159970425691
    Total Energy =                       -720.2809065971837299
  Basis Set: (AUG-CC-PVTZ AUX)
    Blend: AUG-CC-PVTZ-RI
    Molecular point group: c1

    Geometry (in Angstrom), charge = 0, multiplicity = 1:

       Center              X                  Y                   Z               Mass
    ------------   -----------------  -----------------  -----------------  -----------------
         P           -0.040914390910     0.465068142524     0.078872866244    30.973761998420
         O            1.091834209090    -0.440109857476     0.756986866244    15.994914619570
         O           -1.003720790910    -0.586393857476    -0.690630133756    15.994914619570
         O            0.752331209090     1.117518142524    -1.196896133756    15.994914619570
         O           -0.703314790910     1.417255142524     0.979928866244    15.994914619570
         C            1.875957209090    -1.334340857476    -0.063801133756    12.000000000000
         C           -1.953612590910    -1.281881957476     0.156343666244    12.000000000000
         H            1.222694209090    -2.005072857476    -0.629502133756     1.007825032230
         H            2.490658209090    -1.904318857476     0.631335866244     1.007825032230
         H            2.503798209090    -0.758237857476    -0.747822133756     1.007825032230
         H           -2.642062790910    -0.577268857476     0.613492866244     1.007825032230
         H           -1.438578790910    -1.861957857476     0.918967866244     1.007825032230
         H           -2.496426790910    -1.959995857476    -0.517443133756     1.007825032230
         H            0.365630209090     1.987370142524    -1.404640133756     1.007825032230

  Basis Set: AUG-CC-PVTZ
    Blend: AUG-CC-PVTZ
  Basis Set: (AUG-CC-PVTZ AUX)
    Blend: AUG-CC-PVTZ-JKFIT
	 Reference Energy          =    -720.2809065971837299 [Eh]
	 Singles Energy            =      -0.0000000000000000 [Eh]
	 Same-Spin Energy          =      -0.4042417763272920 [Eh]
	 Opposite-Spin Energy      =      -1.2300024065763182 [Eh]
	 Correlation Energy        =      -1.6342441829036103 [Eh]
	 Total Energy              =    -721.9151507800872878 [Eh]

	 ================> DF-SCS-MP2 Energies <==================
	-----------------------------------------------------------
	 SCS Same-Spin Scale       =       0.3333333333333333 [-]
	 SCS Opposite-Spin Scale   =       1.2000000000000000 [-]
	 SCS Same-Spin Energy      =      -0.1347472587757640 [Eh]
	 SCS Opposite-Spin Energy  =      -1.4760028878915818 [Eh]
	 SCS Correlation Energy    =      -1.6107501466673457 [Eh]
	 SCS Total Energy          =    -721.8916567438510583 [Eh]
	-----------------------------------------------------------

  Dipole Moment: [D]
     X:     0.4254      Y:    -2.5956      Z:    -1.8231     Total:     3.2003

*** Psi4 exiting successfully. Buy a developer a beer!
