                               Psi4 1.3.2 release

  ==> Input File <==

--------------------------------------------------------------------------
#psi4
#
memory 32 gb

molecule  {
0 1
  P       -0.0357750     0.4680410     0.0705770
  O        1.0696631    -0.4511186     0.7522621
  O       -1.0048410    -0.5865790    -0.6866490
  O        0.7512110     1.1173330    -1.1929150
  O       -0.7044350     1.4170700     0.9839100
  C        1.8748370    -1.3345260    -0.0598200
  C       -1.9591270    -1.2882720     0.1502070
  H        1.2063709    -1.9969095    -0.6175410
  H        2.4895380    -1.9045040     0.6353170
  H        2.5026780    -0.7584230    -0.7438410
  H       -2.6431830    -0.5774540     0.6174740
  H       -1.4396990    -1.8621430     0.9229490
  H       -2.4975470    -1.9601810    -0.5134620
  H        0.3645100     1.9871850    -1.4006590
units angstrom
no_reorient  #important for SAPT in psi4, default
symmetry c1  #important for SAPT in psi4, default
}

set PROPERTIES_ORIGIN ["COM"]
properties('MP2/aug-cc-pvtz', properties = ['dipole'])
--------------------------------------------------------------------------

    Molecular point group: c1
  Charge       = 0
  Multiplicity = 1
  Basis Set: AUG-CC-PVTZ
    Blend: AUG-CC-PVTZ
  Basis Set: (AUG-CC-PVTZ AUX)
    Blend: AUG-CC-PVTZ-JKFIT

    Orbital Energies [Eh]
    ---------------------

    Doubly Occupied:

       1A    -80.108122     2A    -20.608225     3A    -20.598080
       4A    -20.594419     5A    -20.514828     6A    -11.302103
       7A    -11.297520     8A     -7.623859     9A     -5.522379
      10A     -5.521908    11A     -5.520849    12A     -1.451317
      13A     -1.384012    14A     -1.379231    15A     -1.295880
      16A     -0.973694    17A     -0.957099    18A     -0.817326
      19A     -0.731895    20A     -0.708746    21A     -0.680062
      22A     -0.655893    23A     -0.642903    24A     -0.631964
      25A     -0.629722    26A     -0.571605    27A     -0.560351
      28A     -0.543080    29A     -0.518797    30A     -0.500455
      31A     -0.489255    32A     -0.470545    33A     -0.464096

  @DF-RHF Final Energy:  -720.28209377006112

   => Energetics <=

    Nuclear Repulsion Energy =            451.7168972484656706
    One-Electron Energy =               -1891.4575412592482735
    Two-Electron Energy =                 719.4585502407213653
    Total Energy =                       -720.2820937700611239
  Basis Set: (AUG-CC-PVTZ AUX)
    Blend: AUG-CC-PVTZ-RI
    Molecular point group: c1

    Geometry (in Angstrom), charge = 0, multiplicity = 1:

       Center              X                  Y                   Z               Mass
    ------------   -----------------  -----------------  -----------------  -----------------
         P           -0.032981277127     0.469347913925     0.071618445576    30.973761998420
         O            1.072456822873    -0.449811686075     0.753303545576    15.994914619570
         O           -1.002047277127    -0.585272086075    -0.685607554424    15.994914619570
         O            0.754004722873     1.118639913925    -1.191873554424    15.994914619570
         O           -0.701641277127     1.418376913925     0.984951445576    15.994914619570
         C            1.877630722873    -1.333219086075    -0.058778554424    12.000000000000
         C           -1.956333277127    -1.286965086075     0.151248445576    12.000000000000
         H            1.209164622873    -1.995602586075    -0.616499554424     1.007825032230
         H            2.492331722873    -1.903197086075     0.636358445576     1.007825032230
         H            2.505471722873    -0.757116086075    -0.742799554424     1.007825032230
         H           -2.640389277127    -0.576147086075     0.618515445576     1.007825032230
         H           -1.436905277127    -1.860836086075     0.923990445576     1.007825032230
         H           -2.494753277127    -1.958874086075    -0.512420554424     1.007825032230
         H            0.367303722873     1.988491913925    -1.399617554424     1.007825032230

  Basis Set: AUG-CC-PVTZ
    Blend: AUG-CC-PVTZ
  Basis Set: (AUG-CC-PVTZ AUX)
    Blend: AUG-CC-PVTZ-JKFIT
	 Reference Energy          =    -720.2820937700611239 [Eh]
	 Singles Energy            =      -0.0000000000000000 [Eh]
	 Same-Spin Energy          =      -0.4041291854081110 [Eh]
	 Opposite-Spin Energy      =      -1.2295073120747113 [Eh]
	 Correlation Energy        =      -1.6336364974828224 [Eh]
	 Total Energy              =    -721.9157302675439496 [Eh]

	 ================> DF-SCS-MP2 Energies <==================
	-----------------------------------------------------------
	 SCS Same-Spin Scale       =       0.3333333333333333 [-]
	 SCS Opposite-Spin Scale   =       1.2000000000000000 [-]
	 SCS Same-Spin Energy      =      -0.1347097284693703 [Eh]
	 SCS Opposite-Spin Energy  =      -1.4754087744896536 [Eh]
	 SCS Correlation Energy    =      -1.6101185029590239 [Eh]
	 SCS Total Energy          =    -721.8922122730201636 [Eh]
	-----------------------------------------------------------

  Dipole Moment: [D]
     X:     0.5741      Y:    -2.5560      Z:    -1.9246     Total:     3.2507

*** Psi4 exiting successfully. Buy a developer a beer!
