                               Psi4 1.3.2 release

  ==> Input File <==

--------------------------------------------------------------------------
#psi4
#
memory 32 gb

molecule  {
0 1
  P       -0.0357750     0.4680410     0.0705770
  O        1.1442277    -0.4154246     0.7012701
  O       -1.0048410    -0.5865790    -0.6866490
  O        0.8206973     1.0747728    -1.1686449
  O       -0.7044350     1.4170700     0.9839100
  C        1.8748370    -1.3345260    -0.0598200
  C       -1.9591270    -1.2882720     0.1502070
  H        1.2215740    -2.0052580    -0.6255210
  H        2.4895380    -1.9045040     0.6353170
  H        2.5026780    -0.7584230    -0.7438410
  H       -2.6431830    -0.5774540     0.6174740
  H       -1.4396990    -1.8621430     0.9229490
  H       -2.4975470    -1.9601810    -0.5134620
  H        0.3645100     1.9871850    -1.4006590
units angstrom
no_reorient  #important for SAPT in psi4, default
symmetry c1  #important for SAPT in psi4, default
}

set PROPERTIES_ORIGIN ["COM"]
properties('MP2/aug-cc-pvtz', properties = ['dipole'])
--------------------------------------------------------------------------

    Molecular point group: c1
  Charge       = 0
  Multiplicity = 1
  Basis Set: AUG-CC-PVTZ
    Blend: AUG-CC-PVTZ
  Basis Set: (AUG-CC-PVTZ AUX)
    Blend: AUG-CC-PVTZ-JKFIT

    Orbital Energies [Eh]
    ---------------------

    Doubly Occupied:

       1A    -80.111210     2A    -20.613038     3A    -20.600221
       4A    -20.590594     5A    -20.522805     6A    -11.301002
       7A    -11.292186     8A     -7.626701     9A     -5.525437
      10A     -5.524696    11A     -5.523568    12A     -1.452058
      13A     -1.387132    14A     -1.371190    15A     -1.302098
      16A     -0.973485    17A     -0.956331    18A     -0.806720
      19A     -0.728602    20A     -0.707425    21A     -0.679680
      22A     -0.660333    23A     -0.640891    24A     -0.633519
      25A     -0.629767    26A     -0.578231    27A     -0.557257
      28A     -0.540246    29A     -0.515608    30A     -0.495949
      31A     -0.482840    32A     -0.476611    33A     -0.470442

  @DF-RHF Final Energy:  -720.27009233241245

   => Energetics <=

    Nuclear Repulsion Energy =            451.8417245549547374
    One-Electron Energy =               -1891.6678818141654119
    Two-Electron Energy =                 719.5560649267982853
    Total Energy =                       -720.2700923324124460
  Basis Set: (AUG-CC-PVTZ AUX)
    Blend: AUG-CC-PVTZ-RI
    Molecular point group: c1

    Geometry (in Angstrom), charge = 0, multiplicity = 1:

       Center              X                  Y                   Z               Mass
    ------------   -----------------  -----------------  -----------------  -----------------
         P           -0.051388047402     0.470286250589     0.075074228355    30.973761998420
         O            1.128614652598    -0.413179349411     0.705767328355    15.994914619570
         O           -1.020454047402    -0.584333749411    -0.682151771645    15.994914619570
         O            0.805084252598     1.077018050589    -1.164147671645    15.994914619570
         O           -0.720048047402     1.419315250589     0.988407228355    15.994914619570
         C            1.859223952598    -1.332280749411    -0.055322771645    12.000000000000
         C           -1.974740047402    -1.286026749411     0.154704228355    12.000000000000
         H            1.205960952598    -2.003012749411    -0.621023771645     1.007825032230
         H            2.473924952598    -1.902258749411     0.639814228355     1.007825032230
         H            2.487064952598    -0.756177749411    -0.739343771645     1.007825032230
         H           -2.658796047402    -0.575208749411     0.621971228355     1.007825032230
         H           -1.455312047402    -1.859897749411     0.927446228355     1.007825032230
         H           -2.513160047402    -1.957935749411    -0.508964771645     1.007825032230
         H            0.348896952598     1.989430250589    -1.396161771645     1.007825032230

  Basis Set: AUG-CC-PVTZ
    Blend: AUG-CC-PVTZ
  Basis Set: (AUG-CC-PVTZ AUX)
    Blend: AUG-CC-PVTZ-JKFIT
	 Reference Energy          =    -720.2700923324124460 [Eh]
	 Singles Energy            =      -0.0000000000000000 [Eh]
	 Same-Spin Energy          =      -0.4054234671149233 [Eh]
	 Opposite-Spin Energy      =      -1.2319631381813108 [Eh]
	 Correlation Energy        =      -1.6373866052962340 [Eh]
	 Total Energy              =    -721.9074789377086745 [Eh]

	 ================> DF-SCS-MP2 Energies <==================
	-----------------------------------------------------------
	 SCS Same-Spin Scale       =       0.3333333333333333 [-]
	 SCS Opposite-Spin Scale   =       1.2000000000000000 [-]
	 SCS Same-Spin Energy      =      -0.1351411557049744 [Eh]
	 SCS Opposite-Spin Energy  =      -1.4783557658175728 [Eh]
	 SCS Correlation Energy    =      -1.6134969215225472 [Eh]
	 SCS Total Energy          =    -721.8835892539350425 [Eh]
	-----------------------------------------------------------

  Dipole Moment: [D]
     X:     0.0567      Y:    -2.3891      Z:    -1.8474     Total:     3.0206

*** Psi4 exiting successfully. Buy a developer a beer!
