                               Psi4 1.3.2 release

  ==> Input File <==

--------------------------------------------------------------------------
#psi4
#
memory 32 gb

molecule  {
0 1
  P       -0.0357750     0.4680410     0.0705770
  O        1.0907140    -0.4402950     0.7609680
  O       -1.0048410    -0.5865790    -0.6866490
  O        0.7356984     1.1687804    -1.1748676
  O       -0.6877028     1.4558801     0.9543776
  C        1.8748370    -1.3345260    -0.0598200
  C       -1.9591270    -1.2882720     0.1502070
  H        1.2215740    -2.0052580    -0.6255210
  H        2.4895380    -1.9045040     0.6353170
  H        2.5026780    -0.7584230    -0.7438410
  H       -2.6431830    -0.5774540     0.6174740
  H       -1.4396990    -1.8621430     0.9229490
  H       -2.4975470    -1.9601810    -0.5134620
  H        0.3645100     1.9871850    -1.4006590
units angstrom
no_reorient  #important for SAPT in psi4, default
symmetry c1  #important for SAPT in psi4, default
}

set PROPERTIES_ORIGIN ["COM"]
properties('MP2/aug-cc-pvtz', properties = ['dipole'])
--------------------------------------------------------------------------

    Molecular point group: c1
  Charge       = 0
  Multiplicity = 1
  Basis Set: AUG-CC-PVTZ
    Blend: AUG-CC-PVTZ
  Basis Set: (AUG-CC-PVTZ AUX)
    Blend: AUG-CC-PVTZ-JKFIT

    Orbital Energies [Eh]
    ---------------------

    Doubly Occupied:

       1A    -80.110522     2A    -20.602254     3A    -20.599441
       4A    -20.599168     5A    -20.512130     6A    -11.303040
       7A    -11.300795     8A     -7.625838     9A     -5.524304
      10A     -5.523899    11A     -5.522848    12A     -1.452174
      13A     -1.389028    14A     -1.383217    15A     -1.294090
      16A     -0.975012    17A     -0.959374    18A     -0.826670
      19A     -0.738353    20A     -0.710860    21A     -0.678600
      22A     -0.655516    23A     -0.646693    24A     -0.634321
      25A     -0.630175    26A     -0.570316    27A     -0.560784
      28A     -0.544374    29A     -0.520254    30A     -0.502420
      31A     -0.491906    32A     -0.467592    33A     -0.463139

  @DF-RHF Final Energy:  -720.28159527392870

   => Energetics <=

    Nuclear Repulsion Energy =            450.9307915931223647
    One-Electron Energy =               -1889.7865611366139547
    Two-Electron Energy =                 718.5741742695628318
    Total Energy =                       -720.2815952739287013
  Basis Set: (AUG-CC-PVTZ AUX)
    Blend: AUG-CC-PVTZ-RI
    Molecular point group: c1

    Geometry (in Angstrom), charge = 0, multiplicity = 1:

       Center              X                  Y                   Z               Mass
    ------------   -----------------  -----------------  -----------------  -----------------
         P           -0.035929790188     0.456583904982     0.072035036820    30.973761998420
         O            1.090559209812    -0.451752095018     0.762426036820    15.994914619570
         O           -1.004995790188    -0.598036095018    -0.685190963180    15.994914619570
         O            0.735543609812     1.157323304982    -1.173409563180    15.994914619570
         O           -0.687857590188     1.444423004982     0.955835636820    15.994914619570
         C            1.874682209812    -1.345983095018    -0.058361963180    12.000000000000
         C           -1.959281790188    -1.299729095018     0.151665036820    12.000000000000
         H            1.221419209812    -2.016715095018    -0.624062963180     1.007825032230
         H            2.489383209812    -1.915961095018     0.636775036820     1.007825032230
         H            2.502523209812    -0.769880095018    -0.742382963180     1.007825032230
         H           -2.643337790188    -0.588911095018     0.618932036820     1.007825032230
         H           -1.439853790188    -1.873600095018     0.924407036820     1.007825032230
         H           -2.497701790188    -1.971638095018    -0.512003963180     1.007825032230
         H            0.364355209812     1.975727904982    -1.399200963180     1.007825032230

  Basis Set: AUG-CC-PVTZ
    Blend: AUG-CC-PVTZ
  Basis Set: (AUG-CC-PVTZ AUX)
    Blend: AUG-CC-PVTZ-JKFIT
	 Reference Energy          =    -720.2815952739287013 [Eh]
	 Singles Energy            =      -0.0000000000000000 [Eh]
	 Same-Spin Energy          =      -0.4034686123792759 [Eh]
	 Opposite-Spin Energy      =      -1.2282393647050682 [Eh]
	 Correlation Energy        =      -1.6317079770843441 [Eh]
	 Total Energy              =    -721.9133032510130761 [Eh]

	 ================> DF-SCS-MP2 Energies <==================
	-----------------------------------------------------------
	 SCS Same-Spin Scale       =       0.3333333333333333 [-]
	 SCS Opposite-Spin Scale   =       1.2000000000000000 [-]
	 SCS Same-Spin Energy      =      -0.1344895374597586 [Eh]
	 SCS Opposite-Spin Energy  =      -1.4738872376460819 [Eh]
	 SCS Correlation Energy    =      -1.6083767751058404 [Eh]
	 SCS Total Energy          =    -721.8899720490345544 [Eh]
	-----------------------------------------------------------

  Dipole Moment: [D]
     X:     0.4527      Y:    -2.8612      Z:    -1.8888     Total:     3.4581

*** Psi4 exiting successfully. Buy a developer a beer!
