                               Psi4 1.3.2 release

  ==> Input File <==

--------------------------------------------------------------------------
#psi4
#
memory 32 gb

molecule  {
0 1
  P       -0.0357750     0.4680410     0.0705770
  O        1.0907140    -0.4402950     0.7609680
  O       -1.0048410    -0.5865790    -0.6866490
  O        0.7512110     1.1173330    -1.1929150
  O       -0.7044350     1.4170700     0.9839100
  C        1.9290994    -1.3964080    -0.1166197
  C       -1.9591270    -1.2882720     0.1502070
  H        1.2215740    -2.0052580    -0.6255210
  H        2.4895380    -1.9045040     0.6353170
  H        2.5026780    -0.7584230    -0.7438410
  H       -2.6431830    -0.5774540     0.6174740
  H       -1.4396990    -1.8621430     0.9229490
  H       -2.4975470    -1.9601810    -0.5134620
  H        0.3645100     1.9871850    -1.4006590
units angstrom
no_reorient  #important for SAPT in psi4, default
symmetry c1  #important for SAPT in psi4, default
}

set PROPERTIES_ORIGIN ["COM"]
properties('MP2/aug-cc-pvtz', properties = ['dipole'])
--------------------------------------------------------------------------

    Molecular point group: c1
  Charge       = 0
  Multiplicity = 1
  Basis Set: AUG-CC-PVTZ
    Blend: AUG-CC-PVTZ
  Basis Set: (AUG-CC-PVTZ AUX)
    Blend: AUG-CC-PVTZ-JKFIT

    Orbital Energies [Eh]
    ---------------------

    Doubly Occupied:

       1A    -80.103115     2A    -20.605016     3A    -20.592974
       4A    -20.588121     5A    -20.510599     6A    -11.305693
       7A    -11.296261     8A     -7.618620     9A     -5.517120
      10A     -5.516654    11A     -5.515632    12A     -1.439971
      13A     -1.377715    14A     -1.358249    15A     -1.290640
      16A     -0.976842    17A     -0.958685    18A     -0.811510
      19A     -0.726812    20A     -0.696705    21A     -0.670885
      22A     -0.656202    23A     -0.640996    24A     -0.633547
      25A     -0.618140    26A     -0.566673    27A     -0.559264
      28A     -0.549094    29A     -0.517963    30A     -0.504400
      31A     -0.487998    32A     -0.465605    33A     -0.460115

  @DF-RHF Final Energy:  -720.27343600769098

   => Energetics <=

    Nuclear Repulsion Energy =            449.0577958813983628
    One-Electron Energy =               -1886.3868282795181130
    Two-Electron Energy =                 717.0555963904288319
    Total Energy =                       -720.2734360076909752
  Basis Set: (AUG-CC-PVTZ AUX)
    Blend: AUG-CC-PVTZ-RI
    Molecular point group: c1

    Geometry (in Angstrom), charge = 0, multiplicity = 1:

       Center              X                  Y                   Z               Mass
    ------------   -----------------  -----------------  -----------------  -----------------
         P           -0.040942491136     0.473933927289     0.075986325884    30.973761998420
         O            1.085546508864    -0.434402072711     0.766377325884    15.994914619570
         O           -1.010008491136    -0.580686072711    -0.681239674116    15.994914619570
         O            0.746043508864     1.123225927289    -1.187505674116    15.994914619570
         O           -0.709602491136     1.422962927289     0.989319325884    15.994914619570
         C            1.923931908864    -1.390515072711    -0.111210374116    12.000000000000
         C           -1.964294491136    -1.282379072711     0.155616325884    12.000000000000
         H            1.216406508864    -1.999365072711    -0.620111674116     1.007825032230
         H            2.484370508864    -1.898611072711     0.640726325884     1.007825032230
         H            2.497510508864    -0.752530072711    -0.738431674116     1.007825032230
         H           -2.648350491136    -0.571561072711     0.622883325884     1.007825032230
         H           -1.444866491136    -1.856250072711     0.928358325884     1.007825032230
         H           -2.502714491136    -1.954288072711    -0.508052674116     1.007825032230
         H            0.359342508864     1.993077927289    -1.395249674116     1.007825032230

  Basis Set: AUG-CC-PVTZ
    Blend: AUG-CC-PVTZ
  Basis Set: (AUG-CC-PVTZ AUX)
    Blend: AUG-CC-PVTZ-JKFIT
	 Reference Energy          =    -720.2734360076909752 [Eh]
	 Singles Energy            =      -0.0000000000000000 [Eh]
	 Same-Spin Energy          =      -0.4042999783818476 [Eh]
	 Opposite-Spin Energy      =      -1.2310886154955694 [Eh]
	 Correlation Energy        =      -1.6353885938774169 [Eh]
	 Total Energy              =    -721.9088246015684263 [Eh]

	 ================> DF-SCS-MP2 Energies <==================
	-----------------------------------------------------------
	 SCS Same-Spin Scale       =       0.3333333333333333 [-]
	 SCS Opposite-Spin Scale   =       1.2000000000000000 [-]
	 SCS Same-Spin Energy      =      -0.1347666594606159 [Eh]
	 SCS Opposite-Spin Energy  =      -1.4773063385946832 [Eh]
	 SCS Correlation Energy    =      -1.6120729980552990 [Eh]
	 SCS Total Energy          =    -721.8855090057462576 [Eh]
	-----------------------------------------------------------

  Dipole Moment: [D]
     X:     0.7678      Y:    -2.8284      Z:    -2.0897     Total:     3.5995

*** Psi4 exiting successfully. Buy a developer a beer!
