                               Psi4 1.3.2 release

  ==> Input File <==

--------------------------------------------------------------------------
#psi4
#
memory 32 gb

molecule  {
0 1
  P       -0.0357750     0.4680410     0.0705770
  O        1.0907140    -0.4402950     0.7609680
  O       -0.9593978    -0.6084566    -0.7122240
  O        0.7512110     1.1173330    -1.1929150
  O       -0.6584350     1.4377231     0.9946714
  C        1.8748370    -1.3345260    -0.0598200
  C       -1.9591270    -1.2882720     0.1502070
  H        1.2215740    -2.0052580    -0.6255210
  H        2.4895380    -1.9045040     0.6353170
  H        2.5026780    -0.7584230    -0.7438410
  H       -2.6431830    -0.5774540     0.6174740
  H       -1.4396990    -1.8621430     0.9229490
  H       -2.4975470    -1.9601810    -0.5134620
  H        0.3645100     1.9871850    -1.4006590
units angstrom
no_reorient  #important for SAPT in psi4, default
symmetry c1  #important for SAPT in psi4, default
}

set PROPERTIES_ORIGIN ["COM"]
properties('MP2/aug-cc-pvtz', properties = ['dipole'])
--------------------------------------------------------------------------

    Molecular point group: c1
  Charge       = 0
  Multiplicity = 1
  Basis Set: AUG-CC-PVTZ
    Blend: AUG-CC-PVTZ
  Basis Set: (AUG-CC-PVTZ AUX)
    Blend: AUG-CC-PVTZ-JKFIT

    Orbital Energies [Eh]
    ---------------------

    Doubly Occupied:

       1A    -80.107915     2A    -20.603849     3A    -20.600483
       4A    -20.594563     5A    -20.517421     6A    -11.304787
       7A    -11.298033     8A     -7.623571     9A     -5.522053
      10A     -5.521648    11A     -5.520525    12A     -1.447193
      13A     -1.379051    14A     -1.373689    15A     -1.297436
      16A     -0.971235    17A     -0.957309    18A     -0.815869
      19A     -0.728413    20A     -0.706449    21A     -0.676154
      22A     -0.652745    23A     -0.639563    24A     -0.630603
      25A     -0.623567    26A     -0.572984    27A     -0.557124
      28A     -0.545130    29A     -0.519651    30A     -0.501204
      31A     -0.489371    32A     -0.471856    33A     -0.467789

  @DF-RHF Final Energy:  -720.27813924448674

   => Energetics <=

    Nuclear Repulsion Energy =            450.7880910383709079
    One-Electron Energy =               -1889.6539948911854481
    Two-Electron Energy =                 718.5877646083276886
    Total Energy =                       -720.2781392444867379
  Basis Set: (AUG-CC-PVTZ AUX)
    Blend: AUG-CC-PVTZ-RI
    Molecular point group: c1

    Geometry (in Angstrom), charge = 0, multiplicity = 1:

       Center              X                  Y                   Z               Mass
    ------------   -----------------  -----------------  -----------------  -----------------
         P           -0.047382368892     0.468196219332     0.072457554360    30.973761998420
         O            1.079106631108    -0.440139780668     0.762848554360    15.994914619570
         O           -0.971005168892    -0.608301380668    -0.710343445640    15.994914619570
         O            0.739603631108     1.117488219332    -1.191034445640    15.994914619570
         O           -0.670042368892     1.437878319332     0.996551954360    15.994914619570
         C            1.863229631108    -1.334370780668    -0.057939445640    12.000000000000
         C           -1.970734368892    -1.288116780668     0.152087554360    12.000000000000
         H            1.209966631108    -2.005102780668    -0.623640445640     1.007825032230
         H            2.477930631108    -1.904348780668     0.637197554360     1.007825032230
         H            2.491070631108    -0.758267780668    -0.741960445640     1.007825032230
         H           -2.654790368892    -0.577298780668     0.619354554360     1.007825032230
         H           -1.451306368892    -1.861987780668     0.924829554360     1.007825032230
         H           -2.509154368892    -1.960025780668    -0.511581445640     1.007825032230
         H            0.352902631108     1.987340219332    -1.398778445640     1.007825032230

  Basis Set: AUG-CC-PVTZ
    Blend: AUG-CC-PVTZ
  Basis Set: (AUG-CC-PVTZ AUX)
    Blend: AUG-CC-PVTZ-JKFIT
	 Reference Energy          =    -720.2781392444867379 [Eh]
	 Singles Energy            =      -0.0000000000000000 [Eh]
	 Same-Spin Energy          =      -0.4046153777765388 [Eh]
	 Opposite-Spin Energy      =      -1.2311105674862186 [Eh]
	 Correlation Energy        =      -1.6357259452627573 [Eh]
	 Total Energy              =    -721.9138651897494583 [Eh]

	 ================> DF-SCS-MP2 Energies <==================
	-----------------------------------------------------------
	 SCS Same-Spin Scale       =       0.3333333333333333 [-]
	 SCS Opposite-Spin Scale   =       1.2000000000000000 [-]
	 SCS Same-Spin Energy      =      -0.1348717925921796 [Eh]
	 SCS Opposite-Spin Energy  =      -1.4773326809834624 [Eh]
	 SCS Correlation Energy    =      -1.6122044735756420 [Eh]
	 SCS Total Energy          =    -721.8903437180623541 [Eh]
	-----------------------------------------------------------

  Dipole Moment: [D]
     X:     0.1284      Y:    -2.6256      Z:    -1.8805     Total:     3.2321

*** Psi4 exiting successfully. Buy a developer a beer!
