                               Psi4 1.3.2 release

  ==> Input File <==

--------------------------------------------------------------------------
#psi4
#
memory 32 gb

molecule  {
0 1
  P       -0.0357750     0.4680410     0.0705770
  O        1.1335258    -0.4194682     0.7776272
  O       -1.0048410    -0.5865790    -0.6866490
  O        0.7512110     1.1173330    -1.1929150
  O       -0.7044350     1.4170700     0.9839100
  C        1.8748370    -1.3345260    -0.0598200
  C       -1.9591270    -1.2882720     0.1502070
  H        1.2525725    -2.0213396    -0.6409616
  H        2.4895380    -1.9045040     0.6353170
  H        2.5026780    -0.7584230    -0.7438410
  H       -2.6431830    -0.5774540     0.6174740
  H       -1.4396990    -1.8621430     0.9229490
  H       -2.4975470    -1.9601810    -0.5134620
  H        0.3645100     1.9871850    -1.4006590
units angstrom
no_reorient  #important for SAPT in psi4, default
symmetry c1  #important for SAPT in psi4, default
}

set PROPERTIES_ORIGIN ["COM"]
properties('MP2/aug-cc-pvtz', properties = ['dipole'])
--------------------------------------------------------------------------

    Molecular point group: c1
  Charge       = 0
  Multiplicity = 1
  Basis Set: AUG-CC-PVTZ
    Blend: AUG-CC-PVTZ
  Basis Set: (AUG-CC-PVTZ AUX)
    Blend: AUG-CC-PVTZ-JKFIT

    Orbital Energies [Eh]
    ---------------------

    Doubly Occupied:

       1A    -80.112553     2A    -20.608833     3A    -20.600537
       4A    -20.599667     5A    -20.516749     6A    -11.300335
       7A    -11.298235     8A     -7.627651     9A     -5.526098
      10A     -5.525604    11A     -5.524692    12A     -1.447684
      13A     -1.382731    14A     -1.379096    15A     -1.297532
      16A     -0.970875    17A     -0.956052    18A     -0.818818
      19A     -0.731740    20A     -0.708195    21A     -0.675605
      22A     -0.656916    23A     -0.641776    24A     -0.633838
      25A     -0.625514    26A     -0.573955    27A     -0.561008
      28A     -0.541664    29A     -0.519933    30A     -0.498914
      31A     -0.489798    32A     -0.471404    33A     -0.466628

  @DF-RHF Final Energy:  -720.27842126745770

   => Energetics <=

    Nuclear Repulsion Energy =            449.8753162251568369
    One-Electron Energy =               -1887.7262180954046471
    Two-Electron Energy =                 717.5724806027900513
    Total Energy =                       -720.2784212674577020
  Basis Set: (AUG-CC-PVTZ AUX)
    Blend: AUG-CC-PVTZ-RI
    Molecular point group: c1

    Geometry (in Angstrom), charge = 0, multiplicity = 1:

       Center              X                  Y                   Z               Mass
    ------------   -----------------  -----------------  -----------------  -----------------
         P           -0.041457246146     0.465525748417     0.068586033758    30.973761998420
         O            1.127843553854    -0.421983451583     0.775636233758    15.994914619570
         O           -1.010523246146    -0.589094251583    -0.688639966242    15.994914619570
         O            0.745528753854     1.114817748417    -1.194905966242    15.994914619570
         O           -0.710117246146     1.414554748417     0.981919033758    15.994914619570
         C            1.869154753854    -1.337041251583    -0.061810966242    12.000000000000
         C           -1.964809246146    -1.290787251583     0.148216033758    12.000000000000
         H            1.246890253854    -2.023854851583    -0.642952566242     1.007825032230
         H            2.483855753854    -1.907019251583     0.633326033758     1.007825032230
         H            2.496995753854    -0.760938251583    -0.745831966242     1.007825032230
         H           -2.648865246146    -0.579969251583     0.615483033758     1.007825032230
         H           -1.445381246146    -1.864658251583     0.920958033758     1.007825032230
         H           -2.503229246146    -1.962696251583    -0.515452966242     1.007825032230
         H            0.358827753854     1.984669748417    -1.402649966242     1.007825032230

  Basis Set: AUG-CC-PVTZ
    Blend: AUG-CC-PVTZ
  Basis Set: (AUG-CC-PVTZ AUX)
    Blend: AUG-CC-PVTZ-JKFIT
	 Reference Energy          =    -720.2784212674577020 [Eh]
	 Singles Energy            =      -0.0000000000000000 [Eh]
	 Same-Spin Energy          =      -0.4046257861201020 [Eh]
	 Opposite-Spin Energy      =      -1.2310171790938473 [Eh]
	 Correlation Energy        =      -1.6356429652139495 [Eh]
	 Total Energy              =    -721.9140642326716488 [Eh]

	 ================> DF-SCS-MP2 Energies <==================
	-----------------------------------------------------------
	 SCS Same-Spin Scale       =       0.3333333333333333 [-]
	 SCS Opposite-Spin Scale   =       1.2000000000000000 [-]
	 SCS Same-Spin Energy      =      -0.1348752620400340 [Eh]
	 SCS Opposite-Spin Energy  =      -1.4772206149126168 [Eh]
	 SCS Correlation Energy    =      -1.6120958769526508 [Eh]
	 SCS Total Energy          =    -721.8905171444102962 [Eh]
	-----------------------------------------------------------

  Dipole Moment: [D]
     X:     0.2841      Y:    -2.5640      Z:    -1.9985     Total:     3.2632

*** Psi4 exiting successfully. Buy a developer a beer!
