                               Psi4 1.3.2 release

  ==> Input File <==

--------------------------------------------------------------------------
#psi4
#
memory 32 gb

molecule  {
0 1
  P       -0.0357750     0.4680410     0.0705770
  O        1.0341127    -0.4626758     0.8187736
  O       -1.0048410    -0.5865790    -0.6866490
  O        0.6795676     1.1581136    -1.2137220
  O       -0.7044350     1.4170700     0.9839100
  C        1.8748370    -1.3345260    -0.0598200
  C       -1.9591270    -1.2882720     0.1502070
  H        1.2215740    -2.0052580    -0.6255210
  H        2.4895380    -1.9045040     0.6353170
  H        2.5026780    -0.7584230    -0.7438410
  H       -2.6431830    -0.5774540     0.6174740
  H       -1.4396990    -1.8621430     0.9229490
  H       -2.4975470    -1.9601810    -0.5134620
  H        0.3645100     1.9871850    -1.4006590
units angstrom
no_reorient  #important for SAPT in psi4, default
symmetry c1  #important for SAPT in psi4, default
}

set PROPERTIES_ORIGIN ["COM"]
properties('MP2/aug-cc-pvtz', properties = ['dipole'])
--------------------------------------------------------------------------

    Molecular point group: c1
  Charge       = 0
  Multiplicity = 1
  Basis Set: AUG-CC-PVTZ
    Blend: AUG-CC-PVTZ
  Basis Set: (AUG-CC-PVTZ AUX)
    Blend: AUG-CC-PVTZ-JKFIT

    Orbital Energies [Eh]
    ---------------------

    Doubly Occupied:

       1A    -80.108749     2A    -20.605721     3A    -20.602536
       4A    -20.592920     5A    -20.507847     6A    -11.310098
       7A    -11.296020     8A     -7.624166     9A     -5.522510
      10A     -5.522189    11A     -5.521263    12A     -1.450861
      13A     -1.392289    14A     -1.374265    15A     -1.290380
      16A     -0.972250    17A     -0.958392    18A     -0.832624
      19A     -0.736472    20A     -0.707310    21A     -0.677028
      22A     -0.652298    23A     -0.641650    24A     -0.629555
      25A     -0.626778    26A     -0.566322    27A     -0.564655
      28A     -0.546750    29A     -0.524774    30A     -0.503845
      31A     -0.490117    32A     -0.464342    33A     -0.459096

  @DF-RHF Final Energy:  -720.27574367246166

   => Energetics <=

    Nuclear Repulsion Energy =            450.5215996565390810
    One-Electron Energy =               -1889.0425421082090907
    Two-Electron Energy =                 718.2451987792082946
    Total Energy =                       -720.2757436724616582
  Basis Set: (AUG-CC-PVTZ AUX)
    Blend: AUG-CC-PVTZ-RI
    Molecular point group: c1

    Geometry (in Angstrom), charge = 0, multiplicity = 1:

       Center              X                  Y                   Z               Mass
    ------------   -----------------  -----------------  -----------------  -----------------
         P           -0.019496173205     0.465705198798     0.065880746314    30.973761998420
         O            1.050391526795    -0.465011601202     0.814077346314    15.994914619570
         O           -0.988562173205    -0.588914801202    -0.691345253686    15.994914619570
         O            0.695846426795     1.155777798798    -1.218418253686    15.994914619570
         O           -0.688156173205     1.414734198798     0.979213746314    15.994914619570
         C            1.891115826795    -1.336861801202    -0.064516253686    12.000000000000
         C           -1.942848173205    -1.290607801202     0.145510746314    12.000000000000
         H            1.237852826795    -2.007593801202    -0.630217253686     1.007825032230
         H            2.505816826795    -1.906839801202     0.630620746314     1.007825032230
         H            2.518956826795    -0.760758801202    -0.748537253686     1.007825032230
         H           -2.626904173205    -0.579789801202     0.612777746314     1.007825032230
         H           -1.423420173205    -1.864478801202     0.918252746314     1.007825032230
         H           -2.481268173205    -1.962516801202    -0.518158253686     1.007825032230
         H            0.380788826795     1.984849198798    -1.405355253686     1.007825032230

  Basis Set: AUG-CC-PVTZ
    Blend: AUG-CC-PVTZ
  Basis Set: (AUG-CC-PVTZ AUX)
    Blend: AUG-CC-PVTZ-JKFIT
	 Reference Energy          =    -720.2757436724616582 [Eh]
	 Singles Energy            =      -0.0000000000000000 [Eh]
	 Same-Spin Energy          =      -0.4035473381907798 [Eh]
	 Opposite-Spin Energy      =      -1.2290276431754164 [Eh]
	 Correlation Energy        =      -1.6325749813661963 [Eh]
	 Total Energy              =    -721.9083186538279051 [Eh]

	 ================> DF-SCS-MP2 Energies <==================
	-----------------------------------------------------------
	 SCS Same-Spin Scale       =       0.3333333333333333 [-]
	 SCS Opposite-Spin Scale   =       1.2000000000000000 [-]
	 SCS Same-Spin Energy      =      -0.1345157793969266 [Eh]
	 SCS Opposite-Spin Energy  =      -1.4748331718104997 [Eh]
	 SCS Correlation Energy    =      -1.6093489512074264 [Eh]
	 SCS Total Energy          =    -721.8850926236690384 [Eh]
	-----------------------------------------------------------

  Dipole Moment: [D]
     X:     0.9081      Y:    -2.7499      Z:    -2.0330     Total:     3.5383

*** Psi4 exiting successfully. Buy a developer a beer!
