                               Psi4 1.3.2 release

  ==> Input File <==

--------------------------------------------------------------------------
#psi4
#
memory 32 gb

molecule  {
0 1
  P       -0.0357750     0.4680410     0.0705770
  O        1.0907140    -0.4402950     0.7609680
  O       -1.0048410    -0.5865790    -0.6866490
  O        0.7512110     1.1173330    -1.1929150
  O       -0.7044350     1.4170700     0.9839100
  C        1.8748370    -1.3345260    -0.0598200
  C       -2.0907257    -1.3850374     0.2656117
  H        1.2215740    -2.0052580    -0.6255210
  H        2.4895380    -1.9045040     0.6353170
  H        2.5026780    -0.7584230    -0.7438410
  H       -2.6431830    -0.5774540     0.6174740
  H       -1.4396990    -1.8621430     0.9229490
  H       -2.4975470    -1.9601810    -0.5134620
  H        0.3645100     1.9871850    -1.4006590
units angstrom
no_reorient  #important for SAPT in psi4, default
symmetry c1  #important for SAPT in psi4, default
}

set PROPERTIES_ORIGIN ["COM"]
properties('MP2/aug-cc-pvtz', properties = ['dipole'])
--------------------------------------------------------------------------

    Molecular point group: c1
  Charge       = 0
  Multiplicity = 1
  Basis Set: AUG-CC-PVTZ
    Blend: AUG-CC-PVTZ
  Basis Set: (AUG-CC-PVTZ AUX)
    Blend: AUG-CC-PVTZ-JKFIT

    Orbital Energies [Eh]
    ---------------------

    Doubly Occupied:

       1A    -80.097192     2A    -20.599021     3A    -20.590973
       4A    -20.575261     5A    -20.507114     6A    -11.311739
       7A    -11.295710     8A     -7.612632     9A     -5.511238
      10A     -5.510547    11A     -5.509712    12A     -1.434328
      13A     -1.374464    14A     -1.334584    15A     -1.285522
      16A     -0.983751    17A     -0.958868    18A     -0.807884
      19A     -0.715563    20A     -0.693726    21A     -0.672006
      22A     -0.656075    23A     -0.645388    24A     -0.630616
      25A     -0.607403    26A     -0.578991    27A     -0.549675
      28A     -0.528101    29A     -0.519392    30A     -0.502365
      31A     -0.482785    32A     -0.463736    33A     -0.454937

  @DF-RHF Final Energy:  -720.25493808311410

   => Energetics <=

    Nuclear Repulsion Energy =            447.0875242398567480
    One-Electron Energy =               -1882.6823293783302233
    Two-Electron Energy =                 715.3398670553593774
    Total Energy =                       -720.2549380831140979
  Basis Set: (AUG-CC-PVTZ AUX)
    Blend: AUG-CC-PVTZ-RI
    Molecular point group: c1

    Geometry (in Angstrom), charge = 0, multiplicity = 1:

       Center              X                  Y                   Z               Mass
    ------------   -----------------  -----------------  -----------------  -----------------
         P           -0.023242585288     0.477255939779     0.059586973536    30.973761998420
         O            1.103246414712    -0.431080060221     0.749977973536    15.994914619570
         O           -0.992308585288    -0.577364060221    -0.697639026464    15.994914619570
         O            0.763743414712     1.126547939779    -1.203905026464    15.994914619570
         O           -0.691902585288     1.426284939779     0.972919973536    15.994914619570
         C            1.887369414712    -1.325311060221    -0.070810026464    12.000000000000
         C           -2.078193285288    -1.375822460221     0.254621673536    12.000000000000
         H            1.234106414712    -1.996043060221    -0.636511026464     1.007825032230
         H            2.502070414712    -1.895289060221     0.624326973536     1.007825032230
         H            2.515210414712    -0.749208060221    -0.754831026464     1.007825032230
         H           -2.630650585288    -0.568239060221     0.606483973536     1.007825032230
         H           -1.427166585288    -1.852928060221     0.911958973536     1.007825032230
         H           -2.485014585288    -1.950966060221    -0.524452026464     1.007825032230
         H            0.377042414712     1.996399939779    -1.411649026464     1.007825032230

  Basis Set: AUG-CC-PVTZ
    Blend: AUG-CC-PVTZ
  Basis Set: (AUG-CC-PVTZ AUX)
    Blend: AUG-CC-PVTZ-JKFIT
	 Reference Energy          =    -720.2549380831140979 [Eh]
	 Singles Energy            =      -0.0000000000000000 [Eh]
	 Same-Spin Energy          =      -0.4046353596677342 [Eh]
	 Opposite-Spin Energy      =      -1.2326644687658579 [Eh]
	 Correlation Energy        =      -1.6372998284335920 [Eh]
	 Total Energy              =    -721.8922379115476815 [Eh]

	 ================> DF-SCS-MP2 Energies <==================
	-----------------------------------------------------------
	 SCS Same-Spin Scale       =       0.3333333333333333 [-]
	 SCS Opposite-Spin Scale   =       1.2000000000000000 [-]
	 SCS Same-Spin Energy      =      -0.1348784532225781 [Eh]
	 SCS Opposite-Spin Energy  =      -1.4791973625190293 [Eh]
	 SCS Correlation Energy    =      -1.6140758157416073 [Eh]
	 SCS Total Energy          =    -721.8690138988556555 [Eh]
	-----------------------------------------------------------

  Dipole Moment: [D]
     X:    -0.1287      Y:    -3.0213      Z:    -1.6783     Total:     3.4585

*** Psi4 exiting successfully. Buy a developer a beer!
