                               Psi4 1.3.2 release

  ==> Input File <==

--------------------------------------------------------------------------
#psi4
#
memory 32 gb

molecule  {
0 1
  P       -0.0357750     0.4680410     0.0705770
  O        1.0907140    -0.4402950     0.7609680
  O       -1.0048410    -0.5865790    -0.6866490
  O        0.7512110     1.1173330    -1.1929150
  O       -0.7044350     1.4170700     0.9839100
  C        1.8748370    -1.3345260    -0.0598200
  C       -2.0249263    -1.3366547     0.2079094
  H        1.2215740    -2.0052580    -0.6255210
  H        2.4895380    -1.9045040     0.6353170
  H        2.5026780    -0.7584230    -0.7438410
  H       -2.6431830    -0.5774540     0.6174740
  H       -1.4396990    -1.8621430     0.9229490
  H       -2.4975470    -1.9601810    -0.5134620
  H        0.3645100     1.9871850    -1.4006590
units angstrom
no_reorient  #important for SAPT in psi4, default
symmetry c1  #important for SAPT in psi4, default
}

set PROPERTIES_ORIGIN ["COM"]
properties('MP2/aug-cc-pvtz', properties = ['dipole'])
--------------------------------------------------------------------------

    Molecular point group: c1
  Charge       = 0
  Multiplicity = 1
  Basis Set: AUG-CC-PVTZ
    Blend: AUG-CC-PVTZ
  Basis Set: (AUG-CC-PVTZ AUX)
    Blend: AUG-CC-PVTZ-JKFIT

    Orbital Energies [Eh]
    ---------------------

    Doubly Occupied:

       1A    -80.103371     2A    -20.603790     3A    -20.594785
       4A    -20.586405     5A    -20.511241     6A    -11.303076
       7A    -11.298287     8A     -7.618844     9A     -5.517395
      10A     -5.516806    11A     -5.515899    12A     -1.440953
      13A     -1.378580    14A     -1.355407    15A     -1.291223
      16A     -0.975557    17A     -0.959894    18A     -0.812955
      19A     -0.722343    20A     -0.700425    21A     -0.673390
      22A     -0.654057    23A     -0.639768    24A     -0.633148
      25A     -0.615017    26A     -0.578050    27A     -0.553050
      28A     -0.541931    29A     -0.521040    30A     -0.503572
      31A     -0.487642    32A     -0.467535    33A     -0.460342

  @DF-RHF Final Energy:  -720.27310731545242

   => Energetics <=

    Nuclear Repulsion Energy =            449.0438257919663556
    One-Electron Energy =               -1886.3623129989516656
    Two-Electron Energy =                 717.0453798915328889
    Total Energy =                       -720.2731073154524211
  Basis Set: (AUG-CC-PVTZ AUX)
    Blend: AUG-CC-PVTZ-RI
    Molecular point group: c1

    Geometry (in Angstrom), charge = 0, multiplicity = 1:

       Center              X                  Y                   Z               Mass
    ------------   -----------------  -----------------  -----------------  -----------------
         P           -0.029508787225     0.472648363289     0.065082073249    30.973761998420
         O            1.096980212775    -0.435687636711     0.755473073249    15.994914619570
         O           -0.998574787225    -0.581971636711    -0.692143926751    15.994914619570
         O            0.757477212775     1.121940363289    -1.198409926751    15.994914619570
         O           -0.698168787225     1.421677363289     0.978415073249    15.994914619570
         C            1.881103212775    -1.329918636711    -0.065314926751    12.000000000000
         C           -2.018660087225    -1.332047336711     0.202414473249    12.000000000000
         H            1.227840212775    -2.000650636711    -0.631015926751     1.007825032230
         H            2.495804212775    -1.899896636711     0.629822073249     1.007825032230
         H            2.508944212775    -0.753815636711    -0.749335926751     1.007825032230
         H           -2.636916787225    -0.572846636711     0.611979073249     1.007825032230
         H           -1.433432787225    -1.857535636711     0.917454073249     1.007825032230
         H           -2.491280787225    -1.955573636711    -0.518956926751     1.007825032230
         H            0.370776212775     1.991792363289    -1.406153926751     1.007825032230

  Basis Set: AUG-CC-PVTZ
    Blend: AUG-CC-PVTZ
  Basis Set: (AUG-CC-PVTZ AUX)
    Blend: AUG-CC-PVTZ-JKFIT
	 Reference Energy          =    -720.2731073154524211 [Eh]
	 Singles Energy            =      -0.0000000000000000 [Eh]
	 Same-Spin Energy          =      -0.4043174165875684 [Eh]
	 Opposite-Spin Energy      =      -1.2311031899088474 [Eh]
	 Correlation Energy        =      -1.6354206064964156 [Eh]
	 Total Energy              =    -721.9085279219488029 [Eh]

	 ================> DF-SCS-MP2 Energies <==================
	-----------------------------------------------------------
	 SCS Same-Spin Scale       =       0.3333333333333333 [-]
	 SCS Opposite-Spin Scale   =       1.2000000000000000 [-]
	 SCS Same-Spin Energy      =      -0.1347724721958561 [Eh]
	 SCS Opposite-Spin Energy  =      -1.4773238278906169 [Eh]
	 SCS Correlation Energy    =      -1.6120963000864730 [Eh]
	 SCS Total Energy          =    -721.8852036155388987 [Eh]
	-----------------------------------------------------------

  Dipole Moment: [D]
     X:     0.1585      Y:    -2.8038      Z:    -1.8072     Total:     3.3395

*** Psi4 exiting successfully. Buy a developer a beer!
