                               Psi4 1.3.2 release

  ==> Input File <==

--------------------------------------------------------------------------
#psi4
#
memory 32 gb

molecule  {
0 1
  P       -0.0357750     0.4680410     0.0705770
  O        1.0801499    -0.4147052     0.8096049
  O       -1.0048410    -0.5865790    -0.6866490
  O        0.7512110     1.1173330    -1.1929150
  O       -0.6748711     1.3995211     1.0223335
  C        1.8748370    -1.3345260    -0.0598200
  C       -1.9591270    -1.2882720     0.1502070
  H        1.2215740    -2.0052580    -0.6255210
  H        2.4895380    -1.9045040     0.6353170
  H        2.5026780    -0.7584230    -0.7438410
  H       -2.6431830    -0.5774540     0.6174740
  H       -1.4396990    -1.8621430     0.9229490
  H       -2.4975470    -1.9601810    -0.5134620
  H        0.3645100     1.9871850    -1.4006590
units angstrom
no_reorient  #important for SAPT in psi4, default
symmetry c1  #important for SAPT in psi4, default
}

set PROPERTIES_ORIGIN ["COM"]
properties('MP2/aug-cc-pvtz', properties = ['dipole'])
--------------------------------------------------------------------------

    Molecular point group: c1
  Charge       = 0
  Multiplicity = 1
  Basis Set: AUG-CC-PVTZ
    Blend: AUG-CC-PVTZ
  Basis Set: (AUG-CC-PVTZ AUX)
    Blend: AUG-CC-PVTZ-JKFIT

    Orbital Energies [Eh]
    ---------------------

    Doubly Occupied:

       1A    -80.106815     2A    -20.610181     3A    -20.598532
       4A    -20.598047     5A    -20.510199     6A    -11.305242
       7A    -11.298854     8A     -7.622547     9A     -5.520934
      10A     -5.520513    11A     -5.519612    12A     -1.446517
      13A     -1.382383    14A     -1.372958    15A     -1.291507
      16A     -0.969793    17A     -0.957908    18A     -0.817422
      19A     -0.730785    20A     -0.704180    21A     -0.674858
      22A     -0.655066    23A     -0.639501    24A     -0.629307
      25A     -0.623367    26A     -0.568811    27A     -0.562282
      28A     -0.545346    29A     -0.521091    30A     -0.502307
      31A     -0.492220    32A     -0.466020    33A     -0.461439

  @DF-RHF Final Energy:  -720.27757723243849

   => Energetics <=

    Nuclear Repulsion Energy =            450.3386261476675827
    One-Electron Energy =               -1888.7793237490029696
    Two-Electron Energy =                 718.1631203688968981
    Total Energy =                       -720.2775772324384889
  Basis Set: (AUG-CC-PVTZ AUX)
    Blend: AUG-CC-PVTZ-RI
    Molecular point group: c1

    Geometry (in Angstrom), charge = 0, multiplicity = 1:

       Center              X                  Y                   Z               Mass
    ------------   -----------------  -----------------  -----------------  -----------------
         P           -0.038186728947     0.467020111055     0.059526126186    30.973761998420
         O            1.077738171053    -0.415726088945     0.798554026186    15.994914619570
         O           -1.007252728947    -0.587599888945    -0.697699873814    15.994914619570
         O            0.748799271053     1.116312111055    -1.203965873814    15.994914619570
         O           -0.677282828947     1.398500211055     1.011282626186    15.994914619570
         C            1.872425271053    -1.335546888945    -0.070870873814    12.000000000000
         C           -1.961538728947    -1.289292888945     0.139156126186    12.000000000000
         H            1.219162271053    -2.006278888945    -0.636571873814     1.007825032230
         H            2.487126271053    -1.905524888945     0.624266126186     1.007825032230
         H            2.500266271053    -0.759443888945    -0.754891873814     1.007825032230
         H           -2.645594728947    -0.578474888945     0.606423126186     1.007825032230
         H           -1.442110728947    -1.863163888945     0.911898126186     1.007825032230
         H           -2.499958728947    -1.961201888945    -0.524512873814     1.007825032230
         H            0.362098271053     1.986164111055    -1.411709873814     1.007825032230

  Basis Set: AUG-CC-PVTZ
    Blend: AUG-CC-PVTZ
  Basis Set: (AUG-CC-PVTZ AUX)
    Blend: AUG-CC-PVTZ-JKFIT
	 Reference Energy          =    -720.2775772324384889 [Eh]
	 Singles Energy            =      -0.0000000000000000 [Eh]
	 Same-Spin Energy          =      -0.4045668342855014 [Eh]
	 Opposite-Spin Energy      =      -1.2312542149475214 [Eh]
	 Correlation Energy        =      -1.6358210492330227 [Eh]
	 Total Energy              =    -721.9133982816715616 [Eh]

	 ================> DF-SCS-MP2 Energies <==================
	-----------------------------------------------------------
	 SCS Same-Spin Scale       =       0.3333333333333333 [-]
	 SCS Opposite-Spin Scale   =       1.2000000000000000 [-]
	 SCS Same-Spin Energy      =      -0.1348556114285004 [Eh]
	 SCS Opposite-Spin Energy  =      -1.4775050579370257 [Eh]
	 SCS Correlation Energy    =      -1.6123606693655261 [Eh]
	 SCS Total Energy          =    -721.8899379018040463 [Eh]
	-----------------------------------------------------------

  Dipole Moment: [D]
     X:     0.4927      Y:    -2.6615      Z:    -2.1965     Total:     3.4858

*** Psi4 exiting successfully. Buy a developer a beer!
