                               Psi4 1.3.2 release

  ==> Input File <==

--------------------------------------------------------------------------
#psi4
#
memory 32 gb

molecule  {
0 1
  P       -0.0357750     0.4680410     0.0705770
  O        1.1267421    -0.4239873     0.7213697
  O       -1.0048410    -0.5865790    -0.6866490
  O        0.7977868     1.0891501    -1.1771158
  O       -0.7044350     1.4170700     0.9839100
  C        1.8748370    -1.3345260    -0.0598200
  C       -1.9591270    -1.2882720     0.1502070
  H        1.2215740    -2.0052580    -0.6255210
  H        2.4895380    -1.9045040     0.6353170
  H        2.5026780    -0.7584230    -0.7438410
  H       -2.6431830    -0.5774540     0.6174740
  H       -1.4396990    -1.8621430     0.9229490
  H       -2.4975470    -1.9601810    -0.5134620
  H        0.3645100     1.9871850    -1.4006590
units angstrom
no_reorient  #important for SAPT in psi4, default
symmetry c1  #important for SAPT in psi4, default
}

set PROPERTIES_ORIGIN ["COM"]
properties('MP2/aug-cc-pvtz', properties = ['dipole'])
--------------------------------------------------------------------------

    Molecular point group: c1
  Charge       = 0
  Multiplicity = 1
  Basis Set: AUG-CC-PVTZ
    Blend: AUG-CC-PVTZ
  Basis Set: (AUG-CC-PVTZ AUX)
    Blend: AUG-CC-PVTZ-JKFIT

    Orbital Energies [Eh]
    ---------------------

    Doubly Occupied:

       1A    -80.110576     2A    -20.611630     3A    -20.598954
       4A    -20.593360     5A    -20.520376     6A    -11.300144
       7A    -11.294988     8A     -7.626088     9A     -5.524741
      10A     -5.524089    11A     -5.523007    12A     -1.451087
      13A     -1.385073    14A     -1.374821    15A     -1.300242
      16A     -0.973042    17A     -0.956537    18A     -0.809986
      19A     -0.729331    20A     -0.708123    21A     -0.679164
      22A     -0.658970    23A     -0.641452    24A     -0.633797
      25A     -0.629540    26A     -0.576315    27A     -0.558274
      28A     -0.540850    29A     -0.516313    30A     -0.497293
      31A     -0.485843    32A     -0.474894    33A     -0.468681

  @DF-RHF Final Energy:  -720.27567884246366

   => Energetics <=

    Nuclear Repulsion Energy =            451.5823534710161198
    One-Electron Energy =               -1891.1608998352101025
    Two-Electron Energy =                 719.3028675217302634
    Total Energy =                       -720.2756788424636625
  Basis Set: (AUG-CC-PVTZ AUX)
    Blend: AUG-CC-PVTZ-RI
    Molecular point group: c1

    Geometry (in Angstrom), charge = 0, multiplicity = 1:

       Center              X                  Y                   Z               Mass
    ------------   -----------------  -----------------  -----------------  -----------------
         P           -0.046260347836     0.469548171371     0.073598133387    30.973761998420
         O            1.116256752164    -0.422480128629     0.724390833387    15.994914619570
         O           -1.015326347836    -0.585071828629    -0.683627866613    15.994914619570
         O            0.787301452164     1.090657271371    -1.174094666613    15.994914619570
         O           -0.714920347836     1.418577171371     0.986931133387    15.994914619570
         C            1.864351652164    -1.333018828629    -0.056798866613    12.000000000000
         C           -1.969612347836    -1.286764828629     0.153228133387    12.000000000000
         H            1.211088652164    -2.003750828629    -0.622499866613     1.007825032230
         H            2.479052652164    -1.902996828629     0.638338133387     1.007825032230
         H            2.492192652164    -0.756915828629    -0.740819866613     1.007825032230
         H           -2.653668347836    -0.575946828629     0.620495133387     1.007825032230
         H           -1.450184347836    -1.860635828629     0.925970133387     1.007825032230
         H           -2.508032347836    -1.958673828629    -0.510440866613     1.007825032230
         H            0.354024652164     1.988692171371    -1.397637866613     1.007825032230

  Basis Set: AUG-CC-PVTZ
    Blend: AUG-CC-PVTZ
  Basis Set: (AUG-CC-PVTZ AUX)
    Blend: AUG-CC-PVTZ-JKFIT
	 Reference Energy          =    -720.2756788424636625 [Eh]
	 Singles Energy            =      -0.0000000000000000 [Eh]
	 Same-Spin Energy          =      -0.4049908777086214 [Eh]
	 Opposite-Spin Energy      =      -1.2311715155723548 [Eh]
	 Correlation Energy        =      -1.6361623932809763 [Eh]
	 Total Energy              =    -721.9118412357446459 [Eh]

	 ================> DF-SCS-MP2 Energies <==================
	-----------------------------------------------------------
	 SCS Same-Spin Scale       =       0.3333333333333333 [-]
	 SCS Opposite-Spin Scale   =       1.2000000000000000 [-]
	 SCS Same-Spin Energy      =      -0.1349969592362071 [Eh]
	 SCS Opposite-Spin Energy  =      -1.4774058186868257 [Eh]
	 SCS Correlation Energy    =      -1.6124027779230330 [Eh]
	 SCS Total Energy          =    -721.8880816203867425 [Eh]
	-----------------------------------------------------------

  Dipole Moment: [D]
     X:     0.1959      Y:    -2.4438      Z:    -1.8841     Total:     3.0919

*** Psi4 exiting successfully. Buy a developer a beer!
