                               Psi4 1.3.2 release

  ==> Input File <==

--------------------------------------------------------------------------
#psi4
#
memory 32 gb

molecule  {
0 1
  P       -0.0357750     0.4680410     0.0705770
  O        1.0907140    -0.4402950     0.7609680
  O       -1.0491036    -0.5634165    -0.6601515
  O        0.7512110     1.1173330    -1.1929150
  O       -0.7496203     1.3952606     0.9720358
  C        1.8748370    -1.3345260    -0.0598200
  C       -1.9591270    -1.2882720     0.1502070
  H        1.2215740    -2.0052580    -0.6255210
  H        2.4895380    -1.9045040     0.6353170
  H        2.5026780    -0.7584230    -0.7438410
  H       -2.6431830    -0.5774540     0.6174740
  H       -1.4396990    -1.8621430     0.9229490
  H       -2.4975470    -1.9601810    -0.5134620
  H        0.3645100     1.9871850    -1.4006590
units angstrom
no_reorient  #important for SAPT in psi4, default
symmetry c1  #important for SAPT in psi4, default
}

set PROPERTIES_ORIGIN ["COM"]
properties('MP2/aug-cc-pvtz', properties = ['dipole'])
--------------------------------------------------------------------------

    Molecular point group: c1
  Charge       = 0
  Multiplicity = 1
  Basis Set: AUG-CC-PVTZ
    Blend: AUG-CC-PVTZ
  Basis Set: (AUG-CC-PVTZ AUX)
    Blend: AUG-CC-PVTZ-JKFIT

    Orbital Energies [Eh]
    ---------------------

    Doubly Occupied:

       1A    -80.111336     2A    -20.612846     3A    -20.602617
       4A    -20.591908     5A    -20.513272     6A    -11.303574
       7A    -11.292280     8A     -7.626706     9A     -5.525212
      10A     -5.524700    11A     -5.523730    12A     -1.452776
      13A     -1.386818    14A     -1.386117    15A     -1.295181
      16A     -0.974138    17A     -0.956542    18A     -0.819616
      19A     -0.734951    20A     -0.710745    21A     -0.680377
      22A     -0.659910    23A     -0.645208    24A     -0.635284
      25A     -0.632890    26A     -0.572066    27A     -0.563881
      28A     -0.541664    29A     -0.517145    30A     -0.499368
      31A     -0.488353    32A     -0.469681    33A     -0.460570

  @DF-RHF Final Energy:  -720.28138874399338

   => Energetics <=

    Nuclear Repulsion Energy =            451.4815188125179475
    One-Electron Energy =               -1890.9028880121977636
    Two-Electron Energy =                 719.1399804556863273
    Total Energy =                       -720.2813887439933751
  Basis Set: (AUG-CC-PVTZ AUX)
    Blend: AUG-CC-PVTZ-RI
    Molecular point group: c1

    Geometry (in Angstrom), charge = 0, multiplicity = 1:

       Center              X                  Y                   Z               Mass
    ------------   -----------------  -----------------  -----------------  -----------------
         P           -0.024420864810     0.467869030361     0.068720966437    30.973761998420
         O            1.102068135190    -0.440466969639     0.759111966437    15.994914619570
         O           -1.037749464810    -0.563588469639    -0.662007533563    15.994914619570
         O            0.762565135190     1.117161030361    -1.194771033563    15.994914619570
         O           -0.738266164810     1.395088630361     0.970179766437    15.994914619570
         C            1.886191135190    -1.334697969639    -0.061676033563    12.000000000000
         C           -1.947772864810    -1.288443969639     0.148350966437    12.000000000000
         H            1.232928135190    -2.005429969639    -0.627377033563     1.007825032230
         H            2.500892135190    -1.904675969639     0.633460966437     1.007825032230
         H            2.514032135190    -0.758594969639    -0.745697033563     1.007825032230
         H           -2.631828864810    -0.577625969639     0.615617966437     1.007825032230
         H           -1.428344864810    -1.862314969639     0.921092966437     1.007825032230
         H           -2.486192864810    -1.960352969639    -0.515318033563     1.007825032230
         H            0.375864135190     1.987013030361    -1.402515033563     1.007825032230

  Basis Set: AUG-CC-PVTZ
    Blend: AUG-CC-PVTZ
  Basis Set: (AUG-CC-PVTZ AUX)
    Blend: AUG-CC-PVTZ-JKFIT
	 Reference Energy          =    -720.2813887439933751 [Eh]
	 Singles Energy            =      -0.0000000000000000 [Eh]
	 Same-Spin Energy          =      -0.4040680105495190 [Eh]
	 Opposite-Spin Energy      =      -1.2291021192951344 [Eh]
	 Correlation Energy        =      -1.6331701298446535 [Eh]
	 Total Energy              =    -721.9145588738380184 [Eh]

	 ================> DF-SCS-MP2 Energies <==================
	-----------------------------------------------------------
	 SCS Same-Spin Scale       =       0.3333333333333333 [-]
	 SCS Opposite-Spin Scale   =       1.2000000000000000 [-]
	 SCS Same-Spin Energy      =      -0.1346893368498397 [Eh]
	 SCS Opposite-Spin Energy  =      -1.4749225431541613 [Eh]
	 SCS Correlation Energy    =      -1.6096118800040009 [Eh]
	 SCS Total Energy          =    -721.8910006239973427 [Eh]
	-----------------------------------------------------------

  Dipole Moment: [D]
     X:     0.8292      Y:    -2.4920      Z:    -2.0205     Total:     3.3136

*** Psi4 exiting successfully. Buy a developer a beer!
