                               Psi4 1.3.2 release

  ==> Input File <==

--------------------------------------------------------------------------
#psi4
#
memory 32 gb

molecule  {
0 1
  P       -0.0295892     0.4711187     0.0582423
  O        1.0907140    -0.4402950     0.7609680
  O       -1.0048410    -0.5865790    -0.6866490
  O        0.7512110     1.1173330    -1.1929150
  O       -0.7044350     1.4170700     0.9839100
  C        1.8748370    -1.3345260    -0.0598200
  C       -1.9634485    -1.2944234     0.1400255
  H        1.2215740    -2.0052580    -0.6255210
  H        2.4895380    -1.9045040     0.6353170
  H        2.5026780    -0.7584230    -0.7438410
  H       -2.6431830    -0.5774540     0.6174740
  H       -1.4396990    -1.8621430     0.9229490
  H       -2.4975470    -1.9601810    -0.5134620
  H        0.3645100     1.9871850    -1.4006590
units angstrom
no_reorient  #important for SAPT in psi4, default
symmetry c1  #important for SAPT in psi4, default
}

set PROPERTIES_ORIGIN ["COM"]
properties('MP2/aug-cc-pvtz', properties = ['dipole'])
--------------------------------------------------------------------------

    Molecular point group: c1
  Charge       = 0
  Multiplicity = 1
  Basis Set: AUG-CC-PVTZ
    Blend: AUG-CC-PVTZ
  Basis Set: (AUG-CC-PVTZ AUX)
    Blend: AUG-CC-PVTZ-JKFIT

    Orbital Energies [Eh]
    ---------------------

    Doubly Occupied:

       1A    -80.110067     2A    -20.612269     3A    -20.598108
       4A    -20.595439     5A    -20.513582     6A    -11.300478
       7A    -11.298133     8A     -7.625406     9A     -5.523952
      10A     -5.523451    11A     -5.522360    12A     -1.451663
      13A     -1.386462    14A     -1.379557    15A     -1.291190
      16A     -0.972169    17A     -0.956788    18A     -0.820826
      19A     -0.732999    20A     -0.708523    21A     -0.678404
      22A     -0.658258    23A     -0.643397    24A     -0.632678
      25A     -0.628592    26A     -0.571758    27A     -0.564436
      28A     -0.541804    29A     -0.518818    30A     -0.498624
      31A     -0.488275    32A     -0.467832    33A     -0.461753

  @DF-RHF Final Energy:  -720.28118715850917

   => Energetics <=

    Nuclear Repulsion Energy =            451.0089514320501394
    One-Electron Energy =               -1890.0241740511592070
    Two-Electron Energy =                 718.7340354605997845
    Total Energy =                       -720.2811871585091694
  Basis Set: (AUG-CC-PVTZ AUX)
    Blend: AUG-CC-PVTZ-RI
    Molecular point group: c1

    Geometry (in Angstrom), charge = 0, multiplicity = 1:

       Center              X                  Y                   Z               Mass
    ------------   -----------------  -----------------  -----------------  -----------------
         P           -0.030698151133     0.470947774513     0.062244048092    30.973761998420
         O            1.089605048867    -0.440465925487     0.764969748092    15.994914619570
         O           -1.005949951133    -0.586749925487    -0.682647251908    15.994914619570
         O            0.750102048867     1.117162074513    -1.188913251908    15.994914619570
         O           -0.705543951133     1.416899074513     0.987911748092    15.994914619570
         C            1.873728048867    -1.334696925487    -0.055818251908    12.000000000000
         C           -1.964557451133    -1.294594325487     0.144027248092    12.000000000000
         H            1.220465048867    -2.005428925487    -0.621519251908     1.007825032230
         H            2.488429048867    -1.904674925487     0.639318748092     1.007825032230
         H            2.501569048867    -0.758593925487    -0.739839251908     1.007825032230
         H           -2.644291951133    -0.577624925487     0.621475748092     1.007825032230
         H           -1.440807951133    -1.862313925487     0.926950748092     1.007825032230
         H           -2.498655951133    -1.960351925487    -0.509460251908     1.007825032230
         H            0.363401048867     1.987014074513    -1.396657251908     1.007825032230

  Basis Set: AUG-CC-PVTZ
    Blend: AUG-CC-PVTZ
  Basis Set: (AUG-CC-PVTZ AUX)
    Blend: AUG-CC-PVTZ-JKFIT
	 Reference Energy          =    -720.2811871585091694 [Eh]
	 Singles Energy            =      -0.0000000000000000 [Eh]
	 Same-Spin Energy          =      -0.4043138589412394 [Eh]
	 Opposite-Spin Energy      =      -1.2299537883503517 [Eh]
	 Correlation Energy        =      -1.6342676472915911 [Eh]
	 Total Energy              =    -721.9154548058007776 [Eh]

	 ================> DF-SCS-MP2 Energies <==================
	-----------------------------------------------------------
	 SCS Same-Spin Scale       =       0.3333333333333333 [-]
	 SCS Opposite-Spin Scale   =       1.2000000000000000 [-]
	 SCS Same-Spin Energy      =      -0.1347712863137465 [Eh]
	 SCS Opposite-Spin Energy  =      -1.4759445460204221 [Eh]
	 SCS Correlation Energy    =      -1.6107158323341686 [Eh]
	 SCS Total Energy          =    -721.8919029908433913 [Eh]
	-----------------------------------------------------------

  Dipole Moment: [D]
     X:     0.5312      Y:    -2.5266      Z:    -2.0776     Total:     3.3140

*** Psi4 exiting successfully. Buy a developer a beer!
