                               Psi4 1.3.2 release

  ==> Input File <==

--------------------------------------------------------------------------
#psi4
#
memory 32 gb

molecule  {
0 1
  P       -0.0357750     0.4680410     0.0705770
  O        1.0907140    -0.4402950     0.7609680
  O       -1.0357086    -0.6091620    -0.6109434
  O        0.7940611     1.1663081    -1.1381969
  O       -0.7044350     1.4170700     0.9839100
  C        1.8748370    -1.3345260    -0.0598200
  C       -1.9591270    -1.2882720     0.1502070
  H        1.2215740    -2.0052580    -0.6255210
  H        2.4895380    -1.9045040     0.6353170
  H        2.5026780    -0.7584230    -0.7438410
  H       -2.6431830    -0.5774540     0.6174740
  H       -1.4396990    -1.8621430     0.9229490
  H       -2.4975470    -1.9601810    -0.5134620
  H        0.3645100     1.9871850    -1.4006590
units angstrom
no_reorient  #important for SAPT in psi4, default
symmetry c1  #important for SAPT in psi4, default
}

set PROPERTIES_ORIGIN ["COM"]
properties('MP2/aug-cc-pvtz', properties = ['dipole'])
--------------------------------------------------------------------------

    Molecular point group: c1
  Charge       = 0
  Multiplicity = 1
  Basis Set: AUG-CC-PVTZ
    Blend: AUG-CC-PVTZ
  Basis Set: (AUG-CC-PVTZ AUX)
    Blend: AUG-CC-PVTZ-JKFIT

    Orbital Energies [Eh]
    ---------------------

    Doubly Occupied:

       1A    -80.113970     2A    -20.615007     3A    -20.598559
       4A    -20.596426     5A    -20.512049     6A    -11.302006
       7A    -11.290998     8A     -7.629106     9A     -5.527691
      10A     -5.527039    11A     -5.526143    12A     -1.457963
      13A     -1.401361    14A     -1.385556    15A     -1.294925
      16A     -0.976809    17A     -0.957698    18A     -0.822318
      19A     -0.744915    20A     -0.712138    21A     -0.682257
      22A     -0.665880    23A     -0.654000    24A     -0.637253
      25A     -0.633873    26A     -0.573388    27A     -0.569016
      28A     -0.539159    29A     -0.515058    30A     -0.497327
      31A     -0.484182    32A     -0.467975    33A     -0.461012

  @DF-RHF Final Energy:  -720.27979770907632

   => Energetics <=

    Nuclear Repulsion Energy =            451.9910133599130404
    One-Electron Energy =               -1891.7955067354932908
    Two-Electron Energy =                 719.5246956665039306
    Total Energy =                       -720.2797977090763197
  Basis Set: (AUG-CC-PVTZ AUX)
    Blend: AUG-CC-PVTZ-RI
    Molecular point group: c1

    Geometry (in Angstrom), charge = 0, multiplicity = 1:

       Center              X                  Y                   Z               Mass
    ------------   -----------------  -----------------  -----------------  -----------------
         P           -0.037295984391     0.464690692119     0.054021783574    30.973761998420
         O            1.089193015609    -0.443645307881     0.744412783574    15.994914619570
         O           -1.037229584391    -0.612512307881    -0.627498616426    15.994914619570
         O            0.792540115609     1.162957792119    -1.154752116426    15.994914619570
         O           -0.705955984391     1.413719692119     0.967354783574    15.994914619570
         C            1.873316015609    -1.337876307881    -0.076375216426    12.000000000000
         C           -1.960647984391    -1.291622307881     0.133651783574    12.000000000000
         H            1.220053015609    -2.008608307881    -0.642076216426     1.007825032230
         H            2.488017015609    -1.907854307881     0.618761783574     1.007825032230
         H            2.501157015609    -0.761773307881    -0.760396216426     1.007825032230
         H           -2.644703984391    -0.580804307881     0.600918783574     1.007825032230
         H           -1.441219984391    -1.865493307881     0.906393783574     1.007825032230
         H           -2.499067984391    -1.963531307881    -0.530017216426     1.007825032230
         H            0.362989015609     1.983834692119    -1.417214216426     1.007825032230

  Basis Set: AUG-CC-PVTZ
    Blend: AUG-CC-PVTZ
  Basis Set: (AUG-CC-PVTZ AUX)
    Blend: AUG-CC-PVTZ-JKFIT
	 Reference Energy          =    -720.2797977090763197 [Eh]
	 Singles Energy            =      -0.0000000000000000 [Eh]
	 Same-Spin Energy          =      -0.4037143388921472 [Eh]
	 Opposite-Spin Energy      =      -1.2277778908436956 [Eh]
	 Correlation Energy        =      -1.6314922297358427 [Eh]
	 Total Energy              =    -721.9112899388121605 [Eh]

	 ================> DF-SCS-MP2 Energies <==================
	-----------------------------------------------------------
	 SCS Same-Spin Scale       =       0.3333333333333333 [-]
	 SCS Opposite-Spin Scale   =       1.2000000000000000 [-]
	 SCS Same-Spin Energy      =      -0.1345714462973824 [Eh]
	 SCS Opposite-Spin Energy  =      -1.4733334690124347 [Eh]
	 SCS Correlation Energy    =      -1.6079049153098171 [Eh]
	 SCS Total Energy          =    -721.8877026243861792 [Eh]
	-----------------------------------------------------------

  Dipole Moment: [D]
     X:     0.6204      Y:    -2.5056      Z:    -2.3265     Total:     3.4750

*** Psi4 exiting successfully. Buy a developer a beer!
