                               Psi4 1.3.2 release

  ==> Input File <==

--------------------------------------------------------------------------
#psi4
#
memory 32 gb

molecule  {
0 1
  P       -0.0357750     0.4680410     0.0705770
  O        1.0907140    -0.4402950     0.7609680
  O       -0.9827815    -0.5699136    -0.7359789
  O        0.7214384     1.0836857    -1.2274787
  O       -0.7044350     1.4170700     0.9839100
  C        1.8748370    -1.3345260    -0.0598200
  C       -1.9591270    -1.2882720     0.1502070
  H        1.2215740    -2.0052580    -0.6255210
  H        2.4895380    -1.9045040     0.6353170
  H        2.5026780    -0.7584230    -0.7438410
  H       -2.6431830    -0.5774540     0.6174740
  H       -1.4396990    -1.8621430     0.9229490
  H       -2.4975470    -1.9601810    -0.5134620
  H        0.3645100     1.9871850    -1.4006590
units angstrom
no_reorient  #important for SAPT in psi4, default
symmetry c1  #important for SAPT in psi4, default
}

set PROPERTIES_ORIGIN ["COM"]
properties('MP2/aug-cc-pvtz', properties = ['dipole'])
--------------------------------------------------------------------------

    Molecular point group: c1
  Charge       = 0
  Multiplicity = 1
  Basis Set: AUG-CC-PVTZ
    Blend: AUG-CC-PVTZ
  Basis Set: (AUG-CC-PVTZ AUX)
    Blend: AUG-CC-PVTZ-JKFIT

    Orbital Energies [Eh]
    ---------------------

    Doubly Occupied:

       1A    -80.107070     2A    -20.604358     3A    -20.598826
       4A    -20.595841     5A    -20.517763     6A    -11.303154
       7A    -11.300175     8A     -7.622804     9A     -5.521334
      10A     -5.520814    11A     -5.519767    12A     -1.445956
      13A     -1.380152    14A     -1.366323    15A     -1.297462
      16A     -0.970187    17A     -0.957201    18A     -0.813706
      19A     -0.722966    20A     -0.706590    21A     -0.676439
      22A     -0.651226    23A     -0.637201    24A     -0.629060
      25A     -0.622185    26A     -0.573506    27A     -0.552731
      28A     -0.544932    29A     -0.520194    30A     -0.501788
      31A     -0.491642    32A     -0.472710    33A     -0.466977

  @DF-RHF Final Energy:  -720.27573262267379

   => Energetics <=

    Nuclear Repulsion Energy =            450.6054478555602714
    One-Electron Energy =               -1889.3362796140004320
    Two-Electron Energy =                 718.4550991357664316
    Total Energy =                       -720.2757326226737860
  Basis Set: (AUG-CC-PVTZ AUX)
    Blend: AUG-CC-PVTZ-RI
    Molecular point group: c1

    Geometry (in Angstrom), charge = 0, multiplicity = 1:

       Center              X                  Y                   Z               Mass
    ------------   -----------------  -----------------  -----------------  -----------------
         P           -0.034795913355     0.470196392942     0.081226259409    30.973761998420
         O            1.091693086645    -0.438139607058     0.771617259409    15.994914619570
         O           -0.981802413355    -0.567758207058    -0.725329640591    15.994914619570
         O            0.722417486645     1.085841092942    -1.216829440591    15.994914619570
         O           -0.703455913355     1.419225392942     0.994559259409    15.994914619570
         C            1.875816086645    -1.332370607058    -0.049170740591    12.000000000000
         C           -1.958147913355    -1.286116607058     0.160856259409    12.000000000000
         H            1.222553086645    -2.003102607058    -0.614871740591     1.007825032230
         H            2.490517086645    -1.902348607058     0.645966259409     1.007825032230
         H            2.503657086645    -0.756267607058    -0.733191740591     1.007825032230
         H           -2.642203913355    -0.575298607058     0.628123259409     1.007825032230
         H           -1.438719913355    -1.859987607058     0.933598259409     1.007825032230
         H           -2.496567913355    -1.958025607058    -0.502812740591     1.007825032230
         H            0.365489086645     1.989340392942    -1.390009740591     1.007825032230

  Basis Set: AUG-CC-PVTZ
    Blend: AUG-CC-PVTZ
  Basis Set: (AUG-CC-PVTZ AUX)
    Blend: AUG-CC-PVTZ-JKFIT
	 Reference Energy          =    -720.2757326226737860 [Eh]
	 Singles Energy            =      -0.0000000000000000 [Eh]
	 Same-Spin Energy          =      -0.4049636595519911 [Eh]
	 Opposite-Spin Energy      =      -1.2321034358019871 [Eh]
	 Correlation Energy        =      -1.6370670953539781 [Eh]
	 Total Energy              =    -721.9127997180277134 [Eh]

	 ================> DF-SCS-MP2 Energies <==================
	-----------------------------------------------------------
	 SCS Same-Spin Scale       =       0.3333333333333333 [-]
	 SCS Opposite-Spin Scale   =       1.2000000000000000 [-]
	 SCS Same-Spin Energy      =      -0.1349878865173303 [Eh]
	 SCS Opposite-Spin Energy  =      -1.4785241229623844 [Eh]
	 SCS Correlation Energy    =      -1.6135120094797148 [Eh]
	 SCS Total Energy          =    -721.8892446321534635 [Eh]
	-----------------------------------------------------------

  Dipole Moment: [D]
     X:     0.4111      Y:    -2.5806      Z:    -1.7184     Total:     3.1275

*** Psi4 exiting successfully. Buy a developer a beer!
