                               Psi4 1.3.2 release

  ==> Input File <==

--------------------------------------------------------------------------
#psi4
#
memory 32 gb

molecule  {
0 1
  P       -0.0687463     0.5141126     0.0724443
  O        1.0907140    -0.4402950     0.7609680
  O       -1.0048410    -0.5865790    -0.6866490
  O        0.7512110     1.1173330    -1.1929150
  O       -0.7044350     1.4170700     0.9839100
  C        1.8748370    -1.3345260    -0.0598200
  C       -1.9591270    -1.2882720     0.1502070
  H        1.2215740    -2.0052580    -0.6255210
  H        2.4895380    -1.9045040     0.6353170
  H        2.5026780    -0.7584230    -0.7438410
  H       -2.6431830    -0.5774540     0.6174740
  H       -1.4396990    -1.8621430     0.9229490
  H       -2.4975470    -1.9601810    -0.5134620
  H        0.3425604     1.9828807    -1.3750405
units angstrom
no_reorient  #important for SAPT in psi4, default
symmetry c1  #important for SAPT in psi4, default
}

set PROPERTIES_ORIGIN ["COM"]
properties('MP2/aug-cc-pvtz', properties = ['dipole'])
--------------------------------------------------------------------------

    Molecular point group: c1
  Charge       = 0
  Multiplicity = 1
  Basis Set: AUG-CC-PVTZ
    Blend: AUG-CC-PVTZ
  Basis Set: (AUG-CC-PVTZ AUX)
    Blend: AUG-CC-PVTZ-JKFIT

    Orbital Energies [Eh]
    ---------------------

    Doubly Occupied:

       1A    -80.108712     2A    -20.613453     3A    -20.595624
       4A    -20.585837     5A    -20.527348     6A    -11.297599
       7A    -11.292235     8A     -7.625490     9A     -5.523793
      10A     -5.523199    11A     -5.522857    12A     -1.446534
      13A     -1.382009    14A     -1.365211    15A     -1.325932
      16A     -0.966066    17A     -0.948405    18A     -0.812440
      19A     -0.727579    20A     -0.699586    21A     -0.677195
      22A     -0.658403    23A     -0.636363    24A     -0.627085
      25A     -0.622181    26A     -0.586422    27A     -0.562681
      28A     -0.540784    29A     -0.518865    30A     -0.492609
      31A     -0.490133    32A     -0.484707    33A     -0.474304

  @DF-RHF Final Energy:  -720.27597036041152

   => Energetics <=

    Nuclear Repulsion Energy =            450.5690755223852193
    One-Electron Energy =               -1889.1668093502071315
    Two-Electron Energy =                 718.3217634674103920
    Total Energy =                       -720.2759703604115202
  Basis Set: (AUG-CC-PVTZ AUX)
    Blend: AUG-CC-PVTZ-RI
    Molecular point group: c1

    Geometry (in Angstrom), charge = 0, multiplicity = 1:

       Center              X                  Y                   Z               Mass
    ------------   -----------------  -----------------  -----------------  -----------------
         P           -0.060466131277     0.502822067277     0.071780587006    30.973761998420
         O            1.098994168723    -0.451585532723     0.760304287006    15.994914619570
         O           -0.996560831277    -0.597869532723    -0.687312712994    15.994914619570
         O            0.759491168723     1.106042467277    -1.193578712994    15.994914619570
         O           -0.696154831277     1.405779467277     0.983246287006    15.994914619570
         C            1.883117168723    -1.345816532723    -0.060483712994    12.000000000000
         C           -1.950846831277    -1.299562532723     0.149543287006    12.000000000000
         H            1.229854168723    -2.016548532723    -0.626184712994     1.007825032230
         H            2.497818168723    -1.915794532723     0.634653287006     1.007825032230
         H            2.510958168723    -0.769713532723    -0.744504712994     1.007825032230
         H           -2.634902831277    -0.588744532723     0.616810287006     1.007825032230
         H           -1.431418831277    -1.873433532723     0.922285287006     1.007825032230
         H           -2.489266831277    -1.971471532723    -0.514125712994     1.007825032230
         H            0.350840568723     1.971590167277    -1.375704212994     1.007825032230

  Basis Set: AUG-CC-PVTZ
    Blend: AUG-CC-PVTZ
  Basis Set: (AUG-CC-PVTZ AUX)
    Blend: AUG-CC-PVTZ-JKFIT
	 Reference Energy          =    -720.2759703604115202 [Eh]
	 Singles Energy            =      -0.0000000000000000 [Eh]
	 Same-Spin Energy          =      -0.4040728768031025 [Eh]
	 Opposite-Spin Energy      =      -1.2300192503464205 [Eh]
	 Correlation Energy        =      -1.6340921271495230 [Eh]
	 Total Energy              =    -721.9100624875610492 [Eh]

	 ================> DF-SCS-MP2 Energies <==================
	-----------------------------------------------------------
	 SCS Same-Spin Scale       =       0.3333333333333333 [-]
	 SCS Opposite-Spin Scale   =       1.2000000000000000 [-]
	 SCS Same-Spin Energy      =      -0.1346909589343675 [Eh]
	 SCS Opposite-Spin Energy  =      -1.4760231004157045 [Eh]
	 SCS Correlation Energy    =      -1.6107140593500719 [Eh]
	 SCS Total Energy          =    -721.8866844197615364 [Eh]
	-----------------------------------------------------------

  Dipole Moment: [D]
     X:     0.0573      Y:    -2.0334      Z:    -1.8631     Total:     2.7585

*** Psi4 exiting successfully. Buy a developer a beer!
