                               Psi4 1.3.2 release

  ==> Input File <==

--------------------------------------------------------------------------
#psi4
#
memory 32 gb

molecule  {
0 1
  P       -0.0357750     0.4680410     0.0705770
  O        1.0488575    -0.4622113     0.7433088
  O       -1.0048410    -0.5865790    -0.6866490
  O        0.7512110     1.1173330    -1.1929150
  O       -0.7044350     1.4170700     0.9839100
  C        1.8748370    -1.3345260    -0.0598200
  C       -1.9591270    -1.2882720     0.1502070
  H        1.1913714    -1.9883592    -0.6093912
  H        2.4895380    -1.9045040     0.6353170
  H        2.5026780    -0.7584230    -0.7438410
  H       -2.6431830    -0.5774540     0.6174740
  H       -1.4396990    -1.8621430     0.9229490
  H       -2.4975470    -1.9601810    -0.5134620
  H        0.3645100     1.9871850    -1.4006590
units angstrom
no_reorient  #important for SAPT in psi4, default
symmetry c1  #important for SAPT in psi4, default
}

set PROPERTIES_ORIGIN ["COM"]
properties('MP2/aug-cc-pvtz', properties = ['dipole'])
--------------------------------------------------------------------------

    Molecular point group: c1
  Charge       = 0
  Multiplicity = 1
  Basis Set: AUG-CC-PVTZ
    Blend: AUG-CC-PVTZ
  Basis Set: (AUG-CC-PVTZ AUX)
    Blend: AUG-CC-PVTZ-JKFIT

    Orbital Energies [Eh]
    ---------------------

    Doubly Occupied:

       1A    -80.106699     2A    -20.608087     3A    -20.597508
       4A    -20.592348     5A    -20.514272     6A    -11.303328
       7A    -11.296578     8A     -7.622663     9A     -5.521222
      10A     -5.520728    11A     -5.519631    12A     -1.452824
      13A     -1.385322    14A     -1.378069    15A     -1.295400
      16A     -0.975250    17A     -0.956789    18A     -0.816853
      19A     -0.732033    20A     -0.708791    21A     -0.682040
      22A     -0.655561    23A     -0.643589    24A     -0.631101
      25A     -0.630372    26A     -0.570990    27A     -0.560178
      28A     -0.543338    29A     -0.519000    30A     -0.500615
      31A     -0.488654    32A     -0.470124    33A     -0.463222

  @DF-RHF Final Energy:  -720.28204662965231

   => Energetics <=

    Nuclear Repulsion Energy =            452.3145251855806919
    One-Electron Energy =               -1892.6667870863384451
    Two-Electron Energy =                 720.0702152711053259
    Total Energy =                       -720.2820466296523136
  Basis Set: (AUG-CC-PVTZ AUX)
    Blend: AUG-CC-PVTZ-RI
    Molecular point group: c1

    Geometry (in Angstrom), charge = 0, multiplicity = 1:

       Center              X                  Y                   Z               Mass
    ------------   -----------------  -----------------  -----------------  -----------------
         P           -0.030220340307     0.470687585381     0.072689754437    30.973761998420
         O            1.054412159693    -0.459564714619     0.745421554437    15.994914619570
         O           -0.999286340307    -0.583932414619    -0.684536245563    15.994914619570
         O            0.756765659693     1.119979585381    -1.190802245563    15.994914619570
         O           -0.698880340307     1.419716585381     0.986022754437    15.994914619570
         C            1.880391659693    -1.331879414619    -0.057707245563    12.000000000000
         C           -1.953572340307    -1.285625414619     0.152319754437    12.000000000000
         H            1.196926059693    -1.985712614619    -0.607278445563     1.007825032230
         H            2.495092659693    -1.901857414619     0.637429754437     1.007825032230
         H            2.508232659693    -0.755776414619    -0.741728245563     1.007825032230
         H           -2.637628340307    -0.574807414619     0.619586754437     1.007825032230
         H           -1.434144340307    -1.859496414619     0.925061754437     1.007825032230
         H           -2.491992340307    -1.957534414619    -0.511349245563     1.007825032230
         H            0.370064659693     1.989831585381    -1.398546245563     1.007825032230

  Basis Set: AUG-CC-PVTZ
    Blend: AUG-CC-PVTZ
  Basis Set: (AUG-CC-PVTZ AUX)
    Blend: AUG-CC-PVTZ-JKFIT
	 Reference Energy          =    -720.2820466296523136 [Eh]
	 Singles Energy            =      -0.0000000000000000 [Eh]
	 Same-Spin Energy          =      -0.4040164114618152 [Eh]
	 Opposite-Spin Energy      =      -1.2291122396129350 [Eh]
	 Correlation Energy        =      -1.6331286510747502 [Eh]
	 Total Energy              =    -721.9151752807271123 [Eh]

	 ================> DF-SCS-MP2 Energies <==================
	-----------------------------------------------------------
	 SCS Same-Spin Scale       =       0.3333333333333333 [-]
	 SCS Opposite-Spin Scale   =       1.2000000000000000 [-]
	 SCS Same-Spin Energy      =      -0.1346721371539384 [Eh]
	 SCS Opposite-Spin Energy  =      -1.4749346875355220 [Eh]
	 SCS Correlation Energy    =      -1.6096068246894604 [Eh]
	 SCS Total Energy          =    -721.8916534543417356 [Eh]
	-----------------------------------------------------------

  Dipole Moment: [D]
     X:     0.6682      Y:    -2.5489      Z:    -1.8981     Total:     3.2475

*** Psi4 exiting successfully. Buy a developer a beer!
