                               Psi4 1.3.2 release

  ==> Input File <==

--------------------------------------------------------------------------
#psi4
#
memory 32 gb

molecule  {
0 1
  P       -0.0018448     0.4227604     0.0671703
  O        1.0907140    -0.4402950     0.7609680
  O       -1.0048410    -0.5865790    -0.6866490
  O        0.7512110     1.1173330    -1.1929150
  O       -0.7044350     1.4170700     0.9839100
  C        1.8748370    -1.3345260    -0.0598200
  C       -1.9591270    -1.2882720     0.1502070
  H        1.2215740    -2.0052580    -0.6255210
  H        2.4895380    -1.9045040     0.6353170
  H        2.5026780    -0.7584230    -0.7438410
  H       -2.6431830    -0.5774540     0.6174740
  H       -1.4396990    -1.8621430     0.9229490
  H       -2.4975470    -1.9601810    -0.5134620
  H        0.3869307     1.9904296    -1.4260244
units angstrom
no_reorient  #important for SAPT in psi4, default
symmetry c1  #important for SAPT in psi4, default
}

set PROPERTIES_ORIGIN ["COM"]
properties('MP2/aug-cc-pvtz', properties = ['dipole'])
--------------------------------------------------------------------------

    Molecular point group: c1
  Charge       = 0
  Multiplicity = 1
  Basis Set: AUG-CC-PVTZ
    Blend: AUG-CC-PVTZ
  Basis Set: (AUG-CC-PVTZ AUX)
    Blend: AUG-CC-PVTZ-JKFIT

    Orbital Energies [Eh]
    ---------------------

    Doubly Occupied:

       1A    -80.110007     2A    -20.611107     3A    -20.603861
       4A    -20.597231     5A    -20.503144     6A    -11.309619
       7A    -11.299081     8A     -7.625055     9A     -5.523679
      10A     -5.523249    11A     -5.521748    12A     -1.460088
      13A     -1.394786    14A     -1.379717    15A     -1.265950
      16A     -0.982265    17A     -0.962185    18A     -0.823590
      19A     -0.738274    20A     -0.717786    21A     -0.683649
      22A     -0.657809    23A     -0.647026    24A     -0.636216
      25A     -0.631262    26A     -0.561939    27A     -0.559105
      28A     -0.546746    29A     -0.519963    30A     -0.506301
      31A     -0.495227    32A     -0.450369    33A     -0.447076

  @DF-RHF Final Energy:  -720.27666497915197

   => Energetics <=

    Nuclear Repulsion Energy =            451.6934293341161037
    One-Electron Energy =               -1891.3499605475487897
    Two-Electron Energy =                 719.3798662342805983
    Total Energy =                       -720.2766649791519740
  Basis Set: (AUG-CC-PVTZ AUX)
    Blend: AUG-CC-PVTZ-RI
    Molecular point group: c1

    Geometry (in Angstrom), charge = 0, multiplicity = 1:

       Center              X                  Y                   Z               Mass
    ------------   -----------------  -----------------  -----------------  -----------------
         P           -0.010364400733     0.433864548152     0.068210749741    30.973761998420
         O            1.082194399267    -0.429190851848     0.762008449741    15.994914619570
         O           -1.013360600733    -0.575474851848    -0.685608550259    15.994914619570
         O            0.742691399267     1.128437148152    -1.191874550259    15.994914619570
         O           -0.712954600733     1.428174148152     0.984950449741    15.994914619570
         C            1.866317399267    -1.323421851848    -0.058779550259    12.000000000000
         C           -1.967646600733    -1.277167851848     0.151247449741    12.000000000000
         H            1.213054399267    -1.994153851848    -0.624480550259     1.007825032230
         H            2.481018399267    -1.893399851848     0.636357449741     1.007825032230
         H            2.494158399267    -0.747318851848    -0.742800550259     1.007825032230
         H           -2.651702600733    -0.566349851848     0.618514449741     1.007825032230
         H           -1.448218600733    -1.851038851848     0.923989449741     1.007825032230
         H           -2.506066600733    -1.949076851848    -0.512421550259     1.007825032230
         H            0.378411099267     2.001533748152    -1.424983950259     1.007825032230

  Basis Set: AUG-CC-PVTZ
    Blend: AUG-CC-PVTZ
  Basis Set: (AUG-CC-PVTZ AUX)
    Blend: AUG-CC-PVTZ-JKFIT
	 Reference Energy          =    -720.2766649791519740 [Eh]
	 Singles Energy            =      -0.0000000000000000 [Eh]
	 Same-Spin Energy          =      -0.4045607791979501 [Eh]
	 Opposite-Spin Energy      =      -1.2301373720770010 [Eh]
	 Correlation Energy        =      -1.6346981512749510 [Eh]
	 Total Energy              =    -721.9113631304269347 [Eh]

	 ================> DF-SCS-MP2 Energies <==================
	-----------------------------------------------------------
	 SCS Same-Spin Scale       =       0.3333333333333333 [-]
	 SCS Opposite-Spin Scale   =       1.2000000000000000 [-]
	 SCS Same-Spin Energy      =      -0.1348535930659834 [Eh]
	 SCS Opposite-Spin Energy  =      -1.4761648464924011 [Eh]
	 SCS Correlation Energy    =      -1.6110184395583844 [Eh]
	 SCS Total Energy          =    -721.8876834187103668 [Eh]
	-----------------------------------------------------------

  Dipole Moment: [D]
     X:     0.9141      Y:    -3.0849      Z:    -2.0603     Total:     3.8206

*** Psi4 exiting successfully. Buy a developer a beer!
