                               Psi4 1.3.2 release

  ==> Input File <==

--------------------------------------------------------------------------
#psi4
#
memory 32 gb

molecule  {
0 1
  P       -0.0273808     0.4566445     0.0698695
  O        1.0907140    -0.4402950     0.7609680
  O       -1.0048410    -0.5865790    -0.6866490
  O        0.7512110     1.1173330    -1.1929150
  O       -0.7044350     1.4170700     0.9839100
  C        1.8748370    -1.3345260    -0.0598200
  C       -1.9591270    -1.2882720     0.1502070
  H        1.2215740    -2.0052580    -0.6255210
  H        2.4895380    -1.9045040     0.6353170
  H        2.5026780    -0.7584230    -0.7438410
  H       -2.6431830    -0.5774540     0.6174740
  H       -1.4396990    -1.8621430     0.9229490
  H       -2.4975470    -1.9601810    -0.5134620
  H        0.3700721     1.9880957    -1.4070253
units angstrom
no_reorient  #important for SAPT in psi4, default
symmetry c1  #important for SAPT in psi4, default
}

set PROPERTIES_ORIGIN ["COM"]
properties('MP2/aug-cc-pvtz', properties = ['dipole'])
--------------------------------------------------------------------------

    Molecular point group: c1
  Charge       = 0
  Multiplicity = 1
  Basis Set: AUG-CC-PVTZ
    Blend: AUG-CC-PVTZ
  Basis Set: (AUG-CC-PVTZ AUX)
    Blend: AUG-CC-PVTZ-JKFIT

    Orbital Energies [Eh]
    ---------------------

    Doubly Occupied:

       1A    -80.109731     2A    -20.607216     3A    -20.601784
       4A    -20.596677     5A    -20.512387     6A    -11.303020
       7A    -11.298640     8A     -7.625056     9A     -5.523580
      10A     -5.523140    11A     -5.521982    12A     -1.451822
      13A     -1.385615    14A     -1.380696    15A     -1.288805
      16A     -0.974551    17A     -0.958721    18A     -0.819219
      19A     -0.733186    20A     -0.710973    21A     -0.679364
      22A     -0.655811    23A     -0.643994    24A     -0.633596
      25A     -0.629942    26A     -0.569082    27A     -0.560136
      28A     -0.543653    29A     -0.519173    30A     -0.501844
      31A     -0.491520    32A     -0.465783    33A     -0.460764

  @DF-RHF Final Energy:  -720.28124873759430

   => Energetics <=

    Nuclear Repulsion Energy =            451.2522946386130229
    One-Electron Energy =               -1890.5041598690565934
    Two-Electron Energy =                 718.9706164928493308
    Total Energy =                       -720.2812487375942965
  Basis Set: (AUG-CC-PVTZ AUX)
    Blend: AUG-CC-PVTZ-RI
    Molecular point group: c1

    Geometry (in Angstrom), charge = 0, multiplicity = 1:

       Center              X                  Y                   Z               Mass
    ------------   -----------------  -----------------  -----------------  -----------------
         P           -0.029488623301     0.459438348332     0.070094509552    30.973761998420
         O            1.088606176699    -0.437501151668     0.761193009552    15.994914619570
         O           -1.006948823301    -0.583785151668    -0.686423990448    15.994914619570
         O            0.749103176699     1.120126848332    -1.192689990448    15.994914619570
         O           -0.706542823301     1.419863848332     0.984135009552    15.994914619570
         C            1.872729176699    -1.331732151668    -0.059594990448    12.000000000000
         C           -1.961234823301    -1.285478151668     0.150432009552    12.000000000000
         H            1.219466176699    -2.002464151668    -0.625295990448     1.007825032230
         H            2.487430176699    -1.901710151668     0.635542009552     1.007825032230
         H            2.500570176699    -0.755629151668    -0.743615990448     1.007825032230
         H           -2.645290823301    -0.574660151668     0.617699009552     1.007825032230
         H           -1.441806823301    -1.859349151668     0.923174009552     1.007825032230
         H           -2.499654823301    -1.957387151668    -0.513236990448     1.007825032230
         H            0.367964276699     1.990889548332    -1.406800290448     1.007825032230

  Basis Set: AUG-CC-PVTZ
    Blend: AUG-CC-PVTZ
  Basis Set: (AUG-CC-PVTZ AUX)
    Blend: AUG-CC-PVTZ-JKFIT
	 Reference Energy          =    -720.2812487375942965 [Eh]
	 Singles Energy            =      -0.0000000000000000 [Eh]
	 Same-Spin Energy          =      -0.4043339804581362 [Eh]
	 Opposite-Spin Energy      =      -1.2299811993842331 [Eh]
	 Correlation Energy        =      -1.6343151798423694 [Eh]
	 Total Energy              =    -721.9155639174366570 [Eh]

	 ================> DF-SCS-MP2 Energies <==================
	-----------------------------------------------------------
	 SCS Same-Spin Scale       =       0.3333333333333333 [-]
	 SCS Opposite-Spin Scale   =       1.2000000000000000 [-]
	 SCS Same-Spin Energy      =      -0.1347779934860454 [Eh]
	 SCS Opposite-Spin Energy  =      -1.4759774392610796 [Eh]
	 SCS Correlation Energy    =      -1.6107554327471250 [Eh]
	 SCS Total Energy          =    -721.8920041703414654 [Eh]
	-----------------------------------------------------------

  Dipole Moment: [D]
     X:     0.5861      Y:    -2.6922      Z:    -1.9756     Total:     3.3903

*** Psi4 exiting successfully. Buy a developer a beer!
