                               Psi4 1.3.2 release

  ==> Input File <==

--------------------------------------------------------------------------
#psi4
#
memory 32 gb

molecule  {
0 1
  P       -0.0357750     0.4680410     0.0705770
  O        1.0907140    -0.4402950     0.7609680
  O       -1.0048410    -0.5865790    -0.6866490
  O        0.7512110     1.1173330    -1.1929150
  O       -0.7949695     1.5455656     1.1075724
  C        1.8748370    -1.3345260    -0.0598200
  C       -1.9591270    -1.2882720     0.1502070
  H        1.2215740    -2.0052580    -0.6255210
  H        2.4895380    -1.9045040     0.6353170
  H        2.5026780    -0.7584230    -0.7438410
  H       -2.6431830    -0.5774540     0.6174740
  H       -1.4396990    -1.8621430     0.9229490
  H       -2.4975470    -1.9601810    -0.5134620
  H        0.3645100     1.9871850    -1.4006590
units angstrom
no_reorient  #important for SAPT in psi4, default
symmetry c1  #important for SAPT in psi4, default
}

set PROPERTIES_ORIGIN ["COM"]
properties('MP2/aug-cc-pvtz', properties = ['dipole'])
--------------------------------------------------------------------------

    Molecular point group: c1
  Charge       = 0
  Multiplicity = 1
  Basis Set: AUG-CC-PVTZ
    Blend: AUG-CC-PVTZ
  Basis Set: (AUG-CC-PVTZ AUX)
    Blend: AUG-CC-PVTZ-JKFIT

    Orbital Energies [Eh]
    ---------------------

    Doubly Occupied:

       1A    -80.136206     2A    -20.620840     3A    -20.609262
       4A    -20.608281     5A    -20.520680     6A    -11.307715
       7A    -11.302720     8A     -7.647407     9A     -5.546044
      10A     -5.545595    11A     -5.543255    12A     -1.455147
      13A     -1.392615    14A     -1.389906    15A     -1.220274
      16A     -0.980923    17A     -0.963184    18A     -0.829202
      19A     -0.740058    20A     -0.713695    21A     -0.686983
      22A     -0.659956    23A     -0.649369    24A     -0.638199
      25A     -0.634864    26A     -0.569626    27A     -0.557445
      28A     -0.538934    29A     -0.512991    30A     -0.499180
      31A     -0.493339    32A     -0.436507    33A     -0.435704

  @DF-RHF Final Energy:  -720.23270247640608

   => Energetics <=

    Nuclear Repulsion Energy =            442.7757567332232043
    One-Electron Energy =               -1873.2447014945435058
    Two-Electron Energy =                 710.2362422849141694
    Total Energy =                       -720.2327024764060752
  Basis Set: (AUG-CC-PVTZ AUX)
    Blend: AUG-CC-PVTZ-RI
    Molecular point group: c1

    Geometry (in Angstrom), charge = 0, multiplicity = 1:

       Center              X                  Y                   Z               Mass
    ------------   -----------------  -----------------  -----------------  -----------------
         P           -0.024282936685     0.451730132247     0.054880032640    30.973761998420
         O            1.102206063315    -0.456605867753     0.745271032640    15.994914619570
         O           -0.993348936685    -0.602889867753    -0.702345967360    15.994914619570
         O            0.762703063315     1.101022132247    -1.208611967360    15.994914619570
         O           -0.783477436685     1.529254732247     1.091875432640    15.994914619570
         C            1.886329063315    -1.350836867753    -0.075516967360    12.000000000000
         C           -1.947634936685    -1.304582867753     0.134510032640    12.000000000000
         H            1.233066063315    -2.021568867753    -0.641217967360     1.007825032230
         H            2.501030063315    -1.920814867753     0.619620032640     1.007825032230
         H            2.514170063315    -0.774733867753    -0.759537967360     1.007825032230
         H           -2.631690936685    -0.593764867753     0.601777032640     1.007825032230
         H           -1.428206936685    -1.878453867753     0.907252032640     1.007825032230
         H           -2.486054936685    -1.976491867753    -0.529158967360     1.007825032230
         H            0.376002063315     1.970874132247    -1.416355967360     1.007825032230

  Basis Set: AUG-CC-PVTZ
    Blend: AUG-CC-PVTZ
  Basis Set: (AUG-CC-PVTZ AUX)
    Blend: AUG-CC-PVTZ-JKFIT
	 Reference Energy          =    -720.2327024764060752 [Eh]
	 Singles Energy            =      -0.0000000000000000 [Eh]
	 Same-Spin Energy          =      -0.4080798318939289 [Eh]
	 Opposite-Spin Energy      =      -1.2399010683837437 [Eh]
	 Correlation Energy        =      -1.6479809002776726 [Eh]
	 Total Energy              =    -721.8806833766836917 [Eh]

	 ================> DF-SCS-MP2 Energies <==================
	-----------------------------------------------------------
	 SCS Same-Spin Scale       =       0.3333333333333333 [-]
	 SCS Opposite-Spin Scale   =       1.2000000000000000 [-]
	 SCS Same-Spin Energy      =      -0.1360266106313096 [Eh]
	 SCS Opposite-Spin Energy  =      -1.4878812820604923 [Eh]
	 SCS Correlation Energy    =      -1.6239078926918020 [Eh]
	 SCS Total Energy          =    -721.8566103690978935 [Eh]
	-----------------------------------------------------------

  Dipole Moment: [D]
     X:     0.8882      Y:    -3.2340      Z:    -2.5361     Total:     4.2047

*** Psi4 exiting successfully. Buy a developer a beer!
