                               Psi4 1.3.2 release

  ==> Input File <==

--------------------------------------------------------------------------
#psi4
#
memory 32 gb

molecule  {
0 1
  P       -0.0357750     0.4680410     0.0705770
  O        1.1027063    -0.4171894     0.7712331
  O       -1.0208077    -0.5650549    -0.6956651
  O        0.7512110     1.1173330    -1.1929150
  O       -0.7044350     1.4170700     0.9839100
  C        1.8748370    -1.3345260    -0.0598200
  C       -1.9591270    -1.2882720     0.1502070
  H        1.2215740    -2.0052580    -0.6255210
  H        2.4895380    -1.9045040     0.6353170
  H        2.5026780    -0.7584230    -0.7438410
  H       -2.6431830    -0.5774540     0.6174740
  H       -1.4396990    -1.8621430     0.9229490
  H       -2.4975470    -1.9601810    -0.5134620
  H        0.3645100     1.9871850    -1.4006590
units angstrom
no_reorient  #important for SAPT in psi4, default
symmetry c1  #important for SAPT in psi4, default
}

set PROPERTIES_ORIGIN ["COM"]
properties('MP2/aug-cc-pvtz', properties = ['dipole'])
--------------------------------------------------------------------------

    Molecular point group: c1
  Charge       = 0
  Multiplicity = 1
  Basis Set: AUG-CC-PVTZ
    Blend: AUG-CC-PVTZ
  Basis Set: (AUG-CC-PVTZ AUX)
    Blend: AUG-CC-PVTZ-JKFIT

    Orbital Energies [Eh]
    ---------------------

    Doubly Occupied:

       1A    -80.108346     2A    -20.606660     3A    -20.600447
       4A    -20.597864     5A    -20.512744     6A    -11.303216
       7A    -11.299567     8A     -7.623941     9A     -5.522423
      10A     -5.521915    11A     -5.520968    12A     -1.448290
      13A     -1.380384    14A     -1.379579    15A     -1.294041
      16A     -0.971939    17A     -0.958218    18A     -0.817452
      19A     -0.730863    20A     -0.707601    21A     -0.676559
      22A     -0.655668    23A     -0.640673    24A     -0.632667
      25A     -0.627539    26A     -0.571391    27A     -0.558708
      28A     -0.544543    29A     -0.519769    30A     -0.501682
      31A     -0.492761    32A     -0.468537    33A     -0.463018

  @DF-RHF Final Energy:  -720.28045983916388

   => Energetics <=

    Nuclear Repulsion Energy =            450.6507442244168828
    One-Electron Energy =               -1889.3424700980219768
    Two-Electron Energy =                 718.4112660344411552
    Total Energy =                       -720.2804598391638820
  Basis Set: (AUG-CC-PVTZ AUX)
    Blend: AUG-CC-PVTZ-RI
    Molecular point group: c1

    Geometry (in Angstrom), charge = 0, multiplicity = 1:

       Center              X                  Y                   Z               Mass
    ------------   -----------------  -----------------  -----------------  -----------------
         P           -0.035270487147     0.462375693057     0.070418640032    30.973761998420
         O            1.103210812853    -0.422854706943     0.771074740032    15.994914619570
         O           -1.020303187147    -0.570720206943    -0.695823459968    15.994914619570
         O            0.751715512853     1.111667693057    -1.193073359968    15.994914619570
         O           -0.703930487147     1.411404693057     0.983751640032    15.994914619570
         C            1.875341512853    -1.340191306943    -0.059978359968    12.000000000000
         C           -1.958622487147    -1.293937306943     0.150048640032    12.000000000000
         H            1.222078512853    -2.010923306943    -0.625679359968     1.007825032230
         H            2.490042512853    -1.910169306943     0.635158640032     1.007825032230
         H            2.503182512853    -0.764088306943    -0.743999359968     1.007825032230
         H           -2.642678487147    -0.583119306943     0.617315640032     1.007825032230
         H           -1.439194487147    -1.867808306943     0.922790640032     1.007825032230
         H           -2.497042487147    -1.965846306943    -0.513620359968     1.007825032230
         H            0.365014512853     1.981519693057    -1.400817359968     1.007825032230

  Basis Set: AUG-CC-PVTZ
    Blend: AUG-CC-PVTZ
  Basis Set: (AUG-CC-PVTZ AUX)
    Blend: AUG-CC-PVTZ-JKFIT
	 Reference Energy          =    -720.2804598391638820 [Eh]
	 Singles Energy            =      -0.0000000000000000 [Eh]
	 Same-Spin Energy          =      -0.4043327630489292 [Eh]
	 Opposite-Spin Energy      =      -1.2303798684979430 [Eh]
	 Correlation Energy        =      -1.6347126315468721 [Eh]
	 Total Energy              =    -721.9151724707107860 [Eh]

	 ================> DF-SCS-MP2 Energies <==================
	-----------------------------------------------------------
	 SCS Same-Spin Scale       =       0.3333333333333333 [-]
	 SCS Opposite-Spin Scale   =       1.2000000000000000 [-]
	 SCS Same-Spin Energy      =      -0.1347775876829764 [Eh]
	 SCS Opposite-Spin Energy  =      -1.4764558421975316 [Eh]
	 SCS Correlation Energy    =      -1.6112334298805080 [Eh]
	 SCS Total Energy          =    -721.8916932690443673 [Eh]
	-----------------------------------------------------------

  Dipole Moment: [D]
     X:     0.5067      Y:    -2.7151      Z:    -1.9607     Total:     3.3871

*** Psi4 exiting successfully. Buy a developer a beer!
