                               Psi4 1.3.2 release

  ==> Input File <==

--------------------------------------------------------------------------
#psi4
#
memory 32 gb

molecule  {
0 1
  P       -0.0357750     0.4680410     0.0705770
  O        1.0907140    -0.4402950     0.7609680
  O       -1.0048410    -0.5865790    -0.6866490
  O        0.7512110     1.1173330    -1.1929150
  O       -0.7044350     1.4170700     0.9839100
  C        1.8748370    -1.3345260    -0.0598200
  C       -1.8933277    -1.2398893     0.0925046
  H        1.2215740    -2.0052580    -0.6255210
  H        2.4895380    -1.9045040     0.6353170
  H        2.5026780    -0.7584230    -0.7438410
  H       -2.6431830    -0.5774540     0.6174740
  H       -1.4396990    -1.8621430     0.9229490
  H       -2.4975470    -1.9601810    -0.5134620
  H        0.3645100     1.9871850    -1.4006590
units angstrom
no_reorient  #important for SAPT in psi4, default
symmetry c1  #important for SAPT in psi4, default
}

set PROPERTIES_ORIGIN ["COM"]
properties('MP2/aug-cc-pvtz', properties = ['dipole'])
--------------------------------------------------------------------------

    Molecular point group: c1
  Charge       = 0
  Multiplicity = 1
  Basis Set: AUG-CC-PVTZ
    Blend: AUG-CC-PVTZ
  Basis Set: (AUG-CC-PVTZ AUX)
    Blend: AUG-CC-PVTZ-JKFIT

    Orbital Energies [Eh]
    ---------------------

    Doubly Occupied:

       1A    -80.116077     2A    -20.613024     3A    -20.605737
       4A    -20.602722     5A    -20.519890     6A    -11.303507
       7A    -11.298260     8A     -7.631654     9A     -5.530075
      10A     -5.529756    11A     -5.528594    12A     -1.466286
      13A     -1.406963    14A     -1.386774    15A     -1.301433
      16A     -0.974355    17A     -0.953008    18A     -0.821861
      19A     -0.744993    20A     -0.717649    21A     -0.686795
      22A     -0.664876    23A     -0.654263    24A     -0.638233
      25A     -0.635247    26A     -0.571071    27A     -0.567952
      28A     -0.537621    29A     -0.511475    30A     -0.495679
      31A     -0.481755    32A     -0.473677    33A     -0.465924

  @DF-RHF Final Energy:  -720.27374172631426

   => Energetics <=

    Nuclear Repulsion Energy =            453.3336698446641435
    One-Electron Energy =               -1894.3404534297726514
    Two-Electron Energy =                 720.7330418587941949
    Total Energy =                       -720.2737417263142561
  Basis Set: (AUG-CC-PVTZ AUX)
    Blend: AUG-CC-PVTZ-RI
    Molecular point group: c1

    Geometry (in Angstrom), charge = 0, multiplicity = 1:

       Center              X                  Y                   Z               Mass
    ------------   -----------------  -----------------  -----------------  -----------------
         P           -0.042041172053     0.463433210310     0.076072291721    30.973761998420
         O            1.084447827947    -0.444902789690     0.766463291721    15.994914619570
         O           -1.011107172053    -0.591186789690    -0.681153708279    15.994914619570
         O            0.744944827947     1.112725210310    -1.187419708279    15.994914619570
         O           -0.710701172053     1.412462210310     0.989405291721    15.994914619570
         C            1.868570827947    -1.339133789690    -0.054324708279    12.000000000000
         C           -1.899593872053    -1.244497089690     0.097999891721    12.000000000000
         H            1.215307827947    -2.009865789690    -0.620025708279     1.007825032230
         H            2.483271827947    -1.909111789690     0.640812291721     1.007825032230
         H            2.496411827947    -0.763030789690    -0.738345708279     1.007825032230
         H           -2.649449172053    -0.582061789690     0.622969291721     1.007825032230
         H           -1.445965172053    -1.866750789690     0.928444291721     1.007825032230
         H           -2.503813172053    -1.964788789690    -0.507966708279     1.007825032230
         H            0.358243827947     1.982577210310    -1.395163708279     1.007825032230

  Basis Set: AUG-CC-PVTZ
    Blend: AUG-CC-PVTZ
  Basis Set: (AUG-CC-PVTZ AUX)
    Blend: AUG-CC-PVTZ-JKFIT
	 Reference Energy          =    -720.2737417263142561 [Eh]
	 Singles Energy            =      -0.0000000000000000 [Eh]
	 Same-Spin Energy          =      -0.4046194222518228 [Eh]
	 Opposite-Spin Energy      =      -1.2294910742261034 [Eh]
	 Correlation Energy        =      -1.6341104964779261 [Eh]
	 Total Energy              =    -721.9078522227921439 [Eh]

	 ================> DF-SCS-MP2 Energies <==================
	-----------------------------------------------------------
	 SCS Same-Spin Scale       =       0.3333333333333333 [-]
	 SCS Opposite-Spin Scale   =       1.2000000000000000 [-]
	 SCS Same-Spin Energy      =      -0.1348731407506076 [Eh]
	 SCS Opposite-Spin Energy  =      -1.4753892890713241 [Eh]
	 SCS Correlation Energy    =      -1.6102624298219317 [Eh]
	 SCS Total Energy          =    -721.8840041561361431 [Eh]
	-----------------------------------------------------------

  Dipole Moment: [D]
     X:     0.8391      Y:    -2.2866      Z:    -2.1109     Total:     3.2231

*** Psi4 exiting successfully. Buy a developer a beer!
