                               Psi4 1.3.2 release

  ==> Input File <==

--------------------------------------------------------------------------
#psi4
#
memory 32 gb

molecule  {
0 1
  P       -0.0389412     0.4734985     0.0830653
  O        1.0907140    -0.4402950     0.7609680
  O       -1.0048410    -0.5865790    -0.6866490
  O        0.7512110     1.1173330    -1.1929150
  O       -0.7044350     1.4170700     0.9839100
  C        1.8811349    -1.3383188    -0.0495743
  C       -1.9591270    -1.2882720     0.1502070
  H        1.2215740    -2.0052580    -0.6255210
  H        2.4895380    -1.9045040     0.6353170
  H        2.5026780    -0.7584230    -0.7438410
  H       -2.6431830    -0.5774540     0.6174740
  H       -1.4396990    -1.8621430     0.9229490
  H       -2.4975470    -1.9601810    -0.5134620
  H        0.3645100     1.9871850    -1.4006590
units angstrom
no_reorient  #important for SAPT in psi4, default
symmetry c1  #important for SAPT in psi4, default
}

set PROPERTIES_ORIGIN ["COM"]
properties('MP2/aug-cc-pvtz', properties = ['dipole'])
--------------------------------------------------------------------------

    Molecular point group: c1
  Charge       = 0
  Multiplicity = 1
  Basis Set: AUG-CC-PVTZ
    Blend: AUG-CC-PVTZ
  Basis Set: (AUG-CC-PVTZ AUX)
    Blend: AUG-CC-PVTZ-JKFIT

    Orbital Energies [Eh]
    ---------------------

    Doubly Occupied:

       1A    -80.109293     2A    -20.606327     3A    -20.598033
       4A    -20.595153     5A    -20.518294     6A    -11.300832
       7A    -11.297504     8A     -7.624999     9A     -5.523442
      10A     -5.522973    11A     -5.522109    12A     -1.447760
      13A     -1.380363    14A     -1.377223    15A     -1.304210
      16A     -0.972027    17A     -0.956058    18A     -0.815095
      19A     -0.729396    20A     -0.707157    21A     -0.677759
      22A     -0.654623    23A     -0.642535    24A     -0.631602
      25A     -0.627232    26A     -0.575212    27A     -0.557697
      28A     -0.543426    29A     -0.519173    30A     -0.498993
      31A     -0.488458    32A     -0.475759    33A     -0.468574

  @DF-RHF Final Energy:  -720.28097586329955

   => Energetics <=

    Nuclear Repulsion Energy =            450.8874197764673113
    One-Electron Energy =               -1889.7982100963326957
    Two-Electron Energy =                 718.6298144565657822
    Total Energy =                       -720.2809758632995454
  Basis Set: (AUG-CC-PVTZ AUX)
    Blend: AUG-CC-PVTZ-RI
    Molecular point group: c1

    Geometry (in Angstrom), charge = 0, multiplicity = 1:

       Center              X                  Y                   Z               Mass
    ------------   -----------------  -----------------  -----------------  -----------------
         P           -0.038762664860     0.472517987817     0.079020046955    30.973761998420
         O            1.090892535140    -0.441275512183     0.756922746955    15.994914619570
         O           -1.004662464860    -0.587559512183    -0.690694253045    15.994914619570
         O            0.751389535140     1.116352487817    -1.196960253045    15.994914619570
         O           -0.704256464860     1.416089487817     0.979864746955    15.994914619570
         C            1.881313435140    -1.339299312183    -0.053619553045    12.000000000000
         C           -1.958948464860    -1.289252512183     0.146161746955    12.000000000000
         H            1.221752535140    -2.006238512183    -0.629566253045     1.007825032230
         H            2.489716535140    -1.905484512183     0.631271746955     1.007825032230
         H            2.502856535140    -0.759403512183    -0.747886253045     1.007825032230
         H           -2.643004464860    -0.578434512183     0.613428746955     1.007825032230
         H           -1.439520464860    -1.863123512183     0.918903746955     1.007825032230
         H           -2.497368464860    -1.961161512183    -0.517507253045     1.007825032230
         H            0.364688535140     1.986204487817    -1.404704253045     1.007825032230

  Basis Set: AUG-CC-PVTZ
    Blend: AUG-CC-PVTZ
  Basis Set: (AUG-CC-PVTZ AUX)
    Blend: AUG-CC-PVTZ-JKFIT
	 Reference Energy          =    -720.2809758632995454 [Eh]
	 Singles Energy            =      -0.0000000000000000 [Eh]
	 Same-Spin Energy          =      -0.4041414205599320 [Eh]
	 Opposite-Spin Energy      =      -1.2298515687559815 [Eh]
	 Correlation Energy        =      -1.6339929893159135 [Eh]
	 Total Energy              =    -721.9149688526154023 [Eh]

	 ================> DF-SCS-MP2 Energies <==================
	-----------------------------------------------------------
	 SCS Same-Spin Scale       =       0.3333333333333333 [-]
	 SCS Opposite-Spin Scale   =       1.2000000000000000 [-]
	 SCS Same-Spin Energy      =      -0.1347138068533107 [Eh]
	 SCS Opposite-Spin Energy  =      -1.4758218825071776 [Eh]
	 SCS Correlation Energy    =      -1.6105356893604883 [Eh]
	 SCS Total Energy          =    -721.8915115526600630 [Eh]
	-----------------------------------------------------------

  Dipole Moment: [D]
     X:     0.4657      Y:    -2.5056      Z:    -1.8266     Total:     3.1355

*** Psi4 exiting successfully. Buy a developer a beer!
