                               Psi4 1.3.2 release

  ==> Input File <==

--------------------------------------------------------------------------
#psi4
#
memory 32 gb

molecule  {
0 1
  P       -0.0357750     0.4680410     0.0705770
  O        1.0907140    -0.4402950     0.7609680
  O       -1.0048410    -0.5865790    -0.6866490
  O        0.7512110     1.1173330    -1.1929150
  O       -0.6139005     1.2885744     0.8602476
  C        1.8748370    -1.3345260    -0.0598200
  C       -1.9591270    -1.2882720     0.1502070
  H        1.2215740    -2.0052580    -0.6255210
  H        2.4895380    -1.9045040     0.6353170
  H        2.5026780    -0.7584230    -0.7438410
  H       -2.6431830    -0.5774540     0.6174740
  H       -1.4396990    -1.8621430     0.9229490
  H       -2.4975470    -1.9601810    -0.5134620
  H        0.3645100     1.9871850    -1.4006590
units angstrom
no_reorient  #important for SAPT in psi4, default
symmetry c1  #important for SAPT in psi4, default
}

set PROPERTIES_ORIGIN ["COM"]
properties('MP2/aug-cc-pvtz', properties = ['dipole'])
--------------------------------------------------------------------------

    Molecular point group: c1
  Charge       = 0
  Multiplicity = 1
  Basis Set: AUG-CC-PVTZ
    Blend: AUG-CC-PVTZ
  Basis Set: (AUG-CC-PVTZ AUX)
    Blend: AUG-CC-PVTZ-JKFIT

    Orbital Energies [Eh]
    ---------------------

    Doubly Occupied:

       1A    -80.060274     2A    -20.593178     3A    -20.585218
       4A    -20.581731     5A    -20.505945     6A    -11.293831
       7A    -11.292242     8A     -7.592087     9A     -5.493011
      10A     -5.487673    11A     -5.487237    12A     -1.465726
      13A     -1.374402    14A     -1.369388    15A     -1.367512
      16A     -0.962669    17A     -0.950150    18A     -0.804020
      19A     -0.725978    20A     -0.707901    21A     -0.670129
      22A     -0.657639    23A     -0.635550    24A     -0.627917
      25A     -0.622066    26A     -0.601096    27A     -0.558634
      28A     -0.543669    29A     -0.530753    30A     -0.510871
      31A     -0.497746    32A     -0.487713    33A     -0.474862

  @DF-RHF Final Energy:  -720.23031915016782

   => Energetics <=

    Nuclear Repulsion Energy =            461.3171184225290062
    One-Electron Energy =               -1910.8572407196650147
    Two-Electron Energy =                 729.3098031469680791
    Total Energy =                       -720.2303191501678157
  Basis Set: (AUG-CC-PVTZ AUX)
    Blend: AUG-CC-PVTZ-RI
    Molecular point group: c1

    Geometry (in Angstrom), charge = 0, multiplicity = 1:

       Center              X                  Y                   Z               Mass
    ------------   -----------------  -----------------  -----------------  -----------------
         P           -0.047267022594     0.484351441353     0.086274332330    30.973761998420
         O            1.079221977406    -0.423984558647     0.776665332330    15.994914619570
         O           -1.016333022594    -0.570268558647    -0.670951667670    15.994914619570
         O            0.739718977406     1.133643441353    -1.177217667670    15.994914619570
         O           -0.625392522594     1.304884841353     0.875944932330    15.994914619570
         C            1.863344977406    -1.318215558647    -0.044122667670    12.000000000000
         C           -1.970619022594    -1.271961558647     0.165904332330    12.000000000000
         H            1.210081977406    -1.988947558647    -0.609823667670     1.007825032230
         H            2.478045977406    -1.888193558647     0.651014332330     1.007825032230
         H            2.491185977406    -0.742112558647    -0.728143667670     1.007825032230
         H           -2.654675022594    -0.561143558647     0.633171332330     1.007825032230
         H           -1.451191022594    -1.845832558647     0.938646332330     1.007825032230
         H           -2.509039022594    -1.943870558647    -0.497764667670     1.007825032230
         H            0.353017977406     2.003495441353    -1.384961667670     1.007825032230

  Basis Set: AUG-CC-PVTZ
    Blend: AUG-CC-PVTZ
  Basis Set: (AUG-CC-PVTZ AUX)
    Blend: AUG-CC-PVTZ-JKFIT
	 Reference Energy          =    -720.2303191501678157 [Eh]
	 Singles Energy            =      -0.0000000000000000 [Eh]
	 Same-Spin Energy          =      -0.3995180762339720 [Eh]
	 Opposite-Spin Energy      =      -1.2189622298614098 [Eh]
	 Correlation Energy        =      -1.6184803060953818 [Eh]
	 Total Energy              =    -721.8487994562632366 [Eh]

	 ================> DF-SCS-MP2 Energies <==================
	-----------------------------------------------------------
	 SCS Same-Spin Scale       =       0.3333333333333333 [-]
	 SCS Opposite-Spin Scale   =       1.2000000000000000 [-]
	 SCS Same-Spin Energy      =      -0.1331726920779907 [Eh]
	 SCS Opposite-Spin Energy  =      -1.4627546758336918 [Eh]
	 SCS Correlation Energy    =      -1.5959273679116825 [Eh]
	 SCS Total Energy          =    -721.8262465180795289 [Eh]
	-----------------------------------------------------------

  Dipole Moment: [D]
     X:     0.0465      Y:    -1.8652      Z:    -1.3411     Total:     2.2977

*** Psi4 exiting successfully. Buy a developer a beer!
