                               Psi4 1.3.2 release

  ==> Input File <==

--------------------------------------------------------------------------
#psi4
#
memory 32 gb

molecule  {
0 1
  P       -0.0357750     0.4680410     0.0705770
  O        1.0907140    -0.4402950     0.7609680
  O       -1.0048410    -0.5865790    -0.6866490
  O        0.7275884     1.1941879    -1.1652734
  O       -0.6790375     1.4748368     0.9392053
  C        1.8748370    -1.3345260    -0.0598200
  C       -1.9591270    -1.2882720     0.1502070
  H        1.2215740    -2.0052580    -0.6255210
  H        2.4895380    -1.9045040     0.6353170
  H        2.5026780    -0.7584230    -0.7438410
  H       -2.6431830    -0.5774540     0.6174740
  H       -1.4396990    -1.8621430     0.9229490
  H       -2.4975470    -1.9601810    -0.5134620
  H        0.3645100     1.9871850    -1.4006590
units angstrom
no_reorient  #important for SAPT in psi4, default
symmetry c1  #important for SAPT in psi4, default
}

set PROPERTIES_ORIGIN ["COM"]
properties('MP2/aug-cc-pvtz', properties = ['dipole'])
--------------------------------------------------------------------------

    Molecular point group: c1
  Charge       = 0
  Multiplicity = 1
  Basis Set: AUG-CC-PVTZ
    Blend: AUG-CC-PVTZ
  Basis Set: (AUG-CC-PVTZ AUX)
    Blend: AUG-CC-PVTZ-JKFIT

    Orbital Energies [Eh]
    ---------------------

    Doubly Occupied:

       1A    -80.111083     2A    -20.604071     3A    -20.600916
       4A    -20.594240     5A    -20.510401     6A    -11.304137
       7A    -11.301952     8A     -7.626290     9A     -5.524755
      10A     -5.524371    11A     -5.523283    12A     -1.453415
      13A     -1.392443    14A     -1.384590    15A     -1.292879
      16A     -0.976343    17A     -0.960495    18A     -0.831393
      19A     -0.741575    20A     -0.711875    21A     -0.678870
      22A     -0.655213    23A     -0.648584    24A     -0.635163
      25A     -0.630616    26A     -0.569361    27A     -0.560775
      28A     -0.545099    29A     -0.520876    30A     -0.503628
      31A     -0.493017    32A     -0.465948    33A     -0.461760

  @DF-RHF Final Energy:  -720.27891854774884

   => Energetics <=

    Nuclear Repulsion Energy =            450.8696732038769710
    One-Electron Energy =               -1889.6183558535803968
    Two-Electron Energy =                 718.4697641019545244
    Total Energy =                       -720.2789185477488445
  Basis Set: (AUG-CC-PVTZ AUX)
    Blend: AUG-CC-PVTZ-RI
    Molecular point group: c1

    Geometry (in Angstrom), charge = 0, multiplicity = 1:

       Center              X                  Y                   Z               Mass
    ------------   -----------------  -----------------  -----------------  -----------------
         P           -0.036000277476     0.450952512617     0.072743095790    30.973761998420
         O            1.090488722524    -0.457383487383     0.763134095790    15.994914619570
         O           -1.005066277476    -0.603667487383    -0.684482904210    15.994914619570
         O            0.727363122524     1.177099412617    -1.163107304210    15.994914619570
         O           -0.679262777476     1.457748312617     0.941371395790    15.994914619570
         C            1.874611722524    -1.351614487383    -0.057653904210    12.000000000000
         C           -1.959352277476    -1.305360487383     0.152373095790    12.000000000000
         H            1.221348722524    -2.022346487383    -0.623354904210     1.007825032230
         H            2.489312722524    -1.921592487383     0.637483095790     1.007825032230
         H            2.502452722524    -0.775511487383    -0.741674904210     1.007825032230
         H           -2.643408277476    -0.594542487383     0.619640095790     1.007825032230
         H           -1.439924277476    -1.879231487383     0.925115095790     1.007825032230
         H           -2.497772277476    -1.977269487383    -0.511295904210     1.007825032230
         H            0.364284722524     1.970096512617    -1.398492904210     1.007825032230

  Basis Set: AUG-CC-PVTZ
    Blend: AUG-CC-PVTZ
  Basis Set: (AUG-CC-PVTZ AUX)
    Blend: AUG-CC-PVTZ-JKFIT
	 Reference Energy          =    -720.2789185477488445 [Eh]
	 Singles Energy            =      -0.0000000000000000 [Eh]
	 Same-Spin Energy          =      -0.4031215875372379 [Eh]
	 Opposite-Spin Energy      =      -1.2275035919541584 [Eh]
	 Correlation Energy        =      -1.6306251794913962 [Eh]
	 Total Energy              =    -721.9095437272402478 [Eh]

	 ================> DF-SCS-MP2 Energies <==================
	-----------------------------------------------------------
	 SCS Same-Spin Scale       =       0.3333333333333333 [-]
	 SCS Opposite-Spin Scale   =       1.2000000000000000 [-]
	 SCS Same-Spin Energy      =      -0.1343738625124126 [Eh]
	 SCS Opposite-Spin Energy  =      -1.4730043103449899 [Eh]
	 SCS Correlation Energy    =      -1.6073781728574026 [Eh]
	 SCS Total Energy          =    -721.8862967206061967 [Eh]
	-----------------------------------------------------------

  Dipole Moment: [D]
     X:     0.4397      Y:    -3.0126      Z:    -1.8573     Total:     3.5663

*** Psi4 exiting successfully. Buy a developer a beer!
