                               Psi4 1.3.2 release

  ==> Input File <==

--------------------------------------------------------------------------
#psi4
#
memory 32 gb

molecule  {
0 1
  P       -0.0357750     0.4680410     0.0705770
  O        1.0907140    -0.4402950     0.7609680
  O       -0.9450256    -0.5214828    -0.6399094
  O        0.7512110     1.1173330    -1.1929150
  O       -0.7044350     1.4170700     0.9839100
  C        1.8748370    -1.3345260    -0.0598200
  C       -1.9591270    -1.2882720     0.1502070
  H        1.2215740    -2.0052580    -0.6255210
  H        2.4895380    -1.9045040     0.6353170
  H        2.5026780    -0.7584230    -0.7438410
  H       -2.6431830    -0.5774540     0.6174740
  H       -1.4396990    -1.8621430     0.9229490
  H       -2.4975470    -1.9601810    -0.5134620
  H        0.3645100     1.9871850    -1.4006590
units angstrom
no_reorient  #important for SAPT in psi4, default
symmetry c1  #important for SAPT in psi4, default
}

set PROPERTIES_ORIGIN ["COM"]
properties('MP2/aug-cc-pvtz', properties = ['dipole'])
--------------------------------------------------------------------------

    Molecular point group: c1
  Charge       = 0
  Multiplicity = 1
  Basis Set: AUG-CC-PVTZ
    Blend: AUG-CC-PVTZ
  Basis Set: (AUG-CC-PVTZ AUX)
    Blend: AUG-CC-PVTZ-JKFIT

    Orbital Energies [Eh]
    ---------------------

    Doubly Occupied:

       1A    -80.093957     2A    -20.599185     3A    -20.597194
       4A    -20.589514     5A    -20.504663     6A    -11.314405
       7A    -11.297232     8A     -7.611944     9A     -5.510410
      10A     -5.510204    11A     -5.508814    12A     -1.458864
      13A     -1.383958    14A     -1.375220    15A     -1.287241
      16A     -0.983583    17A     -0.958578    18A     -0.812320
      19A     -0.732843    20A     -0.711413    21A     -0.678312
      22A     -0.656467    23A     -0.642797    24A     -0.630863
      25A     -0.626339    26A     -0.573623    27A     -0.557457
      28A     -0.542343    29A     -0.524129    30A     -0.505051
      31A     -0.488022    32A     -0.462871    33A     -0.458069

  @DF-RHF Final Energy:  -720.27938779485953

   => Energetics <=

    Nuclear Repulsion Energy =            454.5198992075738715
    One-Electron Energy =               -1897.2228062119263541
    Two-Electron Energy =                 722.4235192094929516
    Total Energy =                       -720.2793877948595309
  Basis Set: (AUG-CC-PVTZ AUX)
    Blend: AUG-CC-PVTZ-RI
    Molecular point group: c1

    Geometry (in Angstrom), charge = 0, multiplicity = 1:

       Center              X                  Y                   Z               Mass
    ------------   -----------------  -----------------  -----------------  -----------------
         P           -0.043367677960     0.459777767436     0.064644267509    30.973761998420
         O            1.083121322040    -0.448558232564     0.755035267509    15.994914619570
         O           -0.952618277960    -0.529746032564    -0.645842132491    15.994914619570
         O            0.743618322040     1.109069767436    -1.198847732491    15.994914619570
         O           -0.712027677960     1.408806767436     0.977977267509    15.994914619570
         C            1.867244322040    -1.342789232564    -0.065752732491    12.000000000000
         C           -1.966719677960    -1.296535232564     0.144274267509    12.000000000000
         H            1.213981322040    -2.013521232564    -0.631453732491     1.007825032230
         H            2.481945322040    -1.912767232564     0.629384267509     1.007825032230
         H            2.495085322040    -0.766686232564    -0.749773732491     1.007825032230
         H           -2.650775677960    -0.585717232564     0.611541267509     1.007825032230
         H           -1.447291677960    -1.870406232564     0.917016267509     1.007825032230
         H           -2.505139677960    -1.968444232564    -0.519394732491     1.007825032230
         H            0.356917322040     1.978921767436    -1.406591732491     1.007825032230

  Basis Set: AUG-CC-PVTZ
    Blend: AUG-CC-PVTZ
  Basis Set: (AUG-CC-PVTZ AUX)
    Blend: AUG-CC-PVTZ-JKFIT
	 Reference Energy          =    -720.2793877948595309 [Eh]
	 Singles Energy            =      -0.0000000000000000 [Eh]
	 Same-Spin Energy          =      -0.4031283370657773 [Eh]
	 Opposite-Spin Energy      =      -1.2270567232412031 [Eh]
	 Correlation Energy        =      -1.6301850603069803 [Eh]
	 Total Energy              =    -721.9095728551665161 [Eh]

	 ================> DF-SCS-MP2 Energies <==================
	-----------------------------------------------------------
	 SCS Same-Spin Scale       =       0.3333333333333333 [-]
	 SCS Opposite-Spin Scale   =       1.2000000000000000 [-]
	 SCS Same-Spin Energy      =      -0.1343761123552591 [Eh]
	 SCS Opposite-Spin Energy  =      -1.4724680678894437 [Eh]
	 SCS Correlation Energy    =      -1.6068441802447029 [Eh]
	 SCS Total Energy          =    -721.8862319751042378 [Eh]
	-----------------------------------------------------------

  Dipole Moment: [D]
     X:    -0.0928      Y:    -3.0486      Z:    -2.0703     Total:     3.6862

*** Psi4 exiting successfully. Buy a developer a beer!
