                               Psi4 1.3.2 release

  ==> Input File <==

--------------------------------------------------------------------------
#psi4
#
memory 32 gb

molecule  {
0 1
  P       -0.0357750     0.4680410     0.0705770
  O        1.2312320    -0.5536006     0.8470872
  O       -1.0048410    -0.5865790    -0.6866490
  O        0.7512110     1.1173330    -1.1929150
  O       -0.7044350     1.4170700     0.9839100
  C        1.8748370    -1.3345260    -0.0598200
  C       -1.9591270    -1.2882720     0.1502070
  H        1.2215740    -2.0052580    -0.6255210
  H        2.4895380    -1.9045040     0.6353170
  H        2.5026780    -0.7584230    -0.7438410
  H       -2.6431830    -0.5774540     0.6174740
  H       -1.4396990    -1.8621430     0.9229490
  H       -2.4975470    -1.9601810    -0.5134620
  H        0.3645100     1.9871850    -1.4006590
units angstrom
no_reorient  #important for SAPT in psi4, default
symmetry c1  #important for SAPT in psi4, default
}

set PROPERTIES_ORIGIN ["COM"]
properties('MP2/aug-cc-pvtz', properties = ['dipole'])
--------------------------------------------------------------------------

    Molecular point group: c1
  Charge       = 0
  Multiplicity = 1
  Basis Set: AUG-CC-PVTZ
    Blend: AUG-CC-PVTZ
  Basis Set: (AUG-CC-PVTZ AUX)
    Blend: AUG-CC-PVTZ-JKFIT

    Orbital Energies [Eh]
    ---------------------

    Doubly Occupied:

       1A    -80.131059     2A    -20.622015     3A    -20.611833
       4A    -20.594518     5A    -20.531984     6A    -11.305288
       7A    -11.275369     8A     -7.644585     9A     -5.542799
      10A     -5.542245    11A     -5.541499    12A     -1.447826
      13A     -1.392696    14A     -1.380033    15A     -1.311027
      16A     -0.973457    17A     -0.929409    18A     -0.826975
      19A     -0.734745    20A     -0.706967    21A     -0.675320
      22A     -0.664611    23A     -0.646643    24A     -0.635979
      25A     -0.624761    26A     -0.584880    27A     -0.570726
      28A     -0.539827    29A     -0.523150    30A     -0.491623
      31A     -0.481654    32A     -0.466856    33A     -0.464908

  @DF-RHF Final Energy:  -720.24502747898430

   => Energetics <=

    Nuclear Repulsion Energy =            445.2394057209504581
    One-Electron Energy =               -1878.1343323079984202
    Two-Electron Energy =                 712.6498991080635506
    Total Energy =                       -720.2450274789842979
  Basis Set: (AUG-CC-PVTZ AUX)
    Blend: AUG-CC-PVTZ-RI
    Molecular point group: c1

    Geometry (in Angstrom), charge = 0, multiplicity = 1:

       Center              X                  Y                   Z               Mass
    ------------   -----------------  -----------------  -----------------  -----------------
         P           -0.053611703671     0.482423290952     0.059645597889    30.973761998420
         O            1.213395296329    -0.539218309048     0.836155797889    15.994914619570
         O           -1.022677703671    -0.572196709048    -0.697580402111    15.994914619570
         O            0.733374296329     1.131715290952    -1.203846402111    15.994914619570
         O           -0.722271703671     1.431452290952     0.972978597889    15.994914619570
         C            1.857000296329    -1.320143709048    -0.070751402111    12.000000000000
         C           -1.976963703671    -1.273889709048     0.139275597889    12.000000000000
         H            1.203737296329    -1.990875709048    -0.636452402111     1.007825032230
         H            2.471701296329    -1.890121709048     0.624385597889     1.007825032230
         H            2.484841296329    -0.744040709048    -0.754772402111     1.007825032230
         H           -2.661019703671    -0.563071709048     0.606542597889     1.007825032230
         H           -1.457535703671    -1.847760709048     0.912017597889     1.007825032230
         H           -2.515383703671    -1.945798709048    -0.524393402111     1.007825032230
         H            0.346673296329     2.001567290952    -1.411590402111     1.007825032230

  Basis Set: AUG-CC-PVTZ
    Blend: AUG-CC-PVTZ
  Basis Set: (AUG-CC-PVTZ AUX)
    Blend: AUG-CC-PVTZ-JKFIT
	 Reference Energy          =    -720.2450274789842979 [Eh]
	 Singles Energy            =      -0.0000000000000000 [Eh]
	 Same-Spin Energy          =      -0.4067516194056119 [Eh]
	 Opposite-Spin Energy      =      -1.2361983325211316 [Eh]
	 Correlation Energy        =      -1.6429499519267434 [Eh]
	 Total Energy              =    -721.8879774309110644 [Eh]

	 ================> DF-SCS-MP2 Energies <==================
	-----------------------------------------------------------
	 SCS Same-Spin Scale       =       0.3333333333333333 [-]
	 SCS Opposite-Spin Scale   =       1.2000000000000000 [-]
	 SCS Same-Spin Energy      =      -0.1355838731352040 [Eh]
	 SCS Opposite-Spin Energy  =      -1.4834379990253579 [Eh]
	 SCS Correlation Energy    =      -1.6190218721605618 [Eh]
	 SCS Total Energy          =    -721.8640493511448994 [Eh]
	-----------------------------------------------------------

  Dipole Moment: [D]
     X:    -0.5519      Y:    -1.8002      Z:    -2.1194     Total:     2.8350

*** Psi4 exiting successfully. Buy a developer a beer!
