                               Psi4 1.3.2 release

  ==> Input File <==

--------------------------------------------------------------------------
#psi4
#
memory 32 gb

molecule  {
0 1
  P       -0.0357750     0.4680410     0.0705770
  O        1.0907140    -0.4402950     0.7609680
  O       -1.0048410    -0.5865790    -0.6866490
  O        0.7549401     1.1043451    -1.1971872
  O       -0.7084915     1.4071849     0.9911206
  C        1.8748370    -1.3345260    -0.0598200
  C       -1.9591270    -1.2882720     0.1502070
  H        1.2215740    -2.0052580    -0.6255210
  H        2.4895380    -1.9045040     0.6353170
  H        2.5026780    -0.7584230    -0.7438410
  H       -2.6431830    -0.5774540     0.6174740
  H       -1.4396990    -1.8621430     0.9229490
  H       -2.4975470    -1.9601810    -0.5134620
  H        0.3645100     1.9871850    -1.4006590
units angstrom
no_reorient  #important for SAPT in psi4, default
symmetry c1  #important for SAPT in psi4, default
}

set PROPERTIES_ORIGIN ["COM"]
properties('MP2/aug-cc-pvtz', properties = ['dipole'])
--------------------------------------------------------------------------

    Molecular point group: c1
  Charge       = 0
  Multiplicity = 1
  Basis Set: AUG-CC-PVTZ
    Blend: AUG-CC-PVTZ
  Basis Set: (AUG-CC-PVTZ AUX)
    Blend: AUG-CC-PVTZ-JKFIT

    Orbital Energies [Eh]
    ---------------------

    Doubly Occupied:

       1A    -80.109377     2A    -20.610570     3A    -20.597733
       4A    -20.595735     5A    -20.516219     6A    -11.300293
       7A    -11.297874     8A     -7.624939     9A     -5.523438
      10A     -5.522957    11A     -5.521942    12A     -1.449449
      13A     -1.381238    14A     -1.379439    15A     -1.296947
      16A     -0.971752    17A     -0.956567    18A     -0.815745
      19A     -0.730168    20A     -0.708040    21A     -0.678293
      22A     -0.656363    23A     -0.641212    24A     -0.632318
      25A     -0.628235    26A     -0.572814    27A     -0.560437
      28A     -0.542249    29A     -0.518565    30A     -0.499463
      31A     -0.489143    32A     -0.471681    33A     -0.465280

  @DF-RHF Final Energy:  -720.28045714904374

   => Energetics <=

    Nuclear Repulsion Energy =            451.1672691573352836
    One-Electron Energy =               -1890.3625042515820951
    Two-Electron Energy =                 718.9147779452030136
    Total Energy =                       -720.2804571490437411
  Basis Set: (AUG-CC-PVTZ AUX)
    Blend: AUG-CC-PVTZ-RI
    Molecular point group: c1

    Geometry (in Angstrom), charge = 0, multiplicity = 1:

       Center              X                  Y                   Z               Mass
    ------------   -----------------  -----------------  -----------------  -----------------
         P           -0.035733420953     0.470944182726     0.070204195181    30.973761998420
         O            1.090755579047    -0.437391817274     0.760595195181    15.994914619570
         O           -1.004799420953    -0.583675817274    -0.687021804819    15.994914619570
         O            0.754981679047     1.107248282726    -1.197560004819    15.994914619570
         O           -0.708449920953     1.410088082726     0.990747795181    15.994914619570
         C            1.874878579047    -1.331622817274    -0.060192804819    12.000000000000
         C           -1.959085420953    -1.285368817274     0.149834195181    12.000000000000
         H            1.221615579047    -2.002354817274    -0.625893804819     1.007825032230
         H            2.489579579047    -1.901600817274     0.634944195181     1.007825032230
         H            2.502719579047    -0.755519817274    -0.744213804819     1.007825032230
         H           -2.643141420953    -0.574550817274     0.617101195181     1.007825032230
         H           -1.439657420953    -1.859239817274     0.922576195181     1.007825032230
         H           -2.497505420953    -1.957277817274    -0.513834804819     1.007825032230
         H            0.364551579047     1.990088182726    -1.401031804819     1.007825032230

  Basis Set: AUG-CC-PVTZ
    Blend: AUG-CC-PVTZ
  Basis Set: (AUG-CC-PVTZ AUX)
    Blend: AUG-CC-PVTZ-JKFIT
	 Reference Energy          =    -720.2804571490437411 [Eh]
	 Singles Energy            =      -0.0000000000000000 [Eh]
	 Same-Spin Energy          =      -0.4044891514551807 [Eh]
	 Opposite-Spin Energy      =      -1.2304367986333886 [Eh]
	 Correlation Energy        =      -1.6349259500885693 [Eh]
	 Total Energy              =    -721.9153830991323275 [Eh]

	 ================> DF-SCS-MP2 Energies <==================
	-----------------------------------------------------------
	 SCS Same-Spin Scale       =       0.3333333333333333 [-]
	 SCS Opposite-Spin Scale   =       1.2000000000000000 [-]
	 SCS Same-Spin Energy      =      -0.1348297171517269 [Eh]
	 SCS Opposite-Spin Energy  =      -1.4765241583600663 [Eh]
	 SCS Correlation Energy    =      -1.6113538755117933 [Eh]
	 SCS Total Energy          =    -721.8918110245555226 [Eh]
	-----------------------------------------------------------

  Dipole Moment: [D]
     X:     0.4849      Y:    -2.4864      Z:    -1.9652     Total:     3.2061

*** Psi4 exiting successfully. Buy a developer a beer!
