                               Psi4 1.3.2 release

  ==> Input File <==

--------------------------------------------------------------------------
#psi4
#
memory 32 gb

molecule  {
0 1
  P       -0.0357750     0.4680410     0.0705770
  O        1.0814908    -0.4441998     0.7707380
  O       -1.0048410    -0.5865790    -0.6866490
  O        0.7394150     1.1242564    -1.1966250
  O       -0.7044350     1.4170700     0.9839100
  C        1.8748370    -1.3345260    -0.0598200
  C       -1.9591270    -1.2882720     0.1502070
  H        1.2215740    -2.0052580    -0.6255210
  H        2.4895380    -1.9045040     0.6353170
  H        2.5026780    -0.7584230    -0.7438410
  H       -2.6431830    -0.5774540     0.6174740
  H       -1.4396990    -1.8621430     0.9229490
  H       -2.4975470    -1.9601810    -0.5134620
  H        0.3645100     1.9871850    -1.4006590
units angstrom
no_reorient  #important for SAPT in psi4, default
symmetry c1  #important for SAPT in psi4, default
}

set PROPERTIES_ORIGIN ["COM"]
properties('MP2/aug-cc-pvtz', properties = ['dipole'])
--------------------------------------------------------------------------

    Molecular point group: c1
  Charge       = 0
  Multiplicity = 1
  Basis Set: AUG-CC-PVTZ
    Blend: AUG-CC-PVTZ
  Basis Set: (AUG-CC-PVTZ AUX)
    Blend: AUG-CC-PVTZ-JKFIT

    Orbital Energies [Eh]
    ---------------------

    Doubly Occupied:

       1A    -80.109383     2A    -20.607502     3A    -20.599888
       4A    -20.595871     5A    -20.514175     6A    -11.302350
       7A    -11.298047     8A     -7.624892     9A     -5.523343
      10A     -5.522924    11A     -5.521920    12A     -1.449863
      13A     -1.384147    14A     -1.379500    15A     -1.295412
      16A     -0.972292    17A     -0.957310    18A     -0.820041
      19A     -0.732557    20A     -0.708581    21A     -0.678117
      22A     -0.655548    23A     -0.642412    24A     -0.632269
      25A     -0.628439    26A     -0.571289    27A     -0.561176
      28A     -0.543295    29A     -0.519774    30A     -0.500766
      31A     -0.490120    32A     -0.469853    33A     -0.463997

  @DF-RHF Final Energy:  -720.28178700160902

   => Energetics <=

    Nuclear Repulsion Energy =            451.0024137017867929
    One-Electron Energy =               -1890.0142925222269241
    Two-Electron Energy =                 718.7300918188311698
    Total Energy =                       -720.2817870016090183
  Basis Set: (AUG-CC-PVTZ AUX)
    Blend: AUG-CC-PVTZ-RI
    Molecular point group: c1

    Geometry (in Angstrom), charge = 0, multiplicity = 1:

       Center              X                  Y                   Z               Mass
    ------------   -----------------  -----------------  -----------------  -----------------
         P           -0.033106896762     0.467657619269     0.069807953292    30.973761998420
         O            1.084158903238    -0.444583180731     0.769968953292    15.994914619570
         O           -1.002172896762    -0.586962380731    -0.687418046708    15.994914619570
         O            0.742083103238     1.123873019269    -1.197394046708    15.994914619570
         O           -0.701766896762     1.416686619269     0.983140953292    15.994914619570
         C            1.877505103238    -1.334909380731    -0.060589046708    12.000000000000
         C           -1.956458896762    -1.288655380731     0.149437953292    12.000000000000
         H            1.224242103238    -2.005641380731    -0.626290046708     1.007825032230
         H            2.492206103238    -1.904887380731     0.634547953292     1.007825032230
         H            2.505346103238    -0.758806380731    -0.744610046708     1.007825032230
         H           -2.640514896762    -0.577837380731     0.616704953292     1.007825032230
         H           -1.437030896762    -1.862526380731     0.922179953292     1.007825032230
         H           -2.494878896762    -1.960564380731    -0.514231046708     1.007825032230
         H            0.367178103238     1.986801619269    -1.401428046708     1.007825032230

  Basis Set: AUG-CC-PVTZ
    Blend: AUG-CC-PVTZ
  Basis Set: (AUG-CC-PVTZ AUX)
    Blend: AUG-CC-PVTZ-JKFIT
	 Reference Energy          =    -720.2817870016090183 [Eh]
	 Singles Energy            =      -0.0000000000000000 [Eh]
	 Same-Spin Energy          =      -0.4041183288219249 [Eh]
	 Opposite-Spin Energy      =      -1.2297294758367137 [Eh]
	 Correlation Energy        =      -1.6338478046586387 [Eh]
	 Total Energy              =    -721.9156348062676898 [Eh]

	 ================> DF-SCS-MP2 Energies <==================
	-----------------------------------------------------------
	 SCS Same-Spin Scale       =       0.3333333333333333 [-]
	 SCS Opposite-Spin Scale   =       1.2000000000000000 [-]
	 SCS Same-Spin Energy      =      -0.1347061096073083 [Eh]
	 SCS Opposite-Spin Energy  =      -1.4756753710040564 [Eh]
	 SCS Correlation Energy    =      -1.6103814806113648 [Eh]
	 SCS Total Energy          =    -721.8921684822204270 [Eh]
	-----------------------------------------------------------

  Dipole Moment: [D]
     X:     0.5498      Y:    -2.5914      Z:    -1.9653     Total:     3.2985

*** Psi4 exiting successfully. Buy a developer a beer!
