                               Psi4 1.3.2 release

  ==> Input File <==

--------------------------------------------------------------------------
#psi4
#
memory 32 gb

molecule  {
0 1
  P       -0.0357750     0.4680410     0.0705770
  O        1.0907140    -0.4402950     0.7609680
  O       -0.9941991    -0.6087322    -0.6927062
  O        0.7512110     1.1173330    -1.1929150
  O       -0.7044350     1.4170700     0.9839100
  C        1.8748370    -1.3345260    -0.0598200
  C       -1.9591270    -1.2882720     0.1502070
  H        1.2215740    -2.0052580    -0.6255210
  H        2.4895380    -1.9045040     0.6353170
  H        2.5026780    -0.7584230    -0.7438410
  H       -2.6520523    -0.5919288     0.6261208
  H       -1.4396990    -1.8621430     0.9229490
  H       -2.4975470    -1.9601810    -0.5134620
  H        0.3645100     1.9871850    -1.4006590
units angstrom
no_reorient  #important for SAPT in psi4, default
symmetry c1  #important for SAPT in psi4, default
}

set PROPERTIES_ORIGIN ["COM"]
properties('MP2/aug-cc-pvtz', properties = ['dipole'])
--------------------------------------------------------------------------

    Molecular point group: c1
  Charge       = 0
  Multiplicity = 1
  Basis Set: AUG-CC-PVTZ
    Blend: AUG-CC-PVTZ
  Basis Set: (AUG-CC-PVTZ AUX)
    Blend: AUG-CC-PVTZ-JKFIT

    Orbital Energies [Eh]
    ---------------------

    Doubly Occupied:

       1A    -80.110988     2A    -20.609168     3A    -20.598392
       4A    -20.596892     5A    -20.517560     6A    -11.300445
       7A    -11.297508     8A     -7.626334     9A     -5.524822
      10A     -5.524353    11A     -5.523332    12A     -1.449190
      13A     -1.382927    14A     -1.378499    15A     -1.298077
      16A     -0.971484    17A     -0.956050    18A     -0.818296
      19A     -0.731346    20A     -0.708175    21A     -0.677957
      22A     -0.655417    23A     -0.642236    24A     -0.632575
      25A     -0.626613    26A     -0.572834    27A     -0.561525
      28A     -0.542565    29A     -0.518379    30A     -0.499446
      31A     -0.488590    32A     -0.472450    33A     -0.466662

  @DF-RHF Final Energy:  -720.28022995634433

   => Energetics <=

    Nuclear Repulsion Energy =            450.7484022364101861
    One-Electron Energy =               -1889.4950902512694029
    Two-Electron Energy =                 718.4664580585149452
    Total Energy =                       -720.2802299563443285
  Basis Set: (AUG-CC-PVTZ AUX)
    Blend: AUG-CC-PVTZ-RI
    Molecular point group: c1

    Geometry (in Angstrom), charge = 0, multiplicity = 1:

       Center              X                  Y                   Z               Mass
    ------------   -----------------  -----------------  -----------------  -----------------
         P           -0.037054877176     0.470968585315     0.071276898363    30.973761998420
         O            1.089434122824    -0.437367414685     0.761667898363    15.994914619570
         O           -0.995478977176    -0.605804614685    -0.692006301637    15.994914619570
         O            0.749931122824     1.120260585315    -1.192215101637    15.994914619570
         O           -0.705714877176     1.419997585315     0.984609898363    15.994914619570
         C            1.873557122824    -1.331598414685    -0.059120101637    12.000000000000
         C           -1.960406877176    -1.285344414685     0.150906898363    12.000000000000
         H            1.220294122824    -2.002330414685    -0.624821101637     1.007825032230
         H            2.488258122824    -1.901576414685     0.636016898363     1.007825032230
         H            2.501398122824    -0.755495414685    -0.743141101637     1.007825032230
         H           -2.653332177176    -0.589001214685     0.626820698363     1.007825032230
         H           -1.440978877176    -1.859215414685     0.923648898363     1.007825032230
         H           -2.498826877176    -1.957253414685    -0.512762101637     1.007825032230
         H            0.363230122824     1.990112585315    -1.399959101637     1.007825032230

  Basis Set: AUG-CC-PVTZ
    Blend: AUG-CC-PVTZ
  Basis Set: (AUG-CC-PVTZ AUX)
    Blend: AUG-CC-PVTZ-JKFIT
	 Reference Energy          =    -720.2802299563443285 [Eh]
	 Singles Energy            =      -0.0000000000000000 [Eh]
	 Same-Spin Energy          =      -0.4044695345648798 [Eh]
	 Opposite-Spin Energy      =      -1.2304738034994362 [Eh]
	 Correlation Energy        =      -1.6349433380643161 [Eh]
	 Total Energy              =    -721.9151732944086461 [Eh]

	 ================> DF-SCS-MP2 Energies <==================
	-----------------------------------------------------------
	 SCS Same-Spin Scale       =       0.3333333333333333 [-]
	 SCS Opposite-Spin Scale   =       1.2000000000000000 [-]
	 SCS Same-Spin Energy      =      -0.1348231781882933 [Eh]
	 SCS Opposite-Spin Energy  =      -1.4765685641993234 [Eh]
	 SCS Correlation Energy    =      -1.6113917423876165 [Eh]
	 SCS Total Energy          =    -721.8916216987319103 [Eh]
	-----------------------------------------------------------

  Dipole Moment: [D]
     X:     0.4806      Y:    -2.4735      Z:    -1.9251     Total:     3.1709

*** Psi4 exiting successfully. Buy a developer a beer!
