                               Psi4 1.3.2 release

  ==> Input File <==

--------------------------------------------------------------------------
#psi4
#
memory 32 gb

molecule  {
0 1
  P       -0.0357750     0.4680410     0.0705770
  O        1.0907140    -0.4402950     0.7609680
  O       -0.9939572    -0.5784057    -0.7114331
  O        0.7364423     1.1006057    -1.2103919
  O       -0.7044350     1.4170700     0.9839100
  C        1.8748370    -1.3345260    -0.0598200
  C       -1.9591270    -1.2882720     0.1502070
  H        1.2215740    -2.0052580    -0.6255210
  H        2.4895380    -1.9045040     0.6353170
  H        2.5026780    -0.7584230    -0.7438410
  H       -2.6431830    -0.5774540     0.6174740
  H       -1.4396990    -1.8621430     0.9229490
  H       -2.4975470    -1.9601810    -0.5134620
  H        0.3645100     1.9871850    -1.4006590
units angstrom
no_reorient  #important for SAPT in psi4, default
symmetry c1  #important for SAPT in psi4, default
}

set PROPERTIES_ORIGIN ["COM"]
properties('MP2/aug-cc-pvtz', properties = ['dipole'])
--------------------------------------------------------------------------

    Molecular point group: c1
  Charge       = 0
  Multiplicity = 1
  Basis Set: AUG-CC-PVTZ
    Blend: AUG-CC-PVTZ
  Basis Set: (AUG-CC-PVTZ AUX)
    Blend: AUG-CC-PVTZ-JKFIT

    Orbital Energies [Eh]
    ---------------------

    Doubly Occupied:

       1A    -80.108279     2A    -20.606340     3A    -20.598713
       4A    -20.596224     5A    -20.516588     6A    -11.300849
       7A    -11.300496     8A     -7.623907     9A     -5.522407
      10A     -5.521932    11A     -5.520896    12A     -1.447844
      13A     -1.381340    14A     -1.373375    15A     -1.296921
      16A     -0.971225    17A     -0.957120    18A     -0.815856
      19A     -0.727345    20A     -0.707620    21A     -0.677321
      22A     -0.653617    23A     -0.639298    24A     -0.631036
      25A     -0.625797    26A     -0.572901    27A     -0.556537
      28A     -0.543973    29A     -0.519727    30A     -0.500925
      31A     -0.490831    32A     -0.471817    33A     -0.466015

  @DF-RHF Final Energy:  -720.27928585356005

   => Energetics <=

    Nuclear Repulsion Energy =            450.8491503870434371
    One-Electron Energy =               -1889.7667224894989886
    Two-Electron Energy =                 718.6382862488954970
    Total Energy =                       -720.2792858535600544
  Basis Set: (AUG-CC-PVTZ AUX)
    Blend: AUG-CC-PVTZ-RI
    Molecular point group: c1

    Geometry (in Angstrom), charge = 0, multiplicity = 1:

       Center              X                  Y                   Z               Mass
    ------------   -----------------  -----------------  -----------------  -----------------
         P           -0.035281847875     0.469126593155     0.075941604084    30.973761998420
         O            1.091207152125    -0.439209406845     0.766332604084    15.994914619570
         O           -0.993464047875    -0.577320106845    -0.706068495916    15.994914619570
         O            0.736935452125     1.101691293155    -1.205027295916    15.994914619570
         O           -0.703941847875     1.418155593155     0.989274604084    15.994914619570
         C            1.875330152125    -1.333440406845    -0.054455395916    12.000000000000
         C           -1.958633847875    -1.287186406845     0.155571604084    12.000000000000
         H            1.222067152125    -2.004172406845    -0.620156395916     1.007825032230
         H            2.490031152125    -1.903418406845     0.640681604084     1.007825032230
         H            2.503171152125    -0.757337406845    -0.738476395916     1.007825032230
         H           -2.642689847875    -0.576368406845     0.622838604084     1.007825032230
         H           -1.439205847875    -1.861057406845     0.928313604084     1.007825032230
         H           -2.497053847875    -1.959095406845    -0.508097395916     1.007825032230
         H            0.365003152125     1.988270593155    -1.395294395916     1.007825032230

  Basis Set: AUG-CC-PVTZ
    Blend: AUG-CC-PVTZ
  Basis Set: (AUG-CC-PVTZ AUX)
    Blend: AUG-CC-PVTZ-JKFIT
	 Reference Energy          =    -720.2792858535600544 [Eh]
	 Singles Energy            =      -0.0000000000000000 [Eh]
	 Same-Spin Energy          =      -0.4045834411882426 [Eh]
	 Opposite-Spin Energy      =      -1.2309603693764160 [Eh]
	 Correlation Energy        =      -1.6355438105646585 [Eh]
	 Total Energy              =    -721.9148296641246816 [Eh]

	 ================> DF-SCS-MP2 Energies <==================
	-----------------------------------------------------------
	 SCS Same-Spin Scale       =       0.3333333333333333 [-]
	 SCS Opposite-Spin Scale   =       1.2000000000000000 [-]
	 SCS Same-Spin Energy      =      -0.1348611470627475 [Eh]
	 SCS Opposite-Spin Energy  =      -1.4771524432516991 [Eh]
	 SCS Correlation Energy    =      -1.6120135903144466 [Eh]
	 SCS Total Energy          =    -721.8912994438744590 [Eh]
	-----------------------------------------------------------

  Dipole Moment: [D]
     X:     0.4420      Y:    -2.5724      Z:    -1.8322     Total:     3.1890

*** Psi4 exiting successfully. Buy a developer a beer!
