                               Psi4 1.3.2 release

  ==> Input File <==

--------------------------------------------------------------------------
#psi4
#
memory 32 gb

molecule  {
0 1
  P       -0.0357750     0.4680410     0.0705770
  O        1.0907140    -0.4402950     0.7609680
  O       -0.8852101    -0.4563865    -0.5931697
  O        0.7512110     1.1173330    -1.1929150
  O       -0.7044350     1.4170700     0.9839100
  C        1.8748370    -1.3345260    -0.0598200
  C       -1.9591270    -1.2882720     0.1502070
  H        1.2215740    -2.0052580    -0.6255210
  H        2.4895380    -1.9045040     0.6353170
  H        2.5026780    -0.7584230    -0.7438410
  H       -2.6431830    -0.5774540     0.6174740
  H       -1.4396990    -1.8621430     0.9229490
  H       -2.4975470    -1.9601810    -0.5134620
  H        0.3645100     1.9871850    -1.4006590
units angstrom
no_reorient  #important for SAPT in psi4, default
symmetry c1  #important for SAPT in psi4, default
}

set PROPERTIES_ORIGIN ["COM"]
properties('MP2/aug-cc-pvtz', properties = ['dipole'])
--------------------------------------------------------------------------

    Molecular point group: c1
  Charge       = 0
  Multiplicity = 1
  Basis Set: AUG-CC-PVTZ
    Blend: AUG-CC-PVTZ
  Basis Set: (AUG-CC-PVTZ AUX)
    Blend: AUG-CC-PVTZ-JKFIT

    Orbital Energies [Eh]
    ---------------------

    Doubly Occupied:

       1A    -80.073846     2A    -20.595274     3A    -20.588445
       4A    -20.579470     5A    -20.492848     6A    -11.332668
       7A    -11.293327     8A     -7.596259     9A     -5.495731
      10A     -5.493839    11A     -5.492481    12A     -1.478537
      13A     -1.383392    14A     -1.366844    15A     -1.277187
      16A     -0.998603    17A     -0.954790    18A     -0.806802
      19A     -0.734811    20A     -0.717287    21A     -0.681373
      22A     -0.658223    23A     -0.640226    24A     -0.630110
      25A     -0.620028    26A     -0.582931    27A     -0.561757
      28A     -0.536723    29A     -0.527836    30A     -0.504579
      31A     -0.482210    32A     -0.453732    33A     -0.448968

  @DF-RHF Final Energy:  -720.25417891361997

   => Energetics <=

    Nuclear Repulsion Energy =            458.3235034396871583
    One-Electron Energy =               -1904.9930889331840262
    Two-Electron Energy =                 726.4154065798769579
    Total Energy =                       -720.2541789136199668
  Basis Set: (AUG-CC-PVTZ AUX)
    Blend: AUG-CC-PVTZ-RI
    Molecular point group: c1

    Geometry (in Angstrom), charge = 0, multiplicity = 1:

       Center              X                  Y                   Z               Mass
    ------------   -----------------  -----------------  -----------------  -----------------
         P           -0.050960388975     0.451514735379     0.058711339840    30.973761998420
         O            1.075528611025    -0.456821264621     0.749102339840    15.994914619570
         O           -0.900395488975    -0.472912764621    -0.605035360160    15.994914619570
         O            0.736025611025     1.100806735379    -1.204780660160    15.994914619570
         O           -0.719620388975     1.400543735379     0.972044339840    15.994914619570
         C            1.859651611025    -1.351052264621    -0.071685660160    12.000000000000
         C           -1.974312388975    -1.304798264621     0.138341339840    12.000000000000
         H            1.206388611025    -2.021784264621    -0.637386660160     1.007825032230
         H            2.474352611025    -1.921030264621     0.623451339840     1.007825032230
         H            2.487492611025    -0.774949264621    -0.755706660160     1.007825032230
         H           -2.658368388975    -0.593980264621     0.605608339840     1.007825032230
         H           -1.454884388975    -1.878669264621     0.911083339840     1.007825032230
         H           -2.512732388975    -1.976707264621    -0.525327660160     1.007825032230
         H            0.349324611025     1.970658735379    -1.412524660160     1.007825032230

  Basis Set: AUG-CC-PVTZ
    Blend: AUG-CC-PVTZ
  Basis Set: (AUG-CC-PVTZ AUX)
    Blend: AUG-CC-PVTZ-JKFIT
	 Reference Energy          =    -720.2541789136199668 [Eh]
	 Singles Energy            =      -0.0000000000000000 [Eh]
	 Same-Spin Energy          =      -0.4020518850463378 [Eh]
	 Opposite-Spin Energy      =      -1.2243932330239844 [Eh]
	 Correlation Energy        =      -1.6264451180703221 [Eh]
	 Total Energy              =    -721.8806240316903313 [Eh]

	 ================> DF-SCS-MP2 Energies <==================
	-----------------------------------------------------------
	 SCS Same-Spin Scale       =       0.3333333333333333 [-]
	 SCS Opposite-Spin Scale   =       1.2000000000000000 [-]
	 SCS Same-Spin Energy      =      -0.1340172950154459 [Eh]
	 SCS Opposite-Spin Energy  =      -1.4692718796287811 [Eh]
	 SCS Correlation Energy    =      -1.6032891746442270 [Eh]
	 SCS Total Energy          =    -721.8574680882642269 [Eh]
	-----------------------------------------------------------

  Dipole Moment: [D]
     X:    -0.7150      Y:    -3.5803      Z:    -2.1912     Total:     4.2581

*** Psi4 exiting successfully. Buy a developer a beer!
