                               Psi4 1.3.2 release

  ==> Input File <==

--------------------------------------------------------------------------
#psi4
#
memory 32 gb

molecule  {
0 1
  P       -0.0357750     0.4680410     0.0705770
  O        1.0845889    -0.4517445     0.7557564
  O       -0.9967467    -0.5972210    -0.6820543
  O        0.7512110     1.1173330    -1.1929150
  O       -0.7044350     1.4170700     0.9839100
  C        1.8748370    -1.3345260    -0.0598200
  C       -1.9591270    -1.2882720     0.1502070
  H        1.2215740    -2.0052580    -0.6255210
  H        2.4895380    -1.9045040     0.6353170
  H        2.5026780    -0.7584230    -0.7438410
  H       -2.6431830    -0.5774540     0.6174740
  H       -1.4396990    -1.8621430     0.9229490
  H       -2.4975470    -1.9601810    -0.5134620
  H        0.3645100     1.9871850    -1.4006590
units angstrom
no_reorient  #important for SAPT in psi4, default
symmetry c1  #important for SAPT in psi4, default
}

set PROPERTIES_ORIGIN ["COM"]
properties('MP2/aug-cc-pvtz', properties = ['dipole'])
--------------------------------------------------------------------------

    Molecular point group: c1
  Charge       = 0
  Multiplicity = 1
  Basis Set: AUG-CC-PVTZ
    Blend: AUG-CC-PVTZ
  Basis Set: (AUG-CC-PVTZ AUX)
    Blend: AUG-CC-PVTZ-JKFIT

    Orbital Energies [Eh]
    ---------------------

    Doubly Occupied:

       1A    -80.110185     2A    -20.609247     3A    -20.597685
       4A    -20.595757     5A    -20.516753     6A    -11.299670
       7A    -11.297931     8A     -7.625663     9A     -5.524158
      10A     -5.523712    11A     -5.522663    12A     -1.450775
      13A     -1.383762    14A     -1.380546    15A     -1.297554
      16A     -0.972643    17A     -0.956567    18A     -0.817972
      19A     -0.732230    20A     -0.709113    21A     -0.679199
      22A     -0.656516    23A     -0.643190    24A     -0.632901
      25A     -0.628912    26A     -0.572830    27A     -0.561469
      28A     -0.541789    29A     -0.518485    30A     -0.499194
      31A     -0.488113    32A     -0.472047    33A     -0.465848

  @DF-RHF Final Energy:  -720.28165783810584

   => Energetics <=

    Nuclear Repulsion Energy =            451.3403024385571598
    One-Electron Energy =               -1890.6737628180269439
    Two-Electron Energy =                 719.0518025413638270
    Total Energy =                       -720.2816578381058434
  Basis Set: (AUG-CC-PVTZ AUX)
    Blend: AUG-CC-PVTZ-RI
    Molecular point group: c1

    Geometry (in Angstrom), charge = 0, multiplicity = 1:

       Center              X                  Y                   Z               Mass
    ------------   -----------------  -----------------  -----------------  -----------------
         P           -0.036024941046     0.470844982625     0.070655489001    30.973761998420
         O            1.084338958954    -0.448940517375     0.755834889001    15.994914619570
         O           -0.996996641046    -0.594417017375    -0.681975810999    15.994914619570
         O            0.750961058954     1.120136982625    -1.192836510999    15.994914619570
         O           -0.704684941046     1.419873982625     0.983988489001    15.994914619570
         C            1.874587058954    -1.331722017375    -0.059741510999    12.000000000000
         C           -1.959376941046    -1.285468017375     0.150285489001    12.000000000000
         H            1.221324058954    -2.002454017375    -0.625442510999     1.007825032230
         H            2.489288058954    -1.901700017375     0.635395489001     1.007825032230
         H            2.502428058954    -0.755619017375    -0.743762510999     1.007825032230
         H           -2.643432941046    -0.574650017375     0.617552489001     1.007825032230
         H           -1.439948941046    -1.859339017375     0.923027489001     1.007825032230
         H           -2.497796941046    -1.957377017375    -0.513383510999     1.007825032230
         H            0.364260058954     1.989988982625    -1.400580510999     1.007825032230

  Basis Set: AUG-CC-PVTZ
    Blend: AUG-CC-PVTZ
  Basis Set: (AUG-CC-PVTZ AUX)
    Blend: AUG-CC-PVTZ-JKFIT
	 Reference Energy          =    -720.2816578381058434 [Eh]
	 Singles Energy            =      -0.0000000000000000 [Eh]
	 Same-Spin Energy          =      -0.4042532786309356 [Eh]
	 Opposite-Spin Energy      =      -1.2297825464645253 [Eh]
	 Correlation Energy        =      -1.6340358250954610 [Eh]
	 Total Energy              =    -721.9156936632012957 [Eh]

	 ================> DF-SCS-MP2 Energies <==================
	-----------------------------------------------------------
	 SCS Same-Spin Scale       =       0.3333333333333333 [-]
	 SCS Opposite-Spin Scale   =       1.2000000000000000 [-]
	 SCS Same-Spin Energy      =      -0.1347510928769785 [Eh]
	 SCS Opposite-Spin Energy  =      -1.4757390557574304 [Eh]
	 SCS Correlation Energy    =      -1.6104901486344090 [Eh]
	 SCS Total Energy          =    -721.8921479867402695 [Eh]
	-----------------------------------------------------------

  Dipole Moment: [D]
     X:     0.4640      Y:    -2.4840      Z:    -1.9447     Total:     3.1886

*** Psi4 exiting successfully. Buy a developer a beer!
