                               Psi4 1.3.2 release

  ==> Input File <==

--------------------------------------------------------------------------
#psi4
#
memory 32 gb

molecule  {
0 1
  P       -0.0357750     0.4680410     0.0705770
  O        1.1120037    -0.4297438     0.7694239
  O       -1.0048410    -0.5865790    -0.6866490
  O        0.7512110     1.1173330    -1.1929150
  O       -0.7044350     1.4170700     0.9839100
  C        1.8748370    -1.3345260    -0.0598200
  C       -1.9591270    -1.2882720     0.1502070
  H        1.2369761    -2.0134022    -0.6333286
  H        2.4895380    -1.9045040     0.6353170
  H        2.5026780    -0.7584230    -0.7438410
  H       -2.6431830    -0.5774540     0.6174740
  H       -1.4396990    -1.8621430     0.9229490
  H       -2.4975470    -1.9601810    -0.5134620
  H        0.3645100     1.9871850    -1.4006590
units angstrom
no_reorient  #important for SAPT in psi4, default
symmetry c1  #important for SAPT in psi4, default
}

set PROPERTIES_ORIGIN ["COM"]
properties('MP2/aug-cc-pvtz', properties = ['dipole'])
--------------------------------------------------------------------------

    Molecular point group: c1
  Charge       = 0
  Multiplicity = 1
  Basis Set: AUG-CC-PVTZ
    Blend: AUG-CC-PVTZ
  Basis Set: (AUG-CC-PVTZ AUX)
    Blend: AUG-CC-PVTZ-JKFIT

    Orbital Energies [Eh]
    ---------------------

    Doubly Occupied:

       1A    -80.111056     2A    -20.608600     3A    -20.599163
       4A    -20.598517     5A    -20.516069     6A    -11.299550
       7A    -11.299400     8A     -7.626358     9A     -5.524823
      10A     -5.524352    11A     -5.523385    12A     -1.448739
      13A     -1.381866    14A     -1.380600    15A     -1.296949
      16A     -0.971437    17A     -0.956794    18A     -0.818312
      19A     -0.731741    20A     -0.708468    21A     -0.676829
      22A     -0.656563    23A     -0.641987    24A     -0.633344
      25A     -0.627291    26A     -0.573101    27A     -0.560765
      28A     -0.542222    29A     -0.519318    30A     -0.499482
      31A     -0.489899    32A     -0.471199    33A     -0.465798

  @DF-RHF Final Energy:  -720.28027412933113

   => Energetics <=

    Nuclear Repulsion Energy =            450.4963329038306483
    One-Electron Energy =               -1888.9852598727729855
    Two-Electron Energy =                 718.2086528396113181
    Total Energy =                       -720.2802741293311328
  Basis Set: (AUG-CC-PVTZ AUX)
    Blend: AUG-CC-PVTZ-RI
    Molecular point group: c1

    Geometry (in Angstrom), charge = 0, multiplicity = 1:

       Center              X                  Y                   Z               Mass
    ------------   -----------------  -----------------  -----------------  -----------------
         P           -0.038600585972     0.466766602898     0.069566274400    30.973761998420
         O            1.109178114028    -0.431018197102     0.768413174400    15.994914619570
         O           -1.007666585972    -0.587853397102    -0.687659725600    15.994914619570
         O            0.748385414028     1.116058602898    -1.193925725600    15.994914619570
         O           -0.707260585972     1.415795602898     0.982899274400    15.994914619570
         C            1.872011414028    -1.335800397102    -0.060830725600    12.000000000000
         C           -1.961952585972    -1.289546397102     0.149196274400    12.000000000000
         H            1.234150514028    -2.014676597102    -0.634339325600     1.007825032230
         H            2.486712414028    -1.905778397102     0.634306274400     1.007825032230
         H            2.499852414028    -0.759697397102    -0.744851725600     1.007825032230
         H           -2.646008585972    -0.578728397102     0.616463274400     1.007825032230
         H           -1.442524585972    -1.863417397102     0.921938274400     1.007825032230
         H           -2.500372585972    -1.961455397102    -0.514472725600     1.007825032230
         H            0.361684414028     1.985910602898    -1.401669725600     1.007825032230

  Basis Set: AUG-CC-PVTZ
    Blend: AUG-CC-PVTZ
  Basis Set: (AUG-CC-PVTZ AUX)
    Blend: AUG-CC-PVTZ-JKFIT
	 Reference Energy          =    -720.2802741293311328 [Eh]
	 Singles Energy            =      -0.0000000000000000 [Eh]
	 Same-Spin Energy          =      -0.4044346754486516 [Eh]
	 Opposite-Spin Energy      =      -1.2304612624794760 [Eh]
	 Correlation Energy        =      -1.6348959379281276 [Eh]
	 Total Energy              =    -721.9151700672592824 [Eh]

	 ================> DF-SCS-MP2 Energies <==================
	-----------------------------------------------------------
	 SCS Same-Spin Scale       =       0.3333333333333333 [-]
	 SCS Opposite-Spin Scale   =       1.2000000000000000 [-]
	 SCS Same-Spin Energy      =      -0.1348115584828839 [Eh]
	 SCS Opposite-Spin Energy  =      -1.4765535149753710 [Eh]
	 SCS Correlation Energy    =      -1.6113650734582550 [Eh]
	 SCS Total Energy          =    -721.8916392027894062 [Eh]
	-----------------------------------------------------------

  Dipole Moment: [D]
     X:     0.3818      Y:    -2.5634      Z:    -1.9748     Total:     3.2584

*** Psi4 exiting successfully. Buy a developer a beer!
