                               Psi4 1.3.2 release

  ==> Input File <==

--------------------------------------------------------------------------
#psi4
#
memory 32 gb

molecule  {
0 1
  P       -0.0357750     0.4680410     0.0705770
  O        1.0907140    -0.4402950     0.7609680
  O       -0.9994835    -0.5976293    -0.6897096
  O        0.7512110     1.1173330    -1.1929150
  O       -0.7044350     1.4170700     0.9839100
  C        1.8748370    -1.3345260    -0.0598200
  C       -1.9591270    -1.2882720     0.1502070
  H        1.2215740    -2.0052580    -0.6255210
  H        2.4895380    -1.9045040     0.6353170
  H        2.5026780    -0.7584230    -0.7438410
  H       -2.6476439    -0.5846646     0.6218154
  H       -1.4396990    -1.8621430     0.9229490
  H       -2.4975470    -1.9601810    -0.5134620
  H        0.3645100     1.9871850    -1.4006590
units angstrom
no_reorient  #important for SAPT in psi4, default
symmetry c1  #important for SAPT in psi4, default
}

set PROPERTIES_ORIGIN ["COM"]
properties('MP2/aug-cc-pvtz', properties = ['dipole'])
--------------------------------------------------------------------------

    Molecular point group: c1
  Charge       = 0
  Multiplicity = 1
  Basis Set: AUG-CC-PVTZ
    Blend: AUG-CC-PVTZ
  Basis Set: (AUG-CC-PVTZ AUX)
    Blend: AUG-CC-PVTZ-JKFIT

    Orbital Energies [Eh]
    ---------------------

    Doubly Occupied:

       1A    -80.110278     2A    -20.608778     3A    -20.598507
       4A    -20.596688     5A    -20.516494     6A    -11.300641
       7A    -11.297990     8A     -7.625709     9A     -5.524198
      10A     -5.523730    11A     -5.522714    12A     -1.449565
      13A     -1.382766    14A     -1.379421    15A     -1.297237
      16A     -0.971932    17A     -0.956598    18A     -0.818051
      19A     -0.731571    20A     -0.708418    21A     -0.678119
      22A     -0.655810    23A     -0.642301    24A     -0.632604
      25A     -0.627721    26A     -0.572566    27A     -0.561033
      28A     -0.542629    29A     -0.518666    30A     -0.499755
      31A     -0.489146    32A     -0.471680    33A     -0.465818

  @DF-RHF Final Energy:  -720.28093696146584

   => Energetics <=

    Nuclear Repulsion Energy =            450.9309328376409667
    One-Electron Energy =               -1889.8654703358922688
    Two-Electron Energy =                 718.6536005367854614
    Total Energy =                       -720.2809369614658408
  Basis Set: (AUG-CC-PVTZ AUX)
    Blend: AUG-CC-PVTZ-RI
    Molecular point group: c1

    Geometry (in Angstrom), charge = 0, multiplicity = 1:

       Center              X                  Y                   Z               Mass
    ------------   -----------------  -----------------  -----------------  -----------------
         P           -0.036419357951     0.469501133305     0.070930958395    30.973761998420
         O            1.090069642049    -0.438834866695     0.761321958395    15.994914619570
         O           -1.000127857951    -0.596169166695    -0.689355641605    15.994914619570
         O            0.750566642049     1.118793133305    -1.192561041605    15.994914619570
         O           -0.705079357951     1.418530133305     0.984263958395    15.994914619570
         C            1.874192642049    -1.333065866695    -0.059466041605    12.000000000000
         C           -1.959771357951    -1.286811866695     0.150560958395    12.000000000000
         H            1.220929642049    -2.003797866695    -0.625167041605     1.007825032230
         H            2.488893642049    -1.903043866695     0.635670958395     1.007825032230
         H            2.502033642049    -0.756962866695    -0.743487041605     1.007825032230
         H           -2.648288257951    -0.583204466695     0.622169358395     1.007825032230
         H           -1.440343357951    -1.860682866695     0.923302958395     1.007825032230
         H           -2.498191357951    -1.958720866695    -0.513108041605     1.007825032230
         H            0.363865642049     1.988645133305    -1.400305041605     1.007825032230

  Basis Set: AUG-CC-PVTZ
    Blend: AUG-CC-PVTZ
  Basis Set: (AUG-CC-PVTZ AUX)
    Blend: AUG-CC-PVTZ-JKFIT
	 Reference Energy          =    -720.2809369614658408 [Eh]
	 Singles Energy            =      -0.0000000000000000 [Eh]
	 Same-Spin Energy          =      -0.4043661660368870 [Eh]
	 Opposite-Spin Energy      =      -1.2302092845214376 [Eh]
	 Correlation Energy        =      -1.6345754505583245 [Eh]
	 Total Energy              =    -721.9155124120242135 [Eh]

	 ================> DF-SCS-MP2 Energies <==================
	-----------------------------------------------------------
	 SCS Same-Spin Scale       =       0.3333333333333333 [-]
	 SCS Opposite-Spin Scale   =       1.2000000000000000 [-]
	 SCS Same-Spin Energy      =      -0.1347887220122956 [Eh]
	 SCS Opposite-Spin Energy  =      -1.4762511414257251 [Eh]
	 SCS Correlation Energy    =      -1.6110398634380207 [Eh]
	 SCS Total Energy          =    -721.8919768249038498 [Eh]
	-----------------------------------------------------------

  Dipole Moment: [D]
     X:     0.4792      Y:    -2.5173      Z:    -1.9375     Total:     3.2125

*** Psi4 exiting successfully. Buy a developer a beer!
