                               Psi4 1.3.2 release

  ==> Input File <==

--------------------------------------------------------------------------
#psi4
#
memory 32 gb

molecule  {
0 1
  P       -0.0483675     0.4616450     0.0950725
  O        1.0907140    -0.4402950     0.7609680
  O       -1.0048410    -0.5865790    -0.6866490
  O        0.7512110     1.1173330    -1.1929150
  O       -0.7044350     1.4170700     0.9839100
  C        1.8748370    -1.3345260    -0.0598200
  C       -1.9502663    -1.2758093     0.1703781
  H        1.2215740    -2.0052580    -0.6255210
  H        2.4895380    -1.9045040     0.6353170
  H        2.5026780    -0.7584230    -0.7438410
  H       -2.6431830    -0.5774540     0.6174740
  H       -1.4396990    -1.8621430     0.9229490
  H       -2.4975470    -1.9601810    -0.5134620
  H        0.3645100     1.9871850    -1.4006590
units angstrom
no_reorient  #important for SAPT in psi4, default
symmetry c1  #important for SAPT in psi4, default
}

set PROPERTIES_ORIGIN ["COM"]
properties('MP2/aug-cc-pvtz', properties = ['dipole'])
--------------------------------------------------------------------------

    Molecular point group: c1
  Charge       = 0
  Multiplicity = 1
  Basis Set: AUG-CC-PVTZ
    Blend: AUG-CC-PVTZ
  Basis Set: (AUG-CC-PVTZ AUX)
    Blend: AUG-CC-PVTZ-JKFIT

    Orbital Energies [Eh]
    ---------------------

    Doubly Occupied:

       1A    -80.108654     2A    -20.600585     3A    -20.599672
       4A    -20.598684     5A    -20.519141     6A    -11.301547
       7A    -11.299333     8A     -7.624615     9A     -5.522989
      10A     -5.522585    11A     -5.521736    12A     -1.448108
      13A     -1.383045    14A     -1.372709    15A     -1.306548
      16A     -0.973011    17A     -0.957877    18A     -0.812723
      19A     -0.729093    20A     -0.709076    21A     -0.679087
      22A     -0.652581    23A     -0.641004    24A     -0.634201
      25A     -0.626885    26A     -0.573700    27A     -0.552735
      28A     -0.543671    29A     -0.518750    30A     -0.502733
      31A     -0.491941    32A     -0.476725    33A     -0.471182

  @DF-RHF Final Energy:  -720.27943128791026

   => Energetics <=

    Nuclear Repulsion Energy =            451.3232789894183838
    One-Electron Energy =               -1890.6515681415394283
    Two-Electron Energy =                 719.0488578642107313
    Total Energy =                       -720.2794312879102563
  Basis Set: (AUG-CC-PVTZ AUX)
    Blend: AUG-CC-PVTZ-RI
    Molecular point group: c1

    Geometry (in Angstrom), charge = 0, multiplicity = 1:

       Center              X                  Y                   Z               Mass
    ------------   -----------------  -----------------  -----------------  -----------------
         P           -0.046115969756     0.462030125083     0.087130572200    30.973761998420
         O            1.092965530244    -0.439909874917     0.753026072200    15.994914619570
         O           -1.002589469756    -0.586193874917    -0.694590927800    15.994914619570
         O            0.753462530244     1.117718125083    -1.200856927800    15.994914619570
         O           -0.702183469756     1.417455125083     0.975968072200    15.994914619570
         C            1.877088530244    -1.334140874917    -0.067761927800    12.000000000000
         C           -1.948014769756    -1.275424174917     0.162436172200    12.000000000000
         H            1.223825530244    -2.004872874917    -0.633462927800     1.007825032230
         H            2.491789530244    -1.904118874917     0.627375072200     1.007825032230
         H            2.504929530244    -0.758037874917    -0.751782927800     1.007825032230
         H           -2.640931469756    -0.577068874917     0.609532072200     1.007825032230
         H           -1.437447469756    -1.861757874917     0.915007072200     1.007825032230
         H           -2.495295469756    -1.959795874917    -0.521403927800     1.007825032230
         H            0.366761530244     1.987570125083    -1.408600927800     1.007825032230

  Basis Set: AUG-CC-PVTZ
    Blend: AUG-CC-PVTZ
  Basis Set: (AUG-CC-PVTZ AUX)
    Blend: AUG-CC-PVTZ-JKFIT
	 Reference Energy          =    -720.2794312879102563 [Eh]
	 Singles Energy            =      -0.0000000000000000 [Eh]
	 Same-Spin Energy          =      -0.4042330679071939 [Eh]
	 Opposite-Spin Energy      =      -1.2300885970927964 [Eh]
	 Correlation Energy        =      -1.6343216649999903 [Eh]
	 Total Energy              =    -721.9137529529102721 [Eh]

	 ================> DF-SCS-MP2 Energies <==================
	-----------------------------------------------------------
	 SCS Same-Spin Scale       =       0.3333333333333333 [-]
	 SCS Opposite-Spin Scale   =       1.2000000000000000 [-]
	 SCS Same-Spin Energy      =      -0.1347443559690646 [Eh]
	 SCS Opposite-Spin Energy  =      -1.4761063165113557 [Eh]
	 SCS Correlation Energy    =      -1.6108506724804204 [Eh]
	 SCS Total Energy          =    -721.8902819603906664 [Eh]
	-----------------------------------------------------------

  Dipole Moment: [D]
     X:     0.3717      Y:    -2.6311      Z:    -1.6964     Total:     3.1526

*** Psi4 exiting successfully. Buy a developer a beer!
