                               Psi4 1.3.2 release

  ==> Input File <==

--------------------------------------------------------------------------
#psi4
#
memory 32 gb

molecule  {
0 1
  P       -0.0222548     0.4455234     0.0211588
  O        1.0907140    -0.4402950     0.7609680
  O       -1.0048410    -0.5865790    -0.6866490
  O        0.7512110     1.1173330    -1.1929150
  O       -0.7044350     1.4170700     0.9839100
  C        1.8490530    -1.3186766    -0.1001700
  C       -1.9591270    -1.2882720     0.1502070
  H        1.2215740    -2.0052580    -0.6255210
  H        2.4895380    -1.9045040     0.6353170
  H        2.5026780    -0.7584230    -0.7438410
  H       -2.6431830    -0.5774540     0.6174740
  H       -1.4396990    -1.8621430     0.9229490
  H       -2.4975470    -1.9601810    -0.5134620
  H        0.3645100     1.9871850    -1.4006590
units angstrom
no_reorient  #important for SAPT in psi4, default
symmetry c1  #important for SAPT in psi4, default
}

set PROPERTIES_ORIGIN ["COM"]
properties('MP2/aug-cc-pvtz', properties = ['dipole'])
--------------------------------------------------------------------------

    Molecular point group: c1
  Charge       = 0
  Multiplicity = 1
  Basis Set: AUG-CC-PVTZ
    Blend: AUG-CC-PVTZ
  Basis Set: (AUG-CC-PVTZ AUX)
    Blend: AUG-CC-PVTZ-JKFIT

    Orbital Energies [Eh]
    ---------------------

    Doubly Occupied:

       1A    -80.110398     2A    -20.616490     3A    -20.601680
       4A    -20.601469     5A    -20.503654     6A    -11.302262
       7A    -11.301568     8A     -7.625645     9A     -5.524253
      10A     -5.523796    11A     -5.522321    12A     -1.460367
      13A     -1.395948    14A     -1.388095    15A     -1.264879
      16A     -0.975788    17A     -0.960331    18A     -0.829217
      19A     -0.741623    20A     -0.714653    21A     -0.682514
      22A     -0.663925    23A     -0.646713    24A     -0.639527
      25A     -0.628063    26A     -0.572678    27A     -0.563943
      28A     -0.536461    29A     -0.516567    30A     -0.504100
      31A     -0.494909    32A     -0.450532    33A     -0.447453

  @DF-RHF Final Energy:  -720.27388895599518

   => Energetics <=

    Nuclear Repulsion Energy =            452.0565212441172775
    One-Electron Energy =               -1892.0371780546220180
    Two-Electron Energy =                 719.7067678545096214
    Total Energy =                       -720.2738889559951758
  Basis Set: (AUG-CC-PVTZ AUX)
    Blend: AUG-CC-PVTZ-RI
    Molecular point group: c1

    Geometry (in Angstrom), charge = 0, multiplicity = 1:

       Center              X                  Y                   Z               Mass
    ------------   -----------------  -----------------  -----------------  -----------------
         P           -0.023122687130     0.449548813707     0.037148954835    30.973761998420
         O            1.089846112870    -0.436269586293     0.776958154835    15.994914619570
         O           -1.005708887130    -0.582553586293    -0.670658845165    15.994914619570
         O            0.750343112870     1.121358413707    -1.176924845165    15.994914619570
         O           -0.705302887130     1.421095413707     0.999900154835    15.994914619570
         C            1.848185112870    -1.314651186293    -0.084179845165    12.000000000000
         C           -1.959994887130    -1.284246586293     0.166197154835    12.000000000000
         H            1.220706112870    -2.001232586293    -0.609530845165     1.007825032230
         H            2.488670112870    -1.900478586293     0.651307154835     1.007825032230
         H            2.501810112870    -0.754397586293    -0.727850845165     1.007825032230
         H           -2.644050887130    -0.573428586293     0.633464154835     1.007825032230
         H           -1.440566887130    -1.858117586293     0.938939154835     1.007825032230
         H           -2.498414887130    -1.956155586293    -0.497471845165     1.007825032230
         H            0.363642112870     1.991210413707    -1.384668845165     1.007825032230

  Basis Set: AUG-CC-PVTZ
    Blend: AUG-CC-PVTZ
  Basis Set: (AUG-CC-PVTZ AUX)
    Blend: AUG-CC-PVTZ-JKFIT
	 Reference Energy          =    -720.2738889559951758 [Eh]
	 Singles Energy            =      -0.0000000000000000 [Eh]
	 Same-Spin Energy          =      -0.4048747221118427 [Eh]
	 Opposite-Spin Energy      =      -1.2306555862934361 [Eh]
	 Correlation Energy        =      -1.6355303084052788 [Eh]
	 Total Energy              =    -721.9094192644004124 [Eh]

	 ================> DF-SCS-MP2 Energies <==================
	-----------------------------------------------------------
	 SCS Same-Spin Scale       =       0.3333333333333333 [-]
	 SCS Opposite-Spin Scale   =       1.2000000000000000 [-]
	 SCS Same-Spin Energy      =      -0.1349582407039476 [Eh]
	 SCS Opposite-Spin Energy  =      -1.4767867035521232 [Eh]
	 SCS Correlation Energy    =      -1.6117449442560707 [Eh]
	 SCS Total Energy          =    -721.8856339002512641 [Eh]
	-----------------------------------------------------------

  Dipole Moment: [D]
     X:     0.5392      Y:    -2.7917      Z:    -2.4401     Total:     3.7468

*** Psi4 exiting successfully. Buy a developer a beer!
