                               Psi4 1.3.2 release

  ==> Input File <==

--------------------------------------------------------------------------
#psi4
#
memory 32 gb

molecule  {
0 1
  P       -0.0357750     0.4680410     0.0705770
  O        1.1609730    -0.4969478     0.8040276
  O       -1.0048410    -0.5865790    -0.6866490
  O        0.7512110     1.1173330    -1.1929150
  O       -0.7044350     1.4170700     0.9839100
  C        1.8748370    -1.3345260    -0.0598200
  C       -1.9591270    -1.2882720     0.1502070
  H        1.2215740    -2.0052580    -0.6255210
  H        2.4895380    -1.9045040     0.6353170
  H        2.5026780    -0.7584230    -0.7438410
  H       -2.6431830    -0.5774540     0.6174740
  H       -1.4396990    -1.8621430     0.9229490
  H       -2.4975470    -1.9601810    -0.5134620
  H        0.3645100     1.9871850    -1.4006590
units angstrom
no_reorient  #important for SAPT in psi4, default
symmetry c1  #important for SAPT in psi4, default
}

set PROPERTIES_ORIGIN ["COM"]
properties('MP2/aug-cc-pvtz', properties = ['dipole'])
--------------------------------------------------------------------------

    Molecular point group: c1
  Charge       = 0
  Multiplicity = 1
  Basis Set: AUG-CC-PVTZ
    Blend: AUG-CC-PVTZ
  Basis Set: (AUG-CC-PVTZ AUX)
    Blend: AUG-CC-PVTZ-JKFIT

    Orbital Energies [Eh]
    ---------------------

    Doubly Occupied:

       1A    -80.122131     2A    -20.615805     3A    -20.604698
       4A    -20.596736     5A    -20.524622     6A    -11.302102
       7A    -11.286695     8A     -7.636228     9A     -5.534602
      10A     -5.534092    11A     -5.533218    12A     -1.447088
      13A     -1.387346    14A     -1.379752    15A     -1.304511
      16A     -0.970766    17A     -0.945377    18A     -0.822597
      19A     -0.732746    20A     -0.707583    21A     -0.676015
      22A     -0.660607    23A     -0.643791    24A     -0.633972
      25A     -0.627993    26A     -0.578848    27A     -0.565811
      28A     -0.538740    29A     -0.520196    30A     -0.492125
      31A     -0.481814    32A     -0.475810    33A     -0.470896

  @DF-RHF Final Energy:  -720.26866871813263

   => Energetics <=

    Nuclear Repulsion Energy =            448.0384747612247338
    One-Electron Energy =               -1883.9036629258441735
    Two-Electron Energy =                 715.5965194464868091
    Total Energy =                       -720.2686687181326306
  Basis Set: (AUG-CC-PVTZ AUX)
    Blend: AUG-CC-PVTZ-RI
    Molecular point group: c1

    Geometry (in Angstrom), charge = 0, multiplicity = 1:

       Center              X                  Y                   Z               Mass
    ------------   -----------------  -----------------  -----------------  -----------------
         P           -0.044693341655     0.475232038876     0.065111390187    30.973761998420
         O            1.152054658345    -0.489756761124     0.798561990187    15.994914619570
         O           -1.013759341655    -0.579387961124    -0.692114609813    15.994914619570
         O            0.742292658345     1.124524038876    -1.198380609813    15.994914619570
         O           -0.713353341655     1.424261038876     0.978444390187    15.994914619570
         C            1.865918658345    -1.327334961124    -0.065285609813    12.000000000000
         C           -1.968045341655    -1.281080961124     0.144741390187    12.000000000000
         H            1.212655658345    -1.998066961124    -0.630986609813     1.007825032230
         H            2.480619658345    -1.897312961124     0.629851390187     1.007825032230
         H            2.493759658345    -0.751231961124    -0.749306609813     1.007825032230
         H           -2.652101341655    -0.570262961124     0.612008390187     1.007825032230
         H           -1.448617341655    -1.854951961124     0.917483390187     1.007825032230
         H           -2.506465341655    -1.952989961124    -0.518927609813     1.007825032230
         H            0.355591658345     1.994376038876    -1.406124609813     1.007825032230

  Basis Set: AUG-CC-PVTZ
    Blend: AUG-CC-PVTZ
  Basis Set: (AUG-CC-PVTZ AUX)
    Blend: AUG-CC-PVTZ-JKFIT
	 Reference Energy          =    -720.2686687181326306 [Eh]
	 Singles Energy            =      -0.0000000000000000 [Eh]
	 Same-Spin Energy          =      -0.4054316902133368 [Eh]
	 Opposite-Spin Energy      =      -1.2328952505638613 [Eh]
	 Correlation Energy        =      -1.6383269407771981 [Eh]
	 Total Energy              =    -721.9069956589098638 [Eh]

	 ================> DF-SCS-MP2 Energies <==================
	-----------------------------------------------------------
	 SCS Same-Spin Scale       =       0.3333333333333333 [-]
	 SCS Opposite-Spin Scale   =       1.2000000000000000 [-]
	 SCS Same-Spin Energy      =      -0.1351438967377789 [Eh]
	 SCS Opposite-Spin Energy  =      -1.4794743006766335 [Eh]
	 SCS Correlation Energy    =      -1.6146181974144125 [Eh]
	 SCS Total Energy          =    -721.8832869155470462 [Eh]
	-----------------------------------------------------------

  Dipole Moment: [D]
     X:    -0.0735      Y:    -2.1488      Z:    -2.0406     Total:     2.9642

*** Psi4 exiting successfully. Buy a developer a beer!
