                               Psi4 1.3.2 release

  ==> Input File <==

--------------------------------------------------------------------------
#psi4
#
memory 32 gb

molecule  {
0 1
  P       -0.0357750     0.4680410     0.0705770
  O        1.0533135    -0.4554961     0.7997252
  O       -1.0048410    -0.5865790    -0.6866490
  O        0.7036764     1.1447248    -1.2071748
  O       -0.7044350     1.4170700     0.9839100
  C        1.8748370    -1.3345260    -0.0598200
  C       -1.9591270    -1.2882720     0.1502070
  H        1.2215740    -2.0052580    -0.6255210
  H        2.4895380    -1.9045040     0.6353170
  H        2.5026780    -0.7584230    -0.7438410
  H       -2.6431830    -0.5774540     0.6174740
  H       -1.4396990    -1.8621430     0.9229490
  H       -2.4975470    -1.9601810    -0.5134620
  H        0.3645100     1.9871850    -1.4006590
units angstrom
no_reorient  #important for SAPT in psi4, default
symmetry c1  #important for SAPT in psi4, default
}

set PROPERTIES_ORIGIN ["COM"]
properties('MP2/aug-cc-pvtz', properties = ['dipole'])
--------------------------------------------------------------------------

    Molecular point group: c1
  Charge       = 0
  Multiplicity = 1
  Basis Set: AUG-CC-PVTZ
    Blend: AUG-CC-PVTZ
  Basis Set: (AUG-CC-PVTZ AUX)
    Blend: AUG-CC-PVTZ-JKFIT

    Orbital Energies [Eh]
    ---------------------

    Doubly Occupied:

       1A    -80.108937     2A    -20.604616     3A    -20.603481
       4A    -20.594084     5A    -20.510390     6A    -11.306962
       7A    -11.296823     8A     -7.624401     9A     -5.522766
      10A     -5.522445    11A     -5.521477    12A     -1.450150
      13A     -1.389149    14A     -1.376400    15A     -1.292412
      16A     -0.972165    17A     -0.957927    18A     -0.827328
      19A     -0.734944    20A     -0.707981    21A     -0.677490
      22A     -0.653569    23A     -0.642125    24A     -0.630703
      25A     -0.627532    26A     -0.568208    27A     -0.563243
      28A     -0.545309    29A     -0.522674    30A     -0.502785
      31A     -0.490442    32A     -0.466591    33A     -0.461077

  @DF-RHF Final Energy:  -720.27969041463211

   => Energetics <=

    Nuclear Repulsion Energy =            450.7019787463113971
    One-Electron Energy =               -1889.4101659140701486
    Two-Electron Energy =                 718.4284967531266375
    Total Energy =                       -720.2796904146321140
  Basis Set: (AUG-CC-PVTZ AUX)
    Blend: AUG-CC-PVTZ-RI
    Molecular point group: c1

    Geometry (in Angstrom), charge = 0, multiplicity = 1:

       Center              X                  Y                   Z               Mass
    ------------   -----------------  -----------------  -----------------  -----------------
         P           -0.024993699381     0.466493354075     0.067467592515    30.973761998420
         O            1.064094800619    -0.457043745925     0.796615792515    15.994914619570
         O           -0.994059699381    -0.588126645925    -0.689758407485    15.994914619570
         O            0.714457700619     1.143177154075    -1.210284207485    15.994914619570
         O           -0.693653699381     1.415522354075     0.980800592515    15.994914619570
         C            1.885618300619    -1.336073645925    -0.062929407485    12.000000000000
         C           -1.948345699381    -1.289819645925     0.147097592515    12.000000000000
         H            1.232355300619    -2.006805645925    -0.628630407485     1.007825032230
         H            2.500319300619    -1.906051645925     0.632207592515     1.007825032230
         H            2.513459300619    -0.759970645925    -0.746950407485     1.007825032230
         H           -2.632401699381    -0.579001645925     0.614364592515     1.007825032230
         H           -1.428917699381    -1.863690645925     0.919839592515     1.007825032230
         H           -2.486765699381    -1.961728645925    -0.516571407485     1.007825032230
         H            0.375291300619     1.985637354075    -1.403768407485     1.007825032230

  Basis Set: AUG-CC-PVTZ
    Blend: AUG-CC-PVTZ
  Basis Set: (AUG-CC-PVTZ AUX)
    Blend: AUG-CC-PVTZ-JKFIT
	 Reference Energy          =    -720.2796904146321140 [Eh]
	 Singles Energy            =      -0.0000000000000000 [Eh]
	 Same-Spin Energy          =      -0.4037391987834955 [Eh]
	 Opposite-Spin Energy      =      -1.2292219609971107 [Eh]
	 Correlation Energy        =      -1.6329611597806062 [Eh]
	 Total Energy              =    -721.9126515744127346 [Eh]

	 ================> DF-SCS-MP2 Energies <==================
	-----------------------------------------------------------
	 SCS Same-Spin Scale       =       0.3333333333333333 [-]
	 SCS Opposite-Spin Scale   =       1.2000000000000000 [-]
	 SCS Same-Spin Energy      =      -0.1345797329278318 [Eh]
	 SCS Opposite-Spin Energy  =      -1.4750663531965327 [Eh]
	 SCS Correlation Energy    =      -1.6096460861243644 [Eh]
	 SCS Total Energy          =    -721.8893365007564853 [Eh]
	-----------------------------------------------------------

  Dipole Moment: [D]
     X:     0.7645      Y:    -2.6856      Z:    -2.0074     Total:     3.4390

*** Psi4 exiting successfully. Buy a developer a beer!
