                               Psi4 1.3.2 release

  ==> Input File <==

--------------------------------------------------------------------------
#psi4
#
memory 32 gb

molecule  {
0 1
  P       -0.0357750     0.4680410     0.0705770
  O        1.0856027    -0.4276365     0.7853953
  O       -1.0048410    -0.5865790    -0.6866490
  O        0.7512110     1.1173330    -1.1929150
  O       -0.6897527     1.4084388     1.0032638
  C        1.8748370    -1.3345260    -0.0598200
  C       -1.9591270    -1.2882720     0.1502070
  H        1.2215740    -2.0052580    -0.6255210
  H        2.4895380    -1.9045040     0.6353170
  H        2.5026780    -0.7584230    -0.7438410
  H       -2.6431830    -0.5774540     0.6174740
  H       -1.4396990    -1.8621430     0.9229490
  H       -2.4975470    -1.9601810    -0.5134620
  H        0.3645100     1.9871850    -1.4006590
units angstrom
no_reorient  #important for SAPT in psi4, default
symmetry c1  #important for SAPT in psi4, default
}

set PROPERTIES_ORIGIN ["COM"]
properties('MP2/aug-cc-pvtz', properties = ['dipole'])
--------------------------------------------------------------------------

    Molecular point group: c1
  Charge       = 0
  Multiplicity = 1
  Basis Set: AUG-CC-PVTZ
    Blend: AUG-CC-PVTZ
  Basis Set: (AUG-CC-PVTZ AUX)
    Blend: AUG-CC-PVTZ-JKFIT

    Orbital Energies [Eh]
    ---------------------

    Doubly Occupied:

       1A    -80.108143     2A    -20.609283     3A    -20.598408
       4A    -20.597499     5A    -20.512808     6A    -11.303076
       7A    -11.298651     8A     -7.623772     9A     -5.522206
      10A     -5.521769    11A     -5.520813    12A     -1.448044
      13A     -1.381836    14A     -1.377290    15A     -1.294018
      16A     -0.970966    17A     -0.957513    18A     -0.817630
      19A     -0.731228    20A     -0.706427    21A     -0.676449
      22A     -0.655532    23A     -0.640666    24A     -0.631086
      25A     -0.626316    26A     -0.570560    27A     -0.561395
      28A     -0.544070    29A     -0.520094    30A     -0.501208
      31A     -0.491091    32A     -0.468512    33A     -0.463306

  @DF-RHF Final Energy:  -720.28011100901472

   => Energetics <=

    Nuclear Repulsion Energy =            450.7151922079906399
    One-Electron Energy =               -1889.4872775148044184
    Two-Electron Energy =                 718.4919742977990609
    Total Energy =                       -720.2801110090147176
  Basis Set: (AUG-CC-PVTZ AUX)
    Blend: AUG-CC-PVTZ-RI
    Molecular point group: c1

    Geometry (in Angstrom), charge = 0, multiplicity = 1:

       Center              X                  Y                   Z               Mass
    ------------   -----------------  -----------------  -----------------  -----------------
         P           -0.036989879408     0.467529579419     0.065019806216    30.973761998420
         O            1.084387820592    -0.428147920581     0.779838106216    15.994914619570
         O           -1.006055879408    -0.587090420581    -0.692206193784    15.994914619570
         O            0.749996120592     1.116821579419    -1.198472193784    15.994914619570
         O           -0.690967579408     1.407927379419     0.997706606216    15.994914619570
         C            1.873622120592    -1.335037420581    -0.065377193784    12.000000000000
         C           -1.960341879408    -1.288783420581     0.144649806216    12.000000000000
         H            1.220359120592    -2.005769420581    -0.631078193784     1.007825032230
         H            2.488323120592    -1.905015420581     0.629759806216     1.007825032230
         H            2.501463120592    -0.758934420581    -0.749398193784     1.007825032230
         H           -2.644397879408    -0.577965420581     0.611916806216     1.007825032230
         H           -1.440913879408    -1.862654420581     0.917391806216     1.007825032230
         H           -2.498761879408    -1.960692420581    -0.519019193784     1.007825032230
         H            0.363295120592     1.986673579419    -1.406216193784     1.007825032230

  Basis Set: AUG-CC-PVTZ
    Blend: AUG-CC-PVTZ
  Basis Set: (AUG-CC-PVTZ AUX)
    Blend: AUG-CC-PVTZ-JKFIT
	 Reference Energy          =    -720.2801110090147176 [Eh]
	 Singles Energy            =      -0.0000000000000000 [Eh]
	 Same-Spin Energy          =      -0.4043933549501376 [Eh]
	 Opposite-Spin Energy      =      -1.2305549946248822 [Eh]
	 Correlation Energy        =      -1.6349483495750197 [Eh]
	 Total Energy              =    -721.9150593585897013 [Eh]

	 ================> DF-SCS-MP2 Energies <==================
	-----------------------------------------------------------
	 SCS Same-Spin Scale       =       0.3333333333333333 [-]
	 SCS Opposite-Spin Scale   =       1.2000000000000000 [-]
	 SCS Same-Spin Energy      =      -0.1347977849833792 [Eh]
	 SCS Opposite-Spin Energy  =      -1.4766659935498585 [Eh]
	 SCS Correlation Energy    =      -1.6114637785332377 [Eh]
	 SCS Total Energy          =    -721.8915747875479383 [Eh]
	-----------------------------------------------------------

  Dipole Moment: [D]
     X:     0.4878      Y:    -2.6136      Z:    -2.0751     Total:     3.3727

*** Psi4 exiting successfully. Buy a developer a beer!
