                               Psi4 1.3.2 release

  ==> Input File <==

--------------------------------------------------------------------------
#psi4
#
memory 32 gb

molecule  {
0 1
  P       -0.0357750     0.4680410     0.0705770
  O        1.0907140    -0.4402950     0.7609680
  O       -1.0048410    -0.5865790    -0.6866490
  O        0.7474220     1.1302715    -1.1885466
  O       -0.7003275     1.4268828     0.9766298
  C        1.8748370    -1.3345260    -0.0598200
  C       -1.9591270    -1.2882720     0.1502070
  H        1.2215740    -2.0052580    -0.6255210
  H        2.4895380    -1.9045040     0.6353170
  H        2.5026780    -0.7584230    -0.7438410
  H       -2.6431830    -0.5774540     0.6174740
  H       -1.4396990    -1.8621430     0.9229490
  H       -2.4975470    -1.9601810    -0.5134620
  H        0.3645100     1.9871850    -1.4006590
units angstrom
no_reorient  #important for SAPT in psi4, default
symmetry c1  #important for SAPT in psi4, default
}

set PROPERTIES_ORIGIN ["COM"]
properties('MP2/aug-cc-pvtz', properties = ['dipole'])
--------------------------------------------------------------------------

    Molecular point group: c1
  Charge       = 0
  Multiplicity = 1
  Basis Set: AUG-CC-PVTZ
    Blend: AUG-CC-PVTZ
  Basis Set: (AUG-CC-PVTZ AUX)
    Blend: AUG-CC-PVTZ-JKFIT

    Orbital Energies [Eh]
    ---------------------

    Doubly Occupied:

       1A    -80.109790     2A    -20.606169     3A    -20.599535
       4A    -20.597219     5A    -20.514623     6A    -11.301391
       7A    -11.299047     8A     -7.625259     9A     -5.523740
      10A     -5.523293    11A     -5.522273    12A     -1.450476
      13A     -1.384140    14A     -1.381085    15A     -1.295836
      16A     -0.973042    17A     -0.957689    18A     -0.819943
      19A     -0.733434    20A     -0.709229    21A     -0.678358
      22A     -0.656064    23A     -0.643491    24A     -0.633113
      25A     -0.629130    26A     -0.571811    27A     -0.560636
      28A     -0.543142    29A     -0.519263    30A     -0.500629
      31A     -0.490243    32A     -0.470104    33A     -0.464586

  @DF-RHF Final Energy:  -720.28215594752328

   => Energetics <=

    Nuclear Repulsion Energy =            451.0584585567527256
    One-Electron Energy =               -1890.1056596025505314
    Two-Electron Energy =                 718.7650450982746406
    Total Energy =                       -720.2821559475232789
  Basis Set: (AUG-CC-PVTZ AUX)
    Blend: AUG-CC-PVTZ-RI
    Molecular point group: c1

    Geometry (in Angstrom), charge = 0, multiplicity = 1:

       Center              X                  Y                   Z               Mass
    ------------   -----------------  -----------------  -----------------  -----------------
         P           -0.035815408599     0.465152838925     0.070946793303    30.973761998420
         O            1.090673591401    -0.443183161075     0.761337793303    15.994914619570
         O           -1.004881408599    -0.589467161075    -0.686279206697    15.994914619570
         O            0.747381591401     1.127383338925    -1.188176806697    15.994914619570
         O           -0.700367908599     1.423994638925     0.976999593303    15.994914619570
         C            1.874796591401    -1.337414161075    -0.059450206697    12.000000000000
         C           -1.959167408599    -1.291160161075     0.150576793303    12.000000000000
         H            1.221533591401    -2.008146161075    -0.625151206697     1.007825032230
         H            2.489497591401    -1.907392161075     0.635686793303     1.007825032230
         H            2.502637591401    -0.761311161075    -0.743471206697     1.007825032230
         H           -2.643223408599    -0.580342161075     0.617843793303     1.007825032230
         H           -1.439739408599    -1.865031161075     0.923318793303     1.007825032230
         H           -2.497587408599    -1.963069161075    -0.513092206697     1.007825032230
         H            0.364469591401     1.984296838925    -1.400289206697     1.007825032230

  Basis Set: AUG-CC-PVTZ
    Blend: AUG-CC-PVTZ
  Basis Set: (AUG-CC-PVTZ AUX)
    Blend: AUG-CC-PVTZ-JKFIT
	 Reference Energy          =    -720.2821559475232789 [Eh]
	 Singles Energy            =      -0.0000000000000000 [Eh]
	 Same-Spin Energy          =      -0.4040563625642891 [Eh]
	 Opposite-Spin Energy      =      -1.2294978602787876 [Eh]
	 Correlation Energy        =      -1.6335542228430766 [Eh]
	 Total Energy              =    -721.9157101703663102 [Eh]

	 ================> DF-SCS-MP2 Energies <==================
	-----------------------------------------------------------
	 SCS Same-Spin Scale       =       0.3333333333333333 [-]
	 SCS Opposite-Spin Scale   =       1.2000000000000000 [-]
	 SCS Same-Spin Energy      =      -0.1346854541880964 [Eh]
	 SCS Opposite-Spin Energy  =      -1.4753974323345451 [Eh]
	 SCS Correlation Energy    =      -1.6100828865226415 [Eh]
	 SCS Total Energy          =    -721.8922388340458838 [Eh]
	-----------------------------------------------------------

  Dipole Moment: [D]
     X:     0.4721      Y:    -2.6355      Z:    -1.9351     Total:     3.3035

*** Psi4 exiting successfully. Buy a developer a beer!
