                               Psi4 1.3.2 release

  ==> Input File <==

--------------------------------------------------------------------------
#psi4
#
memory 32 gb

molecule  {
0 1
  P       -0.0189272     0.4452984     0.0690659
  O        1.0907140    -0.4402950     0.7609680
  O       -1.0048410    -0.5865790    -0.6866490
  O        0.7512110     1.1173330    -1.1929150
  O       -0.7044350     1.4170700     0.9839100
  C        1.8748370    -1.3345260    -0.0598200
  C       -1.9591270    -1.2882720     0.1502070
  H        1.2215740    -2.0052580    -0.6255210
  H        2.4895380    -1.9045040     0.6353170
  H        2.5026780    -0.7584230    -0.7438410
  H       -2.6431830    -0.5774540     0.6174740
  H       -1.4396990    -1.8621430     0.9229490
  H       -2.4975470    -1.9601810    -0.5134620
  H        0.3756632     1.9889400    -1.4133753
units angstrom
no_reorient  #important for SAPT in psi4, default
symmetry c1  #important for SAPT in psi4, default
}

set PROPERTIES_ORIGIN ["COM"]
properties('MP2/aug-cc-pvtz', properties = ['dipole'])
--------------------------------------------------------------------------

    Molecular point group: c1
  Charge       = 0
  Multiplicity = 1
  Basis Set: AUG-CC-PVTZ
    Blend: AUG-CC-PVTZ
  Basis Set: (AUG-CC-PVTZ AUX)
    Blend: AUG-CC-PVTZ-JKFIT

    Orbital Energies [Eh]
    ---------------------

    Doubly Occupied:

       1A    -80.109855     2A    -20.606067     3A    -20.604915
       4A    -20.596870     5A    -20.509325     6A    -11.305209
       7A    -11.298803     8A     -7.625038     9A     -5.523596
      10A     -5.523171    11A     -5.521885    12A     -1.454130
      13A     -1.388901    14A     -1.380476    15A     -1.281189
      16A     -0.976938    17A     -0.960074    18A     -0.820650
      19A     -0.734727    20A     -0.713282    21A     -0.680623
      22A     -0.655823    23A     -0.645418    24A     -0.634404
      25A     -0.630849    26A     -0.566147    27A     -0.559786
      28A     -0.544709    29A     -0.519413    30A     -0.503545
      31A     -0.493093    32A     -0.460644    33A     -0.456343

  @DF-RHF Final Energy:  -720.28035513035366

   => Energetics <=

    Nuclear Repulsion Energy =            451.3967036974977418
    One-Electron Energy =               -1890.7823223189509463
    Two-Electron Energy =                 719.1052634910995494
    Total Energy =                       -720.2803551303536551
  Basis Set: (AUG-CC-PVTZ AUX)
    Blend: AUG-CC-PVTZ-RI
    Molecular point group: c1

    Geometry (in Angstrom), charge = 0, multiplicity = 1:

       Center              X                  Y                   Z               Mass
    ------------   -----------------  -----------------  -----------------  -----------------
         P           -0.023157699873     0.450874452239     0.069539228353    30.973761998420
         O            1.086483500127    -0.434718947761     0.761441328353    15.994914619570
         O           -1.009071499873    -0.581002947761    -0.686175671647    15.994914619570
         O            0.746980500127     1.122909052239    -1.192441671647    15.994914619570
         O           -0.708665499873     1.422646052239     0.984383328353    15.994914619570
         C            1.870606500127    -1.328949947761    -0.059346671647    12.000000000000
         C           -1.963357499873    -1.282695947761     0.150680328353    12.000000000000
         H            1.217343500127    -1.999681947761    -0.625047671647     1.007825032230
         H            2.485307500127    -1.898927947761     0.635790328353     1.007825032230
         H            2.498447500127    -0.752846947761    -0.743367671647     1.007825032230
         H           -2.647413499873    -0.571877947761     0.617947328353     1.007825032230
         H           -1.443929499873    -1.856566947761     0.923422328353     1.007825032230
         H           -2.501777499873    -1.954604947761    -0.512988671647     1.007825032230
         H            0.371432700127     1.994516052239    -1.412901971647     1.007825032230

  Basis Set: AUG-CC-PVTZ
    Blend: AUG-CC-PVTZ
  Basis Set: (AUG-CC-PVTZ AUX)
    Blend: AUG-CC-PVTZ-JKFIT
	 Reference Energy          =    -720.2803551303536551 [Eh]
	 Singles Energy            =      -0.0000000000000000 [Eh]
	 Same-Spin Energy          =      -0.4044046098882162 [Eh]
	 Opposite-Spin Energy      =      -1.2300193962338701 [Eh]
	 Correlation Energy        =      -1.6344240061220865 [Eh]
	 Total Energy              =    -721.9147791364757722 [Eh]

	 ================> DF-SCS-MP2 Energies <==================
	-----------------------------------------------------------
	 SCS Same-Spin Scale       =       0.3333333333333333 [-]
	 SCS Opposite-Spin Scale   =       1.2000000000000000 [-]
	 SCS Same-Spin Energy      =      -0.1348015366294054 [Eh]
	 SCS Opposite-Spin Energy  =      -1.4760232754806442 [Eh]
	 SCS Correlation Energy    =      -1.6108248121100495 [Eh]
	 SCS Total Energy          =    -721.8911799424637366 [Eh]
	-----------------------------------------------------------

  Dipole Moment: [D]
     X:     0.6945      Y:    -2.8233      Z:    -2.0024     Total:     3.5303

*** Psi4 exiting successfully. Buy a developer a beer!
