                               Psi4 1.3.2 release

  ==> Input File <==

--------------------------------------------------------------------------
#psi4
#
memory 32 gb

molecule  {
0 1
  P       -0.0357750     0.4680410     0.0705770
  O        1.0657037    -0.4856692     0.7398101
  O       -0.9720271    -0.6286570    -0.6679276
  O        0.7512110     1.1173330    -1.1929150
  O       -0.7044350     1.4170700     0.9839100
  C        1.8748370    -1.3345260    -0.0598200
  C       -1.9591270    -1.2882720     0.1502070
  H        1.2215740    -2.0052580    -0.6255210
  H        2.4895380    -1.9045040     0.6353170
  H        2.5026780    -0.7584230    -0.7438410
  H       -2.6431830    -0.5774540     0.6174740
  H       -1.4396990    -1.8621430     0.9229490
  H       -2.4975470    -1.9601810    -0.5134620
  H        0.3645100     1.9871850    -1.4006590
units angstrom
no_reorient  #important for SAPT in psi4, default
symmetry c1  #important for SAPT in psi4, default
}

set PROPERTIES_ORIGIN ["COM"]
properties('MP2/aug-cc-pvtz', properties = ['dipole'])
--------------------------------------------------------------------------

    Molecular point group: c1
  Charge       = 0
  Multiplicity = 1
  Basis Set: AUG-CC-PVTZ
    Blend: AUG-CC-PVTZ
  Basis Set: (AUG-CC-PVTZ AUX)
    Blend: AUG-CC-PVTZ-JKFIT

    Orbital Energies [Eh]
    ---------------------

    Doubly Occupied:

       1A    -80.111976     2A    -20.611722     3A    -20.594682
       4A    -20.593494     5A    -20.520653     6A    -11.296436
       7A    -11.296221     8A     -7.627345     9A     -5.525867
      10A     -5.525453    11A     -5.524311    12A     -1.453207
      13A     -1.387081    14A     -1.380850    15A     -1.300935
      16A     -0.973454    17A     -0.954818    18A     -0.818365
      19A     -0.733407    20A     -0.710267    21A     -0.681845
      22A     -0.657464    23A     -0.645567    24A     -0.634043
      25A     -0.628113    26A     -0.574530    27A     -0.564213
      28A     -0.539189    29A     -0.517109    30A     -0.496564
      31A     -0.483645    32A     -0.475101    33A     -0.467996

  @DF-RHF Final Energy:  -720.28065364861516

   => Energetics <=

    Nuclear Repulsion Energy =            452.0286187036825822
    One-Electron Energy =               -1892.0066930428065461
    Two-Electron Energy =                 719.6974206905086930
    Total Energy =                       -720.2806536486151572
  Basis Set: (AUG-CC-PVTZ AUX)
    Blend: AUG-CC-PVTZ-RI
    Molecular point group: c1

    Geometry (in Angstrom), charge = 0, multiplicity = 1:

       Center              X                  Y                   Z               Mass
    ------------   -----------------  -----------------  -----------------  -----------------
         P           -0.036765533587     0.479141576431     0.070886460855    30.973761998420
         O            1.064713166413    -0.474568623569     0.740119560855    15.994914619570
         O           -0.973017633587    -0.617556423569    -0.667618139145    15.994914619570
         O            0.750220466413     1.128433576431    -1.192605539145    15.994914619570
         O           -0.705425533587     1.428170576431     0.984219460855    15.994914619570
         C            1.873846466413    -1.323425423569    -0.059510539145    12.000000000000
         C           -1.960117533587    -1.277171423569     0.150516460855    12.000000000000
         H            1.220583466413    -1.994157423569    -0.625211539145     1.007825032230
         H            2.488547466413    -1.893403423569     0.635626460855     1.007825032230
         H            2.501687466413    -0.747322423569    -0.743531539145     1.007825032230
         H           -2.644173533587    -0.566353423569     0.617783460855     1.007825032230
         H           -1.440689533587    -1.851042423569     0.923258460855     1.007825032230
         H           -2.498537533587    -1.949080423569    -0.513152539145     1.007825032230
         H            0.363519466413     1.998285576431    -1.400349539145     1.007825032230

  Basis Set: AUG-CC-PVTZ
    Blend: AUG-CC-PVTZ
  Basis Set: (AUG-CC-PVTZ AUX)
    Blend: AUG-CC-PVTZ-JKFIT
	 Reference Energy          =    -720.2806536486151572 [Eh]
	 Singles Energy            =      -0.0000000000000000 [Eh]
	 Same-Spin Energy          =      -0.4042729947232356 [Eh]
	 Opposite-Spin Energy      =      -1.2294049998343606 [Eh]
	 Correlation Energy        =      -1.6336779945575963 [Eh]
	 Total Energy              =    -721.9143316431727726 [Eh]

	 ================> DF-SCS-MP2 Energies <==================
	-----------------------------------------------------------
	 SCS Same-Spin Scale       =       0.3333333333333333 [-]
	 SCS Opposite-Spin Scale   =       1.2000000000000000 [-]
	 SCS Same-Spin Energy      =      -0.1347576649077452 [Eh]
	 SCS Opposite-Spin Energy  =      -1.4752859998012327 [Eh]
	 SCS Correlation Energy    =      -1.6100436647089778 [Eh]
	 SCS Total Energy          =    -721.8906973133241536 [Eh]
	-----------------------------------------------------------

  Dipole Moment: [D]
     X:     0.4193      Y:    -2.2551      Z:    -1.9269     Total:     2.9957

*** Psi4 exiting successfully. Buy a developer a beer!
