                               Psi4 1.3.2 release

  ==> Input File <==

--------------------------------------------------------------------------
#psi4
#
memory 32 gb

molecule  {
0 1
  P       -0.0357750     0.4680410     0.0705770
  O        1.0907140    -0.4402950     0.7609680
  O       -0.9935887    -0.5921699    -0.6931305
  O        0.7512110     1.1173330    -1.1929150
  O       -0.6930092     1.4223427     0.9867052
  C        1.8748370    -1.3345260    -0.0598200
  C       -1.9591270    -1.2882720     0.1502070
  H        1.2215740    -2.0052580    -0.6255210
  H        2.4895380    -1.9045040     0.6353170
  H        2.5026780    -0.7584230    -0.7438410
  H       -2.6431830    -0.5774540     0.6174740
  H       -1.4396990    -1.8621430     0.9229490
  H       -2.4975470    -1.9601810    -0.5134620
  H        0.3645100     1.9871850    -1.4006590
units angstrom
no_reorient  #important for SAPT in psi4, default
symmetry c1  #important for SAPT in psi4, default
}

set PROPERTIES_ORIGIN ["COM"]
properties('MP2/aug-cc-pvtz', properties = ['dipole'])
--------------------------------------------------------------------------

    Molecular point group: c1
  Charge       = 0
  Multiplicity = 1
  Basis Set: AUG-CC-PVTZ
    Blend: AUG-CC-PVTZ
  Basis Set: (AUG-CC-PVTZ AUX)
    Blend: AUG-CC-PVTZ-JKFIT

    Orbital Energies [Eh]
    ---------------------

    Doubly Occupied:

       1A    -80.109151     2A    -20.607268     3A    -20.597624
       4A    -20.597532     5A    -20.515941     6A    -11.300147
       7A    -11.300031     8A     -7.624703     9A     -5.523189
      10A     -5.522740    11A     -5.521702    12A     -1.449255
      13A     -1.381736    14A     -1.378666    15A     -1.296674
      16A     -0.972035    17A     -0.957222    18A     -0.817342
      19A     -0.730967    20A     -0.708105    21A     -0.677784
      22A     -0.655331    23A     -0.641655    24A     -0.632173
      25A     -0.627475    26A     -0.572447    27A     -0.559680
      28A     -0.543190    29A     -0.519217    30A     -0.500300
      31A     -0.489753    32A     -0.471163    33A     -0.465805

  @DF-RHF Final Energy:  -720.28097814369630

   => Energetics <=

    Nuclear Repulsion Energy =            451.0252252853173331
    One-Electron Energy =               -1890.0764011750736699
    Two-Electron Energy =                 718.7701977460601483
    Total Energy =                       -720.2809781436963021
  Basis Set: (AUG-CC-PVTZ AUX)
    Blend: AUG-CC-PVTZ-RI
    Molecular point group: c1

    Geometry (in Angstrom), charge = 0, multiplicity = 1:

       Center              X                  Y                   Z               Mass
    ------------   -----------------  -----------------  -----------------  -----------------
         P           -0.038653635835     0.468081177679     0.071045104856    30.973761998420
         O            1.087835364165    -0.440254822321     0.761436104856    15.994914619570
         O           -0.996467335835    -0.592129722321    -0.692662395144    15.994914619570
         O            0.748332364165     1.117373177679    -1.192446895144    15.994914619570
         O           -0.695887835835     1.422382877679     0.987173304856    15.994914619570
         C            1.871958364165    -1.334485822321    -0.059351895144    12.000000000000
         C           -1.962005635835    -1.288231822321     0.150675104856    12.000000000000
         H            1.218695364165    -2.005217822321    -0.625052895144     1.007825032230
         H            2.486659364165    -1.904463822321     0.635785104856     1.007825032230
         H            2.499799364165    -0.758382822321    -0.743372895144     1.007825032230
         H           -2.646061635835    -0.577413822321     0.617942104856     1.007825032230
         H           -1.442577635835    -1.862102822321     0.923417104856     1.007825032230
         H           -2.500425635835    -1.960140822321    -0.512993895144     1.007825032230
         H            0.361631364165     1.987225177679    -1.400190895144     1.007825032230

  Basis Set: AUG-CC-PVTZ
    Blend: AUG-CC-PVTZ
  Basis Set: (AUG-CC-PVTZ AUX)
    Blend: AUG-CC-PVTZ-JKFIT
	 Reference Energy          =    -720.2809781436963021 [Eh]
	 Singles Energy            =      -0.0000000000000000 [Eh]
	 Same-Spin Energy          =      -0.4043420759132185 [Eh]
	 Opposite-Spin Energy      =      -1.2302182104447874 [Eh]
	 Correlation Energy        =      -1.6345602863580058 [Eh]
	 Total Energy              =    -721.9155384300543119 [Eh]

	 ================> DF-SCS-MP2 Energies <==================
	-----------------------------------------------------------
	 SCS Same-Spin Scale       =       0.3333333333333333 [-]
	 SCS Opposite-Spin Scale   =       1.2000000000000000 [-]
	 SCS Same-Spin Energy      =      -0.1347806919710728 [Eh]
	 SCS Opposite-Spin Energy  =      -1.4762618525337448 [Eh]
	 SCS Correlation Energy    =      -1.6110425445048175 [Eh]
	 SCS Total Energy          =    -721.8920206882011144 [Eh]
	-----------------------------------------------------------

  Dipole Moment: [D]
     X:     0.3908      Y:    -2.5774      Z:    -1.9327     Total:     3.2452

*** Psi4 exiting successfully. Buy a developer a beer!
