                               Psi4 1.3.2 release

  ==> Input File <==

--------------------------------------------------------------------------
#psi4
#
memory 32 gb

molecule  {
0 1
  P       -0.0357750     0.4680410     0.0705770
  O        1.0907140    -0.4402950     0.7609680
  O       -0.9822635    -0.5976801    -0.6995538
  O        0.7512110     1.1173330    -1.1929150
  O       -0.6815334     1.4275427     0.9894307
  C        1.8748370    -1.3345260    -0.0598200
  C       -1.9591270    -1.2882720     0.1502070
  H        1.2215740    -2.0052580    -0.6255210
  H        2.4895380    -1.9045040     0.6353170
  H        2.5026780    -0.7584230    -0.7438410
  H       -2.6431830    -0.5774540     0.6174740
  H       -1.4396990    -1.8621430     0.9229490
  H       -2.4975470    -1.9601810    -0.5134620
  H        0.3645100     1.9871850    -1.4006590
units angstrom
no_reorient  #important for SAPT in psi4, default
symmetry c1  #important for SAPT in psi4, default
}

set PROPERTIES_ORIGIN ["COM"]
properties('MP2/aug-cc-pvtz', properties = ['dipole'])
--------------------------------------------------------------------------

    Molecular point group: c1
  Charge       = 0
  Multiplicity = 1
  Basis Set: AUG-CC-PVTZ
    Blend: AUG-CC-PVTZ
  Basis Set: (AUG-CC-PVTZ AUX)
    Blend: AUG-CC-PVTZ-JKFIT

    Orbital Energies [Eh]
    ---------------------

    Doubly Occupied:

       1A    -80.108733     2A    -20.606133     3A    -20.598552
       4A    -20.596608     5A    -20.516444     6A    -11.301609
       7A    -11.299447     8A     -7.624320     9A     -5.522803
      10A     -5.522369    11A     -5.521306    12A     -1.448563
      13A     -1.380844    14A     -1.377013    15A     -1.296939
      16A     -0.971717    17A     -0.957288    18A     -0.816861
      19A     -0.730126    20A     -0.707559    21A     -0.677246
      22A     -0.654453    23A     -0.640951    24A     -0.631643
      25A     -0.626207    26A     -0.572603    27A     -0.558816
      28A     -0.543763    29A     -0.519441    30A     -0.500588
      31A     -0.489712    32A     -0.471406    33A     -0.466560

  @DF-RHF Final Energy:  -720.28024134851364

   => Energetics <=

    Nuclear Repulsion Energy =            450.9430258645743947
    One-Electron Energy =               -1889.9292903625878353
    Two-Electron Energy =                 718.7060231494998561
    Total Energy =                       -720.2802413485136412
  Basis Set: (AUG-CC-PVTZ AUX)
    Blend: AUG-CC-PVTZ-RI
    Molecular point group: c1

    Geometry (in Angstrom), charge = 0, multiplicity = 1:

       Center              X                  Y                   Z               Mass
    ------------   -----------------  -----------------  -----------------  -----------------
         P           -0.041547892404     0.468120553075     0.071514486986    30.973761998420
         O            1.084941107596    -0.440215446925     0.761905486986    15.994914619570
         O           -0.988036392404    -0.597600546925    -0.698616313014    15.994914619570
         O            0.745438107596     1.117412553075    -1.191977513014    15.994914619570
         O           -0.687306292404     1.427622253075     0.990368186986    15.994914619570
         C            1.869064107596    -1.334446446925    -0.058882513014    12.000000000000
         C           -1.964899892404    -1.288192446925     0.151144486986    12.000000000000
         H            1.215801107596    -2.005178446925    -0.624583513014     1.007825032230
         H            2.483765107596    -1.904424446925     0.636254486986     1.007825032230
         H            2.496905107596    -0.758343446925    -0.742903513014     1.007825032230
         H           -2.648955892404    -0.577374446925     0.618411486986     1.007825032230
         H           -1.445471892404    -1.862063446925     0.923886486986     1.007825032230
         H           -2.503319892404    -1.960101446925    -0.512524513014     1.007825032230
         H            0.358737107596     1.987264553075    -1.399721513014     1.007825032230

  Basis Set: AUG-CC-PVTZ
    Blend: AUG-CC-PVTZ
  Basis Set: (AUG-CC-PVTZ AUX)
    Blend: AUG-CC-PVTZ-JKFIT
	 Reference Energy          =    -720.2802413485136412 [Eh]
	 Singles Energy            =      -0.0000000000000000 [Eh]
	 Same-Spin Energy          =      -0.4044242852883080 [Eh]
	 Opposite-Spin Energy      =      -1.2304973726199051 [Eh]
	 Correlation Energy        =      -1.6349216579082131 [Eh]
	 Total Energy              =    -721.9151630064218352 [Eh]

	 ================> DF-SCS-MP2 Energies <==================
	-----------------------------------------------------------
	 SCS Same-Spin Scale       =       0.3333333333333333 [-]
	 SCS Opposite-Spin Scale   =       1.2000000000000000 [-]
	 SCS Same-Spin Energy      =      -0.1348080950961026 [Eh]
	 SCS Opposite-Spin Energy  =      -1.4765968471438862 [Eh]
	 SCS Correlation Energy    =      -1.6114049422399888 [Eh]
	 SCS Total Energy          =    -721.8916462907536697 [Eh]
	-----------------------------------------------------------

  Dipole Moment: [D]
     X:     0.3032      Y:    -2.5937      Z:    -1.9152     Total:     3.2384

*** Psi4 exiting successfully. Buy a developer a beer!
