                               Psi4 1.3.2 release

  ==> Input File <==

--------------------------------------------------------------------------
#psi4
#
memory 32 gb

molecule  {
0 1
  P       -0.0357750     0.4680410     0.0705770
  O        1.1256470    -0.3701763     0.7911200
  O       -1.0518360    -0.5210693    -0.7129944
  O        0.7512110     1.1173330    -1.1929150
  O       -0.7044350     1.4170700     0.9839100
  C        1.8748370    -1.3345260    -0.0598200
  C       -1.9591270    -1.2882720     0.1502070
  H        1.2215740    -2.0052580    -0.6255210
  H        2.4895380    -1.9045040     0.6353170
  H        2.5026780    -0.7584230    -0.7438410
  H       -2.6431830    -0.5774540     0.6174740
  H       -1.4396990    -1.8621430     0.9229490
  H       -2.4975470    -1.9601810    -0.5134620
  H        0.3645100     1.9871850    -1.4006590
units angstrom
no_reorient  #important for SAPT in psi4, default
symmetry c1  #important for SAPT in psi4, default
}

set PROPERTIES_ORIGIN ["COM"]
properties('MP2/aug-cc-pvtz', properties = ['dipole'])
--------------------------------------------------------------------------

    Molecular point group: c1
  Charge       = 0
  Multiplicity = 1
  Basis Set: AUG-CC-PVTZ
    Blend: AUG-CC-PVTZ
  Basis Set: (AUG-CC-PVTZ AUX)
    Blend: AUG-CC-PVTZ-JKFIT

    Orbital Energies [Eh]
    ---------------------

    Doubly Occupied:

       1A    -80.105854     2A    -20.603743     3A    -20.603051
       4A    -20.600415     5A    -20.507265     6A    -11.308067
       7A    -11.301961     8A     -7.621615     9A     -5.520103
      10A     -5.519467    11A     -5.518666    12A     -1.444902
      13A     -1.377877    14A     -1.375299    15A     -1.289175
      16A     -0.971239    17A     -0.960281    18A     -0.816527
      19A     -0.728756    20A     -0.705099    21A     -0.673089
      22A     -0.654617    23A     -0.637373    24A     -0.632543
      25A     -0.623543    26A     -0.570192    27A     -0.555198
      28A     -0.547965    29A     -0.521523    30A     -0.504657
      31A     -0.498110    32A     -0.463582    33A     -0.458736

  @DF-RHF Final Energy:  -720.27552200310583

   => Energetics <=

    Nuclear Repulsion Energy =            449.7324008062113307
    One-Electron Energy =               -1887.5748680686426724
    Two-Electron Energy =                 717.5669452593256210
    Total Energy =                       -720.2755220031058343
  Basis Set: (AUG-CC-PVTZ AUX)
    Blend: AUG-CC-PVTZ-RI
    Molecular point group: c1

    Geometry (in Angstrom), charge = 0, multiplicity = 1:

       Center              X                  Y                   Z               Mass
    ------------   -----------------  -----------------  -----------------  -----------------
         P           -0.034243883514     0.450824726639     0.070093989771    30.973761998420
         O            1.127178116486    -0.387392573361     0.790636989771    15.994914619570
         O           -1.050304883514    -0.538285573361    -0.713477410229    15.994914619570
         O            0.752742116486     1.100116726639    -1.193398010229    15.994914619570
         O           -0.702903883514     1.399853726639     0.983426989771    15.994914619570
         C            1.876368116486    -1.351742273361    -0.060303010229    12.000000000000
         C           -1.957595883514    -1.305488273361     0.149723989771    12.000000000000
         H            1.223105116486    -2.022474273361    -0.626004010229     1.007825032230
         H            2.491069116486    -1.921720273361     0.634833989771     1.007825032230
         H            2.504209116486    -0.775639273361    -0.744324010229     1.007825032230
         H           -2.641651883514    -0.594670273361     0.616990989771     1.007825032230
         H           -1.438167883514    -1.879359273361     0.922465989771     1.007825032230
         H           -2.496015883514    -1.977397273361    -0.513945010229     1.007825032230
         H            0.366041116486     1.969968726639    -1.401142010229     1.007825032230

  Basis Set: AUG-CC-PVTZ
    Blend: AUG-CC-PVTZ
  Basis Set: (AUG-CC-PVTZ AUX)
    Blend: AUG-CC-PVTZ-JKFIT
	 Reference Energy          =    -720.2755220031058343 [Eh]
	 Singles Energy            =      -0.0000000000000000 [Eh]
	 Same-Spin Energy          =      -0.4045888482423308 [Eh]
	 Opposite-Spin Energy      =      -1.2315094779567757 [Eh]
	 Correlation Energy        =      -1.6360983261991064 [Eh]
	 Total Energy              =    -721.9116203293049239 [Eh]

	 ================> DF-SCS-MP2 Energies <==================
	-----------------------------------------------------------
	 SCS Same-Spin Scale       =       0.3333333333333333 [-]
	 SCS Opposite-Spin Scale   =       1.2000000000000000 [-]
	 SCS Same-Spin Energy      =      -0.1348629494141103 [Eh]
	 SCS Opposite-Spin Energy  =      -1.4778113735481309 [Eh]
	 SCS Correlation Energy    =      -1.6126743229622411 [Eh]
	 SCS Total Energy          =    -721.8881963260680550 [Eh]
	-----------------------------------------------------------

  Dipole Moment: [D]
     X:     0.5597      Y:    -3.0244      Z:    -1.9792     Total:     3.6575

*** Psi4 exiting successfully. Buy a developer a beer!
