                               Psi4 1.3.2 release

  ==> Input File <==

--------------------------------------------------------------------------
#psi4
#
memory 32 gb

molecule  {
0 1
  P       -0.0291855     0.4569188     0.0457590
  O        1.0907140    -0.4402950     0.7609680
  O       -1.0048410    -0.5865790    -0.6866490
  O        0.7512110     1.1173330    -1.1929150
  O       -0.7044350     1.4170700     0.9839100
  C        1.8620625    -1.3267363    -0.0801231
  C       -1.9591270    -1.2882720     0.1502070
  H        1.2215740    -2.0052580    -0.6255210
  H        2.4895380    -1.9045040     0.6353170
  H        2.5026780    -0.7584230    -0.7438410
  H       -2.6431830    -0.5774540     0.6174740
  H       -1.4396990    -1.8621430     0.9229490
  H       -2.4975470    -1.9601810    -0.5134620
  H        0.3645100     1.9871850    -1.4006590
units angstrom
no_reorient  #important for SAPT in psi4, default
symmetry c1  #important for SAPT in psi4, default
}

set PROPERTIES_ORIGIN ["COM"]
properties('MP2/aug-cc-pvtz', properties = ['dipole'])
--------------------------------------------------------------------------

    Molecular point group: c1
  Charge       = 0
  Multiplicity = 1
  Basis Set: AUG-CC-PVTZ
    Blend: AUG-CC-PVTZ
  Basis Set: (AUG-CC-PVTZ AUX)
    Blend: AUG-CC-PVTZ-JKFIT

    Orbital Energies [Eh]
    ---------------------

    Doubly Occupied:

       1A    -80.110049     2A    -20.612483     3A    -20.599966
       4A    -20.599099     5A    -20.509598     6A    -11.301067
       7A    -11.300369     8A     -7.625335     9A     -5.523896
      10A     -5.523440    11A     -5.522166    12A     -1.454870
      13A     -1.388945    14A     -1.384617    15A     -1.280641
      16A     -0.973733    17A     -0.958926    18A     -0.823417
      19A     -0.736684    20A     -0.711650    21A     -0.680094
      22A     -0.659852    23A     -0.643613    24A     -0.635902
      25A     -0.629262    26A     -0.568103    27A     -0.565746
      28A     -0.540230    29A     -0.518068    30A     -0.502292
      31A     -0.492380    32A     -0.460804    33A     -0.456604

  @DF-RHF Final Energy:  -720.27957241901765

   => Energetics <=

    Nuclear Repulsion Energy =            451.5731478638010685
    One-Electron Energy =               -1891.1176474290875831
    Two-Electron Energy =                 719.2649271462688603
    Total Energy =                       -720.2795724190176543
  Basis Set: (AUG-CC-PVTZ AUX)
    Blend: AUG-CC-PVTZ-RI
    Molecular point group: c1

    Geometry (in Angstrom), charge = 0, multiplicity = 1:

       Center              X                  Y                   Z               Mass
    ------------   -----------------  -----------------  -----------------  -----------------
         P           -0.029588688370     0.458910679253     0.053793136305    30.973761998420
         O            1.090310811630    -0.438303120747     0.769002136305    15.994914619570
         O           -1.005244188370    -0.584587120747    -0.678614863695    15.994914619570
         O            0.750807811630     1.119324879253    -1.184880863695    15.994914619570
         O           -0.704838188370     1.419061879253     0.991944136305    15.994914619570
         C            1.861659311630    -1.324744420747    -0.072088963695    12.000000000000
         C           -1.959530188370    -1.286280120747     0.158241136305    12.000000000000
         H            1.221170811630    -2.003266120747    -0.617486863695     1.007825032230
         H            2.489134811630    -1.902512120747     0.643351136305     1.007825032230
         H            2.502274811630    -0.756431120747    -0.735806863695     1.007825032230
         H           -2.643586188370    -0.575462120747     0.625508136305     1.007825032230
         H           -1.440102188370    -1.860151120747     0.930983136305     1.007825032230
         H           -2.497950188370    -1.958189120747    -0.505427863695     1.007825032230
         H            0.364106811630     1.989176879253    -1.392624863695     1.007825032230

  Basis Set: AUG-CC-PVTZ
    Blend: AUG-CC-PVTZ
  Basis Set: (AUG-CC-PVTZ AUX)
    Blend: AUG-CC-PVTZ-JKFIT
	 Reference Energy          =    -720.2795724190176543 [Eh]
	 Singles Energy            =      -0.0000000000000000 [Eh]
	 Same-Spin Energy          =      -0.4045529049297798 [Eh]
	 Opposite-Spin Energy      =      -1.2302520863792750 [Eh]
	 Correlation Energy        =      -1.6348049913090548 [Eh]
	 Total Energy              =    -721.9143774103266651 [Eh]

	 ================> DF-SCS-MP2 Energies <==================
	-----------------------------------------------------------
	 SCS Same-Spin Scale       =       0.3333333333333333 [-]
	 SCS Opposite-Spin Scale   =       1.2000000000000000 [-]
	 SCS Same-Spin Energy      =      -0.1348509683099266 [Eh]
	 SCS Opposite-Spin Energy  =      -1.4763025036551298 [Eh]
	 SCS Correlation Energy    =      -1.6111534719650564 [Eh]
	 SCS Total Energy          =    -721.8907258909827078 [Eh]
	-----------------------------------------------------------

  Dipole Moment: [D]
     X:     0.5068      Y:    -2.6742      Z:    -2.1961     Total:     3.4973

*** Psi4 exiting successfully. Buy a developer a beer!
