                               Psi4 1.3.2 release

  ==> Input File <==

--------------------------------------------------------------------------
#psi4
#
memory 32 gb

molecule  {
0 1
  P       -0.0357750     0.4680410     0.0705770
  O        1.0907140    -0.4402950     0.7609680
  O       -1.0048410    -0.5865790    -0.6866490
  O        0.7512110     1.1173330    -1.1929150
  O       -0.7044350     1.4170700     0.9839100
  C        1.8748370    -1.3345260    -0.0598200
  C       -1.9591270    -1.2882720     0.1502070
  H        1.2215740    -2.0052580    -0.6255210
  H        2.4895380    -1.9045040     0.6353170
  H        2.5026780    -0.7584230    -0.7438410
  H       -2.6431830    -0.5774540     0.6174740
  H       -1.4396990    -1.8621430     0.9229490
  H       -2.4975470    -1.9601810    -0.5134620
  H        0.4438870     1.8086329    -1.3580160
units angstrom
no_reorient  #important for SAPT in psi4, default
symmetry c1  #important for SAPT in psi4, default
}

set PROPERTIES_ORIGIN ["COM"]
properties('MP2/aug-cc-pvtz', properties = ['dipole'])
--------------------------------------------------------------------------

    Molecular point group: c1
  Charge       = 0
  Multiplicity = 1
  Basis Set: AUG-CC-PVTZ
    Blend: AUG-CC-PVTZ
  Basis Set: (AUG-CC-PVTZ AUX)
    Blend: AUG-CC-PVTZ-JKFIT

    Orbital Energies [Eh]
    ---------------------

    Doubly Occupied:

       1A    -80.113583     2A    -20.600649     3A    -20.598916
       4A    -20.591138     5A    -20.518849     6A    -11.302390
       7A    -11.300118     8A     -7.629075     9A     -5.527638
      10A     -5.527072    11A     -5.526052    12A     -1.483047
      13A     -1.416838    14A     -1.382977    15A     -1.300677
      16A     -0.977113    17A     -0.959347    18A     -0.858046
      19A     -0.749566    20A     -0.712480    21A     -0.684105
      22A     -0.662068    23A     -0.648436    24A     -0.636815
      25A     -0.631416    26A     -0.576340    27A     -0.569868
      28A     -0.545087    29A     -0.522164    30A     -0.502284
      31A     -0.491962    32A     -0.474546    33A     -0.467723

  @DF-RHF Final Energy:  -720.23433383585837

   => Energetics <=

    Nuclear Repulsion Energy =            452.7213989903100924
    One-Electron Energy =               -1892.9346973940596399
    Two-Electron Energy =                 719.9789645678912393
    Total Energy =                       -720.2343338358583651
  Basis Set: (AUG-CC-PVTZ AUX)
    Blend: AUG-CC-PVTZ-RI
    Molecular point group: c1

    Geometry (in Angstrom), charge = 0, multiplicity = 1:

       Center              X                  Y                   Z               Mass
    ------------   -----------------  -----------------  -----------------  -----------------
         P           -0.036409844119     0.469468862767     0.070236119885    30.973761998420
         O            1.090079155881    -0.438867137233     0.760627119885    15.994914619570
         O           -1.005475844119    -0.585151137233    -0.686989880115    15.994914619570
         O            0.750576155881     1.118760862767    -1.193255880115    15.994914619570
         O           -0.705069844119     1.418497862767     0.983569119885    15.994914619570
         C            1.874202155881    -1.333098137233    -0.060160880115    12.000000000000
         C           -1.959761844119    -1.286844137233     0.149866119885    12.000000000000
         H            1.220939155881    -2.003830137233    -0.625861880115     1.007825032230
         H            2.488903155881    -1.903076137233     0.634976119885     1.007825032230
         H            2.502043155881    -0.756995137233    -0.744181880115     1.007825032230
         H           -2.643817844119    -0.576026137233     0.617133119885     1.007825032230
         H           -1.440333844119    -1.860715137233     0.922608119885     1.007825032230
         H           -2.498181844119    -1.958753137233    -0.513802880115     1.007825032230
         H            0.443252155881     1.810060762767    -1.358356880115     1.007825032230

  Basis Set: AUG-CC-PVTZ
    Blend: AUG-CC-PVTZ
  Basis Set: (AUG-CC-PVTZ AUX)
    Blend: AUG-CC-PVTZ-JKFIT
	 Reference Energy          =    -720.2343338358583651 [Eh]
	 Singles Energy            =      -0.0000000000000000 [Eh]
	 Same-Spin Energy          =      -0.4021173554855753 [Eh]
	 Opposite-Spin Energy      =      -1.2253344992476993 [Eh]
	 Correlation Energy        =      -1.6274518547332746 [Eh]
	 Total Energy              =    -721.8617856905916597 [Eh]

	 ================> DF-SCS-MP2 Energies <==================
	-----------------------------------------------------------
	 SCS Same-Spin Scale       =       0.3333333333333333 [-]
	 SCS Opposite-Spin Scale   =       1.2000000000000000 [-]
	 SCS Same-Spin Energy      =      -0.1340391184951917 [Eh]
	 SCS Opposite-Spin Energy  =      -1.4704013990972391 [Eh]
	 SCS Correlation Energy    =      -1.6044405175924308 [Eh]
	 SCS Total Energy          =    -721.8387743534508445 [Eh]
	-----------------------------------------------------------

  Dipole Moment: [D]
     X:     0.5034      Y:    -2.8510      Z:    -1.7944     Total:     3.4061

*** Psi4 exiting successfully. Buy a developer a beer!
