                               Psi4 1.3.2 release

  ==> Input File <==

--------------------------------------------------------------------------
#psi4
#
memory 32 gb

molecule  {
0 1
  P       -0.0848598     0.5374276     0.0728000
  O        1.0907140    -0.4402950     0.7609680
  O       -1.0048410    -0.5865790    -0.6866490
  O        0.7512110     1.1173330    -1.1929150
  O       -0.7044350     1.4170700     0.9839100
  C        1.8748370    -1.3345260    -0.0598200
  C       -1.9591270    -1.2882720     0.1502070
  H        1.2215740    -2.0052580    -0.6255210
  H        2.4895380    -1.9045040     0.6353170
  H        2.5026780    -0.7584230    -0.7438410
  H       -2.6431830    -0.5774540     0.6174740
  H       -1.4396990    -1.8621430     0.9229490
  H       -2.4975470    -1.9601810    -0.5134620
  H        0.3317707     1.9803327    -1.3621460
units angstrom
no_reorient  #important for SAPT in psi4, default
symmetry c1  #important for SAPT in psi4, default
}

set PROPERTIES_ORIGIN ["COM"]
properties('MP2/aug-cc-pvtz', properties = ['dipole'])
--------------------------------------------------------------------------

    Molecular point group: c1
  Charge       = 0
  Multiplicity = 1
  Basis Set: AUG-CC-PVTZ
    Blend: AUG-CC-PVTZ
  Basis Set: (AUG-CC-PVTZ AUX)
    Blend: AUG-CC-PVTZ-JKFIT

    Orbital Energies [Eh]
    ---------------------

    Doubly Occupied:

       1A    -80.108174     2A    -20.616192     3A    -20.595177
       4A    -20.579339     5A    -20.533146     6A    -11.297088
       7A    -11.287995     8A     -7.625880     9A     -5.524081
      10A     -5.523474    11A     -5.523327    12A     -1.447033
      13A     -1.382157    14A     -1.357254    15A     -1.338995
      16A     -0.963857    17A     -0.943094    18A     -0.809899
      19A     -0.726216    20A     -0.695550    21A     -0.678811
      22A     -0.658549    23A     -0.633881    24A     -0.623446
      25A     -0.618540    26A     -0.593299    27A     -0.563992
      28A     -0.541368    29A     -0.520441    30A     -0.500359
      31A     -0.488695    32A     -0.485401    33A     -0.470408

  @DF-RHF Final Energy:  -720.26918755094573

   => Energetics <=

    Nuclear Repulsion Energy =            450.3130940989264559
    One-Electron Energy =               -1888.6543324303424924
    Two-Electron Energy =                 718.0720507804702493
    Total Energy =                       -720.2691875509457304
  Basis Set: (AUG-CC-PVTZ AUX)
    Blend: AUG-CC-PVTZ-RI
    Molecular point group: c1

    Geometry (in Angstrom), charge = 0, multiplicity = 1:

       Center              X                  Y                   Z               Mass
    ------------   -----------------  -----------------  -----------------  -----------------
         P           -0.072532514811     0.520426444100     0.071945721886    30.973761998420
         O            1.103041285189    -0.457296155900     0.760113721886    15.994914619570
         O           -0.992513714811    -0.603580155900    -0.687503278114    15.994914619570
         O            0.763538285189     1.100331844100    -1.193769278114    15.994914619570
         O           -0.692107714811     1.400068844100     0.983055721886    15.994914619570
         C            1.887164285189    -1.351527155900    -0.060674278114    12.000000000000
         C           -1.946799714811    -1.305273155900     0.149352721886    12.000000000000
         H            1.233901285189    -2.022259155900    -0.626375278114     1.007825032230
         H            2.501865285189    -1.921505155900     0.634462721886     1.007825032230
         H            2.515005285189    -0.775424155900    -0.744695278114     1.007825032230
         H           -2.630855714811    -0.594455155900     0.616619721886     1.007825032230
         H           -1.427371714811    -1.879144155900     0.922094721886     1.007825032230
         H           -2.485219714811    -1.977182155900    -0.514316278114     1.007825032230
         H            0.344097985189     1.963331544100    -1.363000278114     1.007825032230

  Basis Set: AUG-CC-PVTZ
    Blend: AUG-CC-PVTZ
  Basis Set: (AUG-CC-PVTZ AUX)
    Blend: AUG-CC-PVTZ-JKFIT
	 Reference Energy          =    -720.2691875509457304 [Eh]
	 Singles Energy            =      -0.0000000000000000 [Eh]
	 Same-Spin Energy          =      -0.4040200644058771 [Eh]
	 Opposite-Spin Energy      =      -1.2301526014123412 [Eh]
	 Correlation Energy        =      -1.6341726658182183 [Eh]
	 Total Energy              =    -721.9033602167639856 [Eh]

	 ================> DF-SCS-MP2 Energies <==================
	-----------------------------------------------------------
	 SCS Same-Spin Scale       =       0.3333333333333333 [-]
	 SCS Opposite-Spin Scale   =       1.2000000000000000 [-]
	 SCS Same-Spin Energy      =      -0.1346733548019590 [Eh]
	 SCS Opposite-Spin Energy  =      -1.4761831216948094 [Eh]
	 SCS Correlation Energy    =      -1.6108564764967683 [Eh]
	 SCS Total Energy          =    -721.8800440274425227 [Eh]
	-----------------------------------------------------------

  Dipole Moment: [D]
     X:    -0.1478      Y:    -1.7688      Z:    -1.8283     Total:     2.5481

*** Psi4 exiting successfully. Buy a developer a beer!
