                               Psi4 1.3.2 release

  ==> Input File <==

--------------------------------------------------------------------------
#psi4
#
memory 32 gb

molecule  {
0 1
  P       -0.0357750     0.4680410     0.0705770
  O        1.0743571    -0.4015050     0.8335894
  O       -1.0048410    -0.5865790    -0.6866490
  O        0.7512110     1.1173330    -1.1929150
  O       -0.6597949     1.3903196     1.0411133
  C        1.8748370    -1.3345260    -0.0598200
  C       -1.9591270    -1.2882720     0.1502070
  H        1.2215740    -2.0052580    -0.6255210
  H        2.4895380    -1.9045040     0.6353170
  H        2.5026780    -0.7584230    -0.7438410
  H       -2.6431830    -0.5774540     0.6174740
  H       -1.4396990    -1.8621430     0.9229490
  H       -2.4975470    -1.9601810    -0.5134620
  H        0.3645100     1.9871850    -1.4006590
units angstrom
no_reorient  #important for SAPT in psi4, default
symmetry c1  #important for SAPT in psi4, default
}

set PROPERTIES_ORIGIN ["COM"]
properties('MP2/aug-cc-pvtz', properties = ['dipole'])
--------------------------------------------------------------------------

    Molecular point group: c1
  Charge       = 0
  Multiplicity = 1
  Basis Set: AUG-CC-PVTZ
    Blend: AUG-CC-PVTZ
  Basis Set: (AUG-CC-PVTZ AUX)
    Blend: AUG-CC-PVTZ-JKFIT

    Orbital Energies [Eh]
    ---------------------

    Doubly Occupied:

       1A    -80.105595     2A    -20.611091     3A    -20.599574
       4A    -20.597555     5A    -20.507602     6A    -11.307323
       7A    -11.299070     8A     -7.621418     9A     -5.519766
      10A     -5.519355    11A     -5.518498    12A     -1.445315
      13A     -1.383036    14A     -1.368625    15A     -1.288850
      16A     -0.968855    17A     -0.958307    18A     -0.817206
      19A     -0.730453    20A     -0.701934    21A     -0.673507
      22A     -0.654771    23A     -0.638730    24A     -0.627542
      25A     -0.619964    26A     -0.567105    27A     -0.563199
      28A     -0.546461    29A     -0.521879    30A     -0.503315
      31A     -0.493127    32A     -0.463506    33A     -0.459280

  @DF-RHF Final Energy:  -720.27395089112019

   => Energetics <=

    Nuclear Repulsion Energy =            449.9813926414348657
    One-Electron Energy =               -1888.1070617996081182
    Two-Electron Energy =                 717.8517182670530019
    Total Energy =                       -720.2739508911201938
  Basis Set: (AUG-CC-PVTZ AUX)
    Blend: AUG-CC-PVTZ-RI
    Molecular point group: c1

    Geometry (in Angstrom), charge = 0, multiplicity = 1:

       Center              X                  Y                   Z               Mass
    ------------   -----------------  -----------------  -----------------  -----------------
         P           -0.039365122063     0.466512534030     0.054097817945    30.973761998420
         O            1.070766977937    -0.403033465970     0.817110217945    15.994914619570
         O           -1.008431122063    -0.588107465970    -0.703128182055    15.994914619570
         O            0.747620877937     1.115804534030    -1.209394182055    15.994914619570
         O           -0.663385022063     1.388791134030     1.024634117945    15.994914619570
         C            1.871246877937    -1.336054465970    -0.076299182055    12.000000000000
         C           -1.962717122063    -1.289800465970     0.133727817945    12.000000000000
         H            1.217983877937    -2.006786465970    -0.642000182055     1.007825032230
         H            2.485947877937    -1.906032465970     0.618837817945     1.007825032230
         H            2.499087877937    -0.759951465970    -0.760320182055     1.007825032230
         H           -2.646773122063    -0.578982465970     0.600994817945     1.007825032230
         H           -1.443289122063    -1.863671465970     0.906469817945     1.007825032230
         H           -2.501137122063    -1.961709465970    -0.529941182055     1.007825032230
         H            0.360919877937     1.985656534030    -1.417138182055     1.007825032230

  Basis Set: AUG-CC-PVTZ
    Blend: AUG-CC-PVTZ
  Basis Set: (AUG-CC-PVTZ AUX)
    Blend: AUG-CC-PVTZ-JKFIT
	 Reference Energy          =    -720.2739508911201938 [Eh]
	 Singles Energy            =      -0.0000000000000000 [Eh]
	 Same-Spin Energy          =      -0.4047900931541904 [Eh]
	 Opposite-Spin Energy      =      -1.2320569873889009 [Eh]
	 Correlation Energy        =      -1.6368470805430912 [Eh]
	 Total Energy              =    -721.9107979716633281 [Eh]

	 ================> DF-SCS-MP2 Energies <==================
	-----------------------------------------------------------
	 SCS Same-Spin Scale       =       0.3333333333333333 [-]
	 SCS Opposite-Spin Scale   =       1.2000000000000000 [-]
	 SCS Same-Spin Energy      =      -0.1349300310513968 [Eh]
	 SCS Opposite-Spin Energy  =      -1.4784683848666811 [Eh]
	 SCS Correlation Energy    =      -1.6133984159180779 [Eh]
	 SCS Total Energy          =    -721.8873493070382210 [Eh]
	-----------------------------------------------------------

  Dipole Moment: [D]
     X:     0.4928      Y:    -2.7041      Z:    -2.3140     Total:     3.5930

*** Psi4 exiting successfully. Buy a developer a beer!
