                               Psi4 1.3.2 release

  ==> Input File <==

--------------------------------------------------------------------------
#psi4
#
memory 32 gb

molecule  {
0 1
  P       -0.0357750     0.4680410     0.0705770
  O        1.0907140    -0.4402950     0.7609680
  O       -1.0154296    -0.5944311    -0.6616343
  O        0.7657400     1.1338625    -1.1750532
  O       -0.7044350     1.4170700     0.9839100
  C        1.8748370    -1.3345260    -0.0598200
  C       -1.9591270    -1.2882720     0.1502070
  H        1.2215740    -2.0052580    -0.6255210
  H        2.4895380    -1.9045040     0.6353170
  H        2.5026780    -0.7584230    -0.7438410
  H       -2.6431830    -0.5774540     0.6174740
  H       -1.4396990    -1.8621430     0.9229490
  H       -2.4975470    -1.9601810    -0.5134620
  H        0.3645100     1.9871850    -1.4006590
units angstrom
no_reorient  #important for SAPT in psi4, default
symmetry c1  #important for SAPT in psi4, default
}

set PROPERTIES_ORIGIN ["COM"]
properties('MP2/aug-cc-pvtz', properties = ['dipole'])
--------------------------------------------------------------------------

    Molecular point group: c1
  Charge       = 0
  Multiplicity = 1
  Basis Set: AUG-CC-PVTZ
    Blend: AUG-CC-PVTZ
  Basis Set: (AUG-CC-PVTZ AUX)
    Blend: AUG-CC-PVTZ-JKFIT

    Orbital Energies [Eh]
    ---------------------

    Doubly Occupied:

       1A    -80.110960     2A    -20.610528     3A    -20.598582
       4A    -20.596595     5A    -20.514282     6A    -11.301209
       7A    -11.296011     8A     -7.626356     9A     -5.524858
      10A     -5.524365    11A     -5.523380    12A     -1.452309
      13A     -1.387649    14A     -1.383442    15A     -1.295889
      16A     -0.973706    17A     -0.957227    18A     -0.819554
      19A     -0.736246    20A     -0.709714    21A     -0.679447
      22A     -0.659104    23A     -0.646126    24A     -0.634161
      25A     -0.630966    26A     -0.571815    27A     -0.564391
      28A     -0.541418    29A     -0.517831    30A     -0.499159
      31A     -0.488197    32A     -0.469971    33A     -0.463780

  @DF-RHF Final Energy:  -720.28235035774458

   => Energetics <=

    Nuclear Repulsion Energy =            451.3885671181855059
    One-Electron Energy =               -1890.7233793938833060
    Two-Electron Energy =                 719.0524619179533374
    Total Energy =                       -720.2823503577445763
  Basis Set: (AUG-CC-PVTZ AUX)
    Blend: AUG-CC-PVTZ-RI
    Molecular point group: c1

    Geometry (in Angstrom), charge = 0, multiplicity = 1:

       Center              X                  Y                   Z               Mass
    ------------   -----------------  -----------------  -----------------  -----------------
         P           -0.036275156324     0.466939316603     0.065134632079    30.973761998420
         O            1.090213843676    -0.441396683397     0.755525632079    15.994914619570
         O           -1.015929756324    -0.595532783397    -0.667076667921    15.994914619570
         O            0.765239843676     1.132760816603    -1.180495567921    15.994914619570
         O           -0.704935156324     1.415968316603     0.978467632079    15.994914619570
         C            1.874336843676    -1.335627683397    -0.065262367921    12.000000000000
         C           -1.959627156324    -1.289373683397     0.144764632079    12.000000000000
         H            1.221073843676    -2.006359683397    -0.630963367921     1.007825032230
         H            2.489037843676    -1.905605683397     0.629874632079     1.007825032230
         H            2.502177843676    -0.759524683397    -0.749283367921     1.007825032230
         H           -2.643683156324    -0.578555683397     0.612031632079     1.007825032230
         H           -1.440199156324    -1.863244683397     0.917506632079     1.007825032230
         H           -2.498047156324    -1.961282683397    -0.518904367921     1.007825032230
         H            0.364009843676     1.986083316603    -1.406101367921     1.007825032230

  Basis Set: AUG-CC-PVTZ
    Blend: AUG-CC-PVTZ
  Basis Set: (AUG-CC-PVTZ AUX)
    Blend: AUG-CC-PVTZ-JKFIT
	 Reference Energy          =    -720.2823503577445763 [Eh]
	 Singles Energy            =      -0.0000000000000000 [Eh]
	 Same-Spin Energy          =      -0.4040194637786281 [Eh]
	 Opposite-Spin Energy      =      -1.2290935584350824 [Eh]
	 Correlation Energy        =      -1.6331130222137105 [Eh]
	 Total Energy              =    -721.9154633799582825 [Eh]

	 ================> DF-SCS-MP2 Energies <==================
	-----------------------------------------------------------
	 SCS Same-Spin Scale       =       0.3333333333333333 [-]
	 SCS Opposite-Spin Scale   =       1.2000000000000000 [-]
	 SCS Same-Spin Energy      =      -0.1346731545928760 [Eh]
	 SCS Opposite-Spin Energy  =      -1.4749122701220989 [Eh]
	 SCS Correlation Energy    =      -1.6095854247149750 [Eh]
	 SCS Total Energy          =    -721.8919357824595409 [Eh]
	-----------------------------------------------------------

  Dipole Moment: [D]
     X:     0.5204      Y:    -2.5458      Z:    -2.0722     Total:     3.3235

*** Psi4 exiting successfully. Buy a developer a beer!
