                               Psi4 1.3.2 release

  ==> Input File <==

--------------------------------------------------------------------------
#psi4
#
memory 32 gb

molecule  {
0 1
  P       -0.0357750     0.4680410     0.0705770
  O        1.0907140    -0.4402950     0.7609680
  O       -1.0257199    -0.6019595    -0.6363965
  O        0.7800248     1.1501892    -1.1568120
  O       -0.7044350     1.4170700     0.9839100
  C        1.8748370    -1.3345260    -0.0598200
  C       -1.9591270    -1.2882720     0.1502070
  H        1.2215740    -2.0052580    -0.6255210
  H        2.4895380    -1.9045040     0.6353170
  H        2.5026780    -0.7584230    -0.7438410
  H       -2.6431830    -0.5774540     0.6174740
  H       -1.4396990    -1.8621430     0.9229490
  H       -2.4975470    -1.9601810    -0.5134620
  H        0.3645100     1.9871850    -1.4006590
units angstrom
no_reorient  #important for SAPT in psi4, default
symmetry c1  #important for SAPT in psi4, default
}

set PROPERTIES_ORIGIN ["COM"]
properties('MP2/aug-cc-pvtz', properties = ['dipole'])
--------------------------------------------------------------------------

    Molecular point group: c1
  Charge       = 0
  Multiplicity = 1
  Basis Set: AUG-CC-PVTZ
    Blend: AUG-CC-PVTZ
  Basis Set: (AUG-CC-PVTZ AUX)
    Blend: AUG-CC-PVTZ-JKFIT

    Orbital Energies [Eh]
    ---------------------

    Doubly Occupied:

       1A    -80.112425     2A    -20.612733     3A    -20.598558
       4A    -20.596577     5A    -20.513155     6A    -11.301598
       7A    -11.293516     8A     -7.627695     9A     -5.526230
      10A     -5.525671    11A     -5.524728    12A     -1.454957
      13A     -1.394560    14A     -1.384553    15A     -1.295398
      16A     -0.975173    17A     -0.957419    18A     -0.821060
      19A     -0.740638    20A     -0.710863    21A     -0.680744
      22A     -0.662315    23A     -0.650124    24A     -0.635631
      25A     -0.632657    26A     -0.571741    27A     -0.567656
      28A     -0.540222    29A     -0.516522    30A     -0.498267
      31A     -0.486348    32A     -0.469000    33A     -0.462474

  @DF-RHF Final Energy:  -720.28179776174807

   => Energetics <=

    Nuclear Repulsion Energy =            451.6823796424638999
    One-Electron Energy =               -1891.2459443457303223
    Two-Electron Energy =                 719.2817669415182991
    Total Energy =                       -720.2817977617480665
  Basis Set: (AUG-CC-PVTZ AUX)
    Blend: AUG-CC-PVTZ-RI
    Molecular point group: c1

    Geometry (in Angstrom), charge = 0, multiplicity = 1:

       Center              X                  Y                   Z               Mass
    ------------   -----------------  -----------------  -----------------  -----------------
         P           -0.036782200220     0.465822499903     0.059615603028    30.973761998420
         O            1.089706799780    -0.442513500097     0.750006603028    15.994914619570
         O           -1.026727100220    -0.604178000097    -0.647357896972    15.994914619570
         O            0.779017599780     1.147970699903    -1.167773396972    15.994914619570
         O           -0.705442200220     1.414851499903     0.972948603028    15.994914619570
         C            1.873829799780    -1.336744500097    -0.070781396972    12.000000000000
         C           -1.960134200220    -1.290490500097     0.139245603028    12.000000000000
         H            1.220566799780    -2.007476500097    -0.636482396972     1.007825032230
         H            2.488530799780    -1.906722500097     0.624355603028     1.007825032230
         H            2.501670799780    -0.760641500097    -0.754802396972     1.007825032230
         H           -2.644190200220    -0.579672500097     0.606512603028     1.007825032230
         H           -1.440706200220    -1.864361500097     0.911987603028     1.007825032230
         H           -2.498554200220    -1.962399500097    -0.524423396972     1.007825032230
         H            0.363502799780     1.984966499903    -1.411620396972     1.007825032230

  Basis Set: AUG-CC-PVTZ
    Blend: AUG-CC-PVTZ
  Basis Set: (AUG-CC-PVTZ AUX)
    Blend: AUG-CC-PVTZ-JKFIT
	 Reference Energy          =    -720.2817977617480665 [Eh]
	 Singles Energy            =      -0.0000000000000000 [Eh]
	 Same-Spin Energy          =      -0.4038347647042038 [Eh]
	 Opposite-Spin Energy      =      -1.2283673851955490 [Eh]
	 Correlation Energy        =      -1.6322021498997528 [Eh]
	 Total Energy              =    -721.9139999116478066 [Eh]

	 ================> DF-SCS-MP2 Energies <==================
	-----------------------------------------------------------
	 SCS Same-Spin Scale       =       0.3333333333333333 [-]
	 SCS Opposite-Spin Scale   =       1.2000000000000000 [-]
	 SCS Same-Spin Energy      =      -0.1346115882347346 [Eh]
	 SCS Opposite-Spin Energy  =      -1.4740408622346588 [Eh]
	 SCS Correlation Energy    =      -1.6086524504693933 [Eh]
	 SCS Total Energy          =    -721.8904502122175018 [Eh]
	-----------------------------------------------------------

  Dipole Moment: [D]
     X:     0.5678      Y:    -2.5274      Z:    -2.1977     Total:     3.3971

*** Psi4 exiting successfully. Buy a developer a beer!
