                               Psi4 1.3.2 release

  ==> Input File <==

--------------------------------------------------------------------------
#psi4
#
memory 32 gb

molecule  {
0 1
  P       -0.0357750     0.4680410     0.0705770
  O        1.0931410    -0.4465207     0.7486750
  O       -1.0048410    -0.5865790    -0.6866490
  O        0.7512110     1.1173330    -1.1929150
  O       -0.7117001     1.4212774     0.9741284
  C        1.8748370    -1.3345260    -0.0598200
  C       -1.9591270    -1.2882720     0.1502070
  H        1.2215740    -2.0052580    -0.6255210
  H        2.4895380    -1.9045040     0.6353170
  H        2.5026780    -0.7584230    -0.7438410
  H       -2.6431830    -0.5774540     0.6174740
  H       -1.4396990    -1.8621430     0.9229490
  H       -2.4975470    -1.9601810    -0.5134620
  H        0.3645100     1.9871850    -1.4006590
units angstrom
no_reorient  #important for SAPT in psi4, default
symmetry c1  #important for SAPT in psi4, default
}

set PROPERTIES_ORIGIN ["COM"]
properties('MP2/aug-cc-pvtz', properties = ['dipole'])
--------------------------------------------------------------------------

    Molecular point group: c1
  Charge       = 0
  Multiplicity = 1
  Basis Set: AUG-CC-PVTZ
    Blend: AUG-CC-PVTZ
  Basis Set: (AUG-CC-PVTZ AUX)
    Blend: AUG-CC-PVTZ-JKFIT

    Orbital Energies [Eh]
    ---------------------

    Doubly Occupied:

       1A    -80.110333     2A    -20.607959     3A    -20.598694
       4A    -20.595971     5A    -20.516740     6A    -11.299705
       7A    -11.298371     8A     -7.625788     9A     -5.524307
      10A     -5.523826    11A     -5.522779    12A     -1.451070
      13A     -1.384494    14A     -1.380334    15A     -1.297541
      16A     -0.973209    17A     -0.956940    18A     -0.817891
      19A     -0.732129    20A     -0.709738    21A     -0.679366
      22A     -0.656680    23A     -0.643402    24A     -0.633419
      25A     -0.629693    26A     -0.573183    27A     -0.560138
      28A     -0.542004    29A     -0.518273    30A     -0.499439
      31A     -0.488879    32A     -0.472052    33A     -0.465709

  @DF-RHF Final Energy:  -720.28174979099617

   => Energetics <=

    Nuclear Repulsion Energy =            451.3150121162050254
    One-Electron Energy =               -1890.6134164411955680
    Two-Electron Energy =                 719.0166545339943696
    Total Energy =                       -720.2817497909961730
  Basis Set: (AUG-CC-PVTZ AUX)
    Blend: AUG-CC-PVTZ-RI
    Molecular point group: c1

    Geometry (in Angstrom), charge = 0, multiplicity = 1:

       Center              X                  Y                   Z               Mass
    ------------   -----------------  -----------------  -----------------  -----------------
         P           -0.035160852947     0.468296980740     0.073379233100    30.973761998420
         O            1.093755147053    -0.446264719260     0.751477233100    15.994914619570
         O           -1.004226852947    -0.586323019260    -0.683846766900    15.994914619570
         O            0.751825147053     1.117588980740    -1.190112766900    15.994914619570
         O           -0.711085952947     1.421533380740     0.976930633100    15.994914619570
         C            1.875451147053    -1.334270019260    -0.057017766900    12.000000000000
         C           -1.958512852947    -1.288016019260     0.153009233100    12.000000000000
         H            1.222188147053    -2.005002019260    -0.622718766900     1.007825032230
         H            2.490152147053    -1.904248019260     0.638119233100     1.007825032230
         H            2.503292147053    -0.758167019260    -0.741038766900     1.007825032230
         H           -2.642568852947    -0.577198019260     0.620276233100     1.007825032230
         H           -1.439084852947    -1.861887019260     0.925751233100     1.007825032230
         H           -2.496932852947    -1.959925019260    -0.510659766900     1.007825032230
         H            0.365124147053     1.987440980740    -1.397856766900     1.007825032230

  Basis Set: AUG-CC-PVTZ
    Blend: AUG-CC-PVTZ
  Basis Set: (AUG-CC-PVTZ AUX)
    Blend: AUG-CC-PVTZ-JKFIT
	 Reference Energy          =    -720.2817497909961730 [Eh]
	 Singles Energy            =      -0.0000000000000000 [Eh]
	 Same-Spin Energy          =      -0.4042247830878263 [Eh]
	 Opposite-Spin Energy      =      -1.2296964372215111 [Eh]
	 Correlation Energy        =      -1.6339212203093374 [Eh]
	 Total Energy              =    -721.9156710113055624 [Eh]

	 ================> DF-SCS-MP2 Energies <==================
	-----------------------------------------------------------
	 SCS Same-Spin Scale       =       0.3333333333333333 [-]
	 SCS Opposite-Spin Scale   =       1.2000000000000000 [-]
	 SCS Same-Spin Energy      =      -0.1347415943626087 [Eh]
	 SCS Opposite-Spin Energy  =      -1.4756357246658134 [Eh]
	 SCS Correlation Energy    =      -1.6103773190284221 [Eh]
	 SCS Total Energy          =    -721.8921271100246031 [Eh]
	-----------------------------------------------------------

  Dipole Moment: [D]
     X:     0.4722      Y:    -2.5326      Z:    -1.8865     Total:     3.1931

*** Psi4 exiting successfully. Buy a developer a beer!
