                               Psi4 1.3.2 release

  ==> Input File <==

--------------------------------------------------------------------------
#psi4
#
memory 32 gb

molecule  {
0 1
  P       -0.0357750     0.4680410     0.0705770
  O        1.0907140    -0.4402950     0.7609680
  O       -1.0707752    -0.5513622    -0.6465668
  O        0.7512110     1.1173330    -1.1929150
  O       -0.7718902     1.3839306     0.9656859
  C        1.8748370    -1.3345260    -0.0598200
  C       -1.9591270    -1.2882720     0.1502070
  H        1.2215740    -2.0052580    -0.6255210
  H        2.4895380    -1.9045040     0.6353170
  H        2.5026780    -0.7584230    -0.7438410
  H       -2.6431830    -0.5774540     0.6174740
  H       -1.4396990    -1.8621430     0.9229490
  H       -2.4975470    -1.9601810    -0.5134620
  H        0.3645100     1.9871850    -1.4006590
units angstrom
no_reorient  #important for SAPT in psi4, default
symmetry c1  #important for SAPT in psi4, default
}

set PROPERTIES_ORIGIN ["COM"]
properties('MP2/aug-cc-pvtz', properties = ['dipole'])
--------------------------------------------------------------------------

    Molecular point group: c1
  Charge       = 0
  Multiplicity = 1
  Basis Set: AUG-CC-PVTZ
    Blend: AUG-CC-PVTZ
  Basis Set: (AUG-CC-PVTZ AUX)
    Blend: AUG-CC-PVTZ-JKFIT

    Orbital Energies [Eh]
    ---------------------

    Doubly Occupied:

       1A    -80.112246     2A    -20.615022     3A    -20.604573
       4A    -20.589423     5A    -20.512132     6A    -11.304909
       7A    -11.289261     8A     -7.627542     9A     -5.526059
      10A     -5.525530    11A     -5.524558    12A     -1.454201
      13A     -1.389969    14A     -1.387855    15A     -1.294511
      16A     -0.975127    17A     -0.956171    18A     -0.820477
      19A     -0.736417    20A     -0.711749    21A     -0.681354
      22A     -0.661798    23A     -0.646627    24A     -0.637007
      25A     -0.634343    26A     -0.572242    27A     -0.565277
      28A     -0.541654    29A     -0.516134    30A     -0.499108
      31A     -0.487136    32A     -0.468906    33A     -0.457770

  @DF-RHF Final Energy:  -720.27997155852074

   => Energetics <=

    Nuclear Repulsion Energy =            451.6842117763513329
    One-Electron Energy =               -1891.2741952196836337
    Two-Electron Energy =                 719.3100118848116153
    Total Energy =                       -720.2799715585207423
  Basis Set: (AUG-CC-PVTZ AUX)
    Blend: AUG-CC-PVTZ-RI
    Molecular point group: c1

    Geometry (in Angstrom), charge = 0, multiplicity = 1:

       Center              X                  Y                   Z               Mass
    ------------   -----------------  -----------------  -----------------  -----------------
         P           -0.018843128086     0.467777090971     0.067802613408    30.973761998420
         O            1.107645871914    -0.440558909029     0.758193613408    15.994914619570
         O           -1.053843328086    -0.551626109029    -0.649341186592    15.994914619570
         O            0.768142871914     1.117069090971    -1.195689386592    15.994914619570
         O           -0.754958328086     1.383666690971     0.962911513408    15.994914619570
         C            1.891768871914    -1.334789909029    -0.062594386592    12.000000000000
         C           -1.942195128086    -1.288535909029     0.147432613408    12.000000000000
         H            1.238505871914    -2.005521909029    -0.628295386592     1.007825032230
         H            2.506469871914    -1.904767909029     0.632542613408     1.007825032230
         H            2.519609871914    -0.758686909029    -0.746615386592     1.007825032230
         H           -2.626251128086    -0.577717909029     0.614699613408     1.007825032230
         H           -1.422767128086    -1.862406909029     0.920174613408     1.007825032230
         H           -2.480615128086    -1.960444909029    -0.516236386592     1.007825032230
         H            0.381441871914     1.986921090971    -1.403433386592     1.007825032230

  Basis Set: AUG-CC-PVTZ
    Blend: AUG-CC-PVTZ
  Basis Set: (AUG-CC-PVTZ AUX)
    Blend: AUG-CC-PVTZ-JKFIT
	 Reference Energy          =    -720.2799715585207423 [Eh]
	 Singles Energy            =      -0.0000000000000000 [Eh]
	 Same-Spin Energy          =      -0.4040240018713714 [Eh]
	 Opposite-Spin Energy      =      -1.2287889784765198 [Eh]
	 Correlation Energy        =      -1.6328129803478912 [Eh]
	 Total Energy              =    -721.9127845388686637 [Eh]

	 ================> DF-SCS-MP2 Energies <==================
	-----------------------------------------------------------
	 SCS Same-Spin Scale       =       0.3333333333333333 [-]
	 SCS Opposite-Spin Scale   =       1.2000000000000000 [-]
	 SCS Same-Spin Energy      =      -0.1346746672904571 [Eh]
	 SCS Opposite-Spin Energy  =      -1.4745467741718237 [Eh]
	 SCS Correlation Energy    =      -1.6092214414622807 [Eh]
	 SCS Total Energy          =    -721.8891929999830381 [Eh]
	-----------------------------------------------------------

  Dipole Moment: [D]
     X:     1.0039      Y:    -2.4563      Z:    -2.0556     Total:     3.3566

*** Psi4 exiting successfully. Buy a developer a beer!
