                               Psi4 1.3.2 release

  ==> Input File <==

--------------------------------------------------------------------------
#psi4
#
memory 32 gb

molecule  {
0 1
  P       -0.0357750     0.4680410     0.0705770
  O        1.0283035    -0.4735697     0.7341109
  O       -1.0048410    -0.5865790    -0.6866490
  O        0.7512110     1.1173330    -1.1929150
  O       -0.7044350     1.4170700     0.9839100
  C        1.8748370    -1.3345260    -0.0598200
  C       -1.9591270    -1.2882720     0.1502070
  H        1.1765801    -1.9796098    -0.6010739
  H        2.4895380    -1.9045040     0.6353170
  H        2.5026780    -0.7584230    -0.7438410
  H       -2.6431830    -0.5774540     0.6174740
  H       -1.4396990    -1.8621430     0.9229490
  H       -2.4975470    -1.9601810    -0.5134620
  H        0.3645100     1.9871850    -1.4006590
units angstrom
no_reorient  #important for SAPT in psi4, default
symmetry c1  #important for SAPT in psi4, default
}

set PROPERTIES_ORIGIN ["COM"]
properties('MP2/aug-cc-pvtz', properties = ['dipole'])
--------------------------------------------------------------------------

    Molecular point group: c1
  Charge       = 0
  Multiplicity = 1
  Basis Set: AUG-CC-PVTZ
    Blend: AUG-CC-PVTZ
  Basis Set: (AUG-CC-PVTZ AUX)
    Blend: AUG-CC-PVTZ-JKFIT

    Orbital Energies [Eh]
    ---------------------

    Doubly Occupied:

       1A    -80.105316     2A    -20.607985     3A    -20.596920
       4A    -20.590267     5A    -20.513765     6A    -11.304507
       7A    -11.295638     8A     -7.621513     9A     -5.520115
      10A     -5.519584    11A     -5.518456    12A     -1.454459
      13A     -1.386522    14A     -1.376865    15A     -1.294962
      16A     -0.976975    17A     -0.956277    18A     -0.816397
      19A     -0.732198    20A     -0.708814    21A     -0.684207
      22A     -0.655224    23A     -0.644381    24A     -0.630718
      25A     -0.630115    26A     -0.570478    27A     -0.560029
      28A     -0.543459    29A     -0.519530    30A     -0.500477
      31A     -0.487942    32A     -0.469655    33A     -0.462328

  @DF-RHF Final Energy:  -720.28135486958183

   => Energetics <=

    Nuclear Repulsion Energy =            452.9024154928671351
    One-Electron Energy =               -1893.8553850846512887
    Two-Electron Energy =                 720.6716147222022073
    Total Energy =                       -720.2813548695818326
  Basis Set: (AUG-CC-PVTZ AUX)
    Blend: AUG-CC-PVTZ-RI
    Molecular point group: c1

    Geometry (in Angstrom), charge = 0, multiplicity = 1:

       Center              X                  Y                   Z               Mass
    ------------   -----------------  -----------------  -----------------  -----------------
         P           -0.027493005663     0.472059391183     0.073790772044    30.973761998420
         O            1.036585494337    -0.469551308817     0.737324672044    15.994914619570
         O           -0.996559005663    -0.582560608817    -0.683435227956    15.994914619570
         O            0.759492994337     1.121351391183    -1.189701227956    15.994914619570
         O           -0.696153005663     1.421088391183     0.987123772044    15.994914619570
         C            1.883118994337    -1.330507608817    -0.056606227956    12.000000000000
         C           -1.950845005663    -1.284253608817     0.153420772044    12.000000000000
         H            1.184862094337    -1.975591408817    -0.597860127956     1.007825032230
         H            2.497819994337    -1.900485608817     0.638530772044     1.007825032230
         H            2.510959994337    -0.754404608817    -0.740627227956     1.007825032230
         H           -2.634901005663    -0.573435608817     0.620687772044     1.007825032230
         H           -1.431417005663    -1.858124608817     0.926162772044     1.007825032230
         H           -2.489265005663    -1.956162608817    -0.510248227956     1.007825032230
         H            0.372791994337     1.991203391183    -1.397445227956     1.007825032230

  Basis Set: AUG-CC-PVTZ
    Blend: AUG-CC-PVTZ
  Basis Set: (AUG-CC-PVTZ AUX)
    Blend: AUG-CC-PVTZ-JKFIT
	 Reference Energy          =    -720.2813548695818326 [Eh]
	 Singles Energy            =      -0.0000000000000000 [Eh]
	 Same-Spin Energy          =      -0.4039313979378778 [Eh]
	 Opposite-Spin Energy      =      -1.2287740584085447 [Eh]
	 Correlation Energy        =      -1.6327054563464225 [Eh]
	 Total Energy              =    -721.9140603259282898 [Eh]

	 ================> DF-SCS-MP2 Energies <==================
	-----------------------------------------------------------
	 SCS Same-Spin Scale       =       0.3333333333333333 [-]
	 SCS Opposite-Spin Scale   =       1.2000000000000000 [-]
	 SCS Same-Spin Energy      =      -0.1346437993126259 [Eh]
	 SCS Opposite-Spin Energy  =      -1.4745288700902537 [Eh]
	 SCS Correlation Energy    =      -1.6091726694028796 [Eh]
	 SCS Total Energy          =    -721.8905275389846565 [Eh]
	-----------------------------------------------------------

  Dipole Moment: [D]
     X:     0.7606      Y:    -2.5395      Z:    -1.8707     Total:     3.2445

*** Psi4 exiting successfully. Buy a developer a beer!
