                               Psi4 1.3.2 release

  ==> Input File <==

--------------------------------------------------------------------------
#psi4
#
memory 32 gb

molecule  {
0 1
  P       -0.0357750     0.4680410     0.0705770
  O        1.0907140    -0.4402950     0.7609680
  O       -1.0048410    -0.5865790    -0.6866490
  O        0.7657648     1.0650945    -1.2094231
  O       -0.7203526     1.3771036     1.0123297
  C        1.8748370    -1.3345260    -0.0598200
  C       -1.9591270    -1.2882720     0.1502070
  H        1.2215740    -2.0052580    -0.6255210
  H        2.4895380    -1.9045040     0.6353170
  H        2.5026780    -0.7584230    -0.7438410
  H       -2.6431830    -0.5774540     0.6174740
  H       -1.4396990    -1.8621430     0.9229490
  H       -2.4975470    -1.9601810    -0.5134620
  H        0.3645100     1.9871850    -1.4006590
units angstrom
no_reorient  #important for SAPT in psi4, default
symmetry c1  #important for SAPT in psi4, default
}

set PROPERTIES_ORIGIN ["COM"]
properties('MP2/aug-cc-pvtz', properties = ['dipole'])
--------------------------------------------------------------------------

    Molecular point group: c1
  Charge       = 0
  Multiplicity = 1
  Basis Set: AUG-CC-PVTZ
    Blend: AUG-CC-PVTZ
  Basis Set: (AUG-CC-PVTZ AUX)
    Blend: AUG-CC-PVTZ-JKFIT

    Orbital Energies [Eh]
    ---------------------

    Doubly Occupied:

       1A    -80.108869     2A    -20.616769     3A    -20.595051
       4A    -20.593507     5A    -20.518515     6A    -11.298652
       7A    -11.296109     8A     -7.624555     9A     -5.523095
      10A     -5.522553    11A     -5.521524    12A     -1.448059
      13A     -1.378333    14A     -1.375745    15A     -1.298527
      16A     -0.969859    17A     -0.954887    18A     -0.809933
      19A     -0.725454    20A     -0.706035    21A     -0.678298
      22A     -0.656628    23A     -0.637697    24A     -0.631085
      25A     -0.626642    26A     -0.574285    27A     -0.559996
      28A     -0.540828    29A     -0.517467    30A     -0.497783
      31A     -0.487516    32A     -0.473784    33A     -0.466043

  @DF-RHF Final Energy:  -720.27517954202654

   => Energetics <=

    Nuclear Repulsion Energy =            451.3654942271431310
    One-Electron Energy =               -1890.8131798709105169
    Two-Electron Energy =                 719.1725061017407370
    Total Energy =                       -720.2751795420265353
  Basis Set: (AUG-CC-PVTZ AUX)
    Blend: AUG-CC-PVTZ-RI
    Molecular point group: c1

    Geometry (in Angstrom), charge = 0, multiplicity = 1:

       Center              X                  Y                   Z               Mass
    ------------   -----------------  -----------------  -----------------  -----------------
         P           -0.035601864990     0.479744862831     0.069065177461    30.973761998420
         O            1.090887135010    -0.428591137169     0.759456177461    15.994914619570
         O           -1.004667864990    -0.574875137169    -0.688160822539    15.994914619570
         O            0.765937935010     1.076798362831    -1.210934922539    15.994914619570
         O           -0.720179464990     1.388807462831     1.010817877461    15.994914619570
         C            1.875010135010    -1.322822137169    -0.061331822539    12.000000000000
         C           -1.958953864990    -1.276568137169     0.148695177461    12.000000000000
         H            1.221747135010    -1.993554137169    -0.627032822539     1.007825032230
         H            2.489711135010    -1.892800137169     0.633805177461     1.007825032230
         H            2.502851135010    -0.746719137169    -0.745352822539     1.007825032230
         H           -2.643009864990    -0.565750137169     0.615962177461     1.007825032230
         H           -1.439525864990    -1.850439137169     0.921437177461     1.007825032230
         H           -2.497373864990    -1.948477137169    -0.514973822539     1.007825032230
         H            0.364683135010     1.998888862831    -1.402170822539     1.007825032230

  Basis Set: AUG-CC-PVTZ
    Blend: AUG-CC-PVTZ
  Basis Set: (AUG-CC-PVTZ AUX)
    Blend: AUG-CC-PVTZ-JKFIT
	 Reference Energy          =    -720.2751795420265353 [Eh]
	 Singles Energy            =      -0.0000000000000000 [Eh]
	 Same-Spin Energy          =      -0.4051933687696684 [Eh]
	 Opposite-Spin Energy      =      -1.2319898730667436 [Eh]
	 Correlation Energy        =      -1.6371832418364121 [Eh]
	 Total Energy              =    -721.9123627838629318 [Eh]

	 ================> DF-SCS-MP2 Energies <==================
	-----------------------------------------------------------
	 SCS Same-Spin Scale       =       0.3333333333333333 [-]
	 SCS Opposite-Spin Scale   =       1.2000000000000000 [-]
	 SCS Same-Spin Energy      =      -0.1350644562565561 [Eh]
	 SCS Opposite-Spin Energy  =      -1.4783878476800922 [Eh]
	 SCS Correlation Energy    =      -1.6134523039366484 [Eh]
	 SCS Total Energy          =    -721.8886318459632321 [Eh]
	-----------------------------------------------------------

  Dipole Moment: [D]
     X:     0.5038      Y:    -2.2653      Z:    -2.0089     Total:     3.0693

*** Psi4 exiting successfully. Buy a developer a beer!
