                               Psi4 1.3.2 release

  ==> Input File <==

--------------------------------------------------------------------------
#psi4
#
memory 32 gb

molecule  {
0 1
  P       -0.0357750     0.4680410     0.0705770
  O        1.0954821    -0.4526768     0.7363304
  O       -1.0048410    -0.5865790    -0.6866490
  O        0.7512110     1.1173330    -1.1929150
  O       -0.7189137     1.4254122     0.9642780
  C        1.8748370    -1.3345260    -0.0598200
  C       -1.9591270    -1.2882720     0.1502070
  H        1.2215740    -2.0052580    -0.6255210
  H        2.4895380    -1.9045040     0.6353170
  H        2.5026780    -0.7584230    -0.7438410
  H       -2.6431830    -0.5774540     0.6174740
  H       -1.4396990    -1.8621430     0.9229490
  H       -2.4975470    -1.9601810    -0.5134620
  H        0.3645100     1.9871850    -1.4006590
units angstrom
no_reorient  #important for SAPT in psi4, default
symmetry c1  #important for SAPT in psi4, default
}

set PROPERTIES_ORIGIN ["COM"]
properties('MP2/aug-cc-pvtz', properties = ['dipole'])
--------------------------------------------------------------------------

    Molecular point group: c1
  Charge       = 0
  Multiplicity = 1
  Basis Set: AUG-CC-PVTZ
    Blend: AUG-CC-PVTZ
  Basis Set: (AUG-CC-PVTZ AUX)
    Blend: AUG-CC-PVTZ-JKFIT

    Orbital Energies [Eh]
    ---------------------

    Doubly Occupied:

       1A    -80.111115     2A    -20.607524     3A    -20.598720
       4A    -20.595467     5A    -20.518054     6A    -11.298558
       7A    -11.298285     8A     -7.626506     9A     -5.525058
      10A     -5.524557    11A     -5.523479    12A     -1.452307
      13A     -1.386580    14A     -1.380115    15A     -1.298657
      16A     -0.974093    17A     -0.956755    18A     -0.817957
      19A     -0.732500    20A     -0.710812    21A     -0.680496
      22A     -0.657227    23A     -0.644531    24A     -0.634037
      25A     -0.630573    26A     -0.574043    27A     -0.559742
      28A     -0.541306    29A     -0.517599    30A     -0.498819
      31A     -0.487989    32A     -0.473154    33A     -0.466419

  @DF-RHF Final Energy:  -720.28169189508822

   => Energetics <=

    Nuclear Repulsion Energy =            451.5239676595014089
    One-Electron Energy =               -1891.0052494583860607
    Two-Electron Energy =                 719.1995899037963227
    Total Energy =                       -720.2816918950882155
  Basis Set: (AUG-CC-PVTZ AUX)
    Blend: AUG-CC-PVTZ-RI
    Molecular point group: c1

    Geometry (in Angstrom), charge = 0, multiplicity = 1:

       Center              X                  Y                   Z               Mass
    ------------   -----------------  -----------------  -----------------  -----------------
         P           -0.034542359673     0.468553555487     0.076196566750    30.973761998420
         O            1.096714740327    -0.452164244513     0.741949966750    15.994914619570
         O           -1.003608359673    -0.586066444513    -0.681029433250    15.994914619570
         O            0.752443640327     1.117845555487    -1.187295433250    15.994914619570
         O           -0.717681059673     1.425924755487     0.969897566750    15.994914619570
         C            1.876069640327    -1.334013444513    -0.054200433250    12.000000000000
         C           -1.957894359673    -1.287759444513     0.155826566750    12.000000000000
         H            1.222806640327    -2.004745444513    -0.619901433250     1.007825032230
         H            2.490770640327    -1.903991444513     0.640936566750     1.007825032230
         H            2.503910640327    -0.757910444513    -0.738221433250     1.007825032230
         H           -2.641950359673    -0.576941444513     0.623093566750     1.007825032230
         H           -1.438466359673    -1.861630444513     0.928568566750     1.007825032230
         H           -2.496314359673    -1.959668444513    -0.507842433250     1.007825032230
         H            0.365742640327     1.987697555487    -1.395039433250     1.007825032230

  Basis Set: AUG-CC-PVTZ
    Blend: AUG-CC-PVTZ
  Basis Set: (AUG-CC-PVTZ AUX)
    Blend: AUG-CC-PVTZ-JKFIT
	 Reference Energy          =    -720.2816918950882155 [Eh]
	 Singles Energy            =      -0.0000000000000000 [Eh]
	 Same-Spin Energy          =      -0.4041926553022781 [Eh]
	 Opposite-Spin Energy      =      -1.2294602450905878 [Eh]
	 Correlation Energy        =      -1.6336529003928659 [Eh]
	 Total Energy              =    -721.9153447954811327 [Eh]

	 ================> DF-SCS-MP2 Energies <==================
	-----------------------------------------------------------
	 SCS Same-Spin Scale       =       0.3333333333333333 [-]
	 SCS Opposite-Spin Scale   =       1.2000000000000000 [-]
	 SCS Same-Spin Energy      =      -0.1347308851007594 [Eh]
	 SCS Opposite-Spin Energy  =      -1.4753522941087054 [Eh]
	 SCS Correlation Energy    =      -1.6100831792094648 [Eh]
	 SCS Total Energy          =    -721.8917750742976978 [Eh]
	-----------------------------------------------------------

  Dipole Moment: [D]
     X:     0.4648      Y:    -2.5032      Z:    -1.8221     Total:     3.1309

*** Psi4 exiting successfully. Buy a developer a beer!
