                               Psi4 1.3.2 release

  ==> Input File <==

--------------------------------------------------------------------------
#psi4
#
memory 32 gb

molecule  {
0 1
  P       -0.0357750     0.4680410     0.0705770
  O        1.0907140    -0.4402950     0.7609680
  O       -1.0048410    -0.5865790    -0.6866490
  O        0.7996711     1.1573143    -1.2707168
  O       -0.7044350     1.4170700     0.9839100
  C        1.8748370    -1.3345260    -0.0598200
  C       -1.9591270    -1.2882720     0.1502070
  H        1.2215740    -2.0052580    -0.6255210
  H        2.4895380    -1.9045040     0.6353170
  H        2.5026780    -0.7584230    -0.7438410
  H       -2.6431830    -0.5774540     0.6174740
  H       -1.4396990    -1.8621430     0.9229490
  H       -2.4975470    -1.9601810    -0.5134620
  H        0.3645100     1.9871850    -1.4006590
units angstrom
no_reorient  #important for SAPT in psi4, default
symmetry c1  #important for SAPT in psi4, default
}

set PROPERTIES_ORIGIN ["COM"]
properties('MP2/aug-cc-pvtz', properties = ['dipole'])
--------------------------------------------------------------------------

    Molecular point group: c1
  Charge       = 0
  Multiplicity = 1
  Basis Set: AUG-CC-PVTZ
    Blend: AUG-CC-PVTZ
  Basis Set: (AUG-CC-PVTZ AUX)
    Blend: AUG-CC-PVTZ-JKFIT

    Orbital Energies [Eh]
    ---------------------

    Doubly Occupied:

       1A    -80.120286     2A    -20.604588     3A    -20.602267
       4A    -20.602182     5A    -20.524168     6A    -11.303109
       7A    -11.302441     8A     -7.634406     9A     -5.532757
      10A     -5.532398    11A     -5.531350    12A     -1.444881
      13A     -1.385521    14A     -1.370323    15A     -1.303388
      16A     -0.975528    17A     -0.960326    18A     -0.807938
      19A     -0.726808    20A     -0.707314    21A     -0.680002
      22A     -0.654536    23A     -0.643667    24A     -0.635700
      25A     -0.626522    26A     -0.575235    27A     -0.549437
      28A     -0.546234    29A     -0.521941    30A     -0.502902
      31A     -0.494047    32A     -0.476055    33A     -0.471184

  @DF-RHF Final Energy:  -720.26995641321105

   => Energetics <=

    Nuclear Repulsion Energy =            447.3691905587803035
    One-Electron Energy =               -1882.5794059573897812
    Two-Electron Energy =                 714.9402589853984864
    Total Energy =                       -720.2699564132110481
  Basis Set: (AUG-CC-PVTZ AUX)
    Blend: AUG-CC-PVTZ-RI
    Molecular point group: c1

    Geometry (in Angstrom), charge = 0, multiplicity = 1:

       Center              X                  Y                   Z               Mass
    ------------   -----------------  -----------------  -----------------  -----------------
         P           -0.041926287160     0.462965740083     0.080452993668    30.973761998420
         O            1.084562712840    -0.445370259917     0.770843993668    15.994914619570
         O           -1.010992287160    -0.591654259917    -0.676773006332    15.994914619570
         O            0.793519812840     1.152239040083    -1.260840806332    15.994914619570
         O           -0.710586287160     1.411994740083     0.993785993668    15.994914619570
         C            1.868685712840    -1.339601259917    -0.049944006332    12.000000000000
         C           -1.965278287160    -1.293347259917     0.160082993668    12.000000000000
         H            1.215422712840    -2.010333259917    -0.615645006332     1.007825032230
         H            2.483386712840    -1.909579259917     0.645192993668     1.007825032230
         H            2.496526712840    -0.763498259917    -0.733965006332     1.007825032230
         H           -2.649334287160    -0.582529259917     0.627349993668     1.007825032230
         H           -1.445850287160    -1.867218259917     0.932824993668     1.007825032230
         H           -2.503698287160    -1.965256259917    -0.503586006332     1.007825032230
         H            0.358358712840     1.982109740083    -1.390783006332     1.007825032230

  Basis Set: AUG-CC-PVTZ
    Blend: AUG-CC-PVTZ
  Basis Set: (AUG-CC-PVTZ AUX)
    Blend: AUG-CC-PVTZ-JKFIT
	 Reference Energy          =    -720.2699564132110481 [Eh]
	 Singles Energy            =      -0.0000000000000000 [Eh]
	 Same-Spin Energy          =      -0.4049301072680271 [Eh]
	 Opposite-Spin Energy      =      -1.2326912702663209 [Eh]
	 Correlation Energy        =      -1.6376213775343480 [Eh]
	 Total Energy              =    -721.9075777907454494 [Eh]

	 ================> DF-SCS-MP2 Energies <==================
	-----------------------------------------------------------
	 SCS Same-Spin Scale       =       0.3333333333333333 [-]
	 SCS Opposite-Spin Scale   =       1.2000000000000000 [-]
	 SCS Same-Spin Energy      =      -0.1349767024226757 [Eh]
	 SCS Opposite-Spin Energy  =      -1.4792295243195850 [Eh]
	 SCS Correlation Energy    =      -1.6142062267422608 [Eh]
	 SCS Total Energy          =    -721.8841626399532743 [Eh]
	-----------------------------------------------------------

  Dipole Moment: [D]
     X:     0.2250      Y:    -2.8906      Z:    -1.4898     Total:     3.2597

*** Psi4 exiting successfully. Buy a developer a beer!
