                               Psi4 1.3.2 release

  ==> Input File <==

--------------------------------------------------------------------------
#psi4
#
memory 32 gb

molecule  {
0 1
  P       -0.0357750     0.4680410     0.0705770
  O        1.0907140    -0.4402950     0.7609680
  O       -1.0048410    -0.5865790    -0.6866490
  O        0.7512110     1.1173330    -1.1929150
  O       -0.6591678     1.3528222     0.9220788
  C        1.8748370    -1.3345260    -0.0598200
  C       -1.9591270    -1.2882720     0.1502070
  H        1.2215740    -2.0052580    -0.6255210
  H        2.4895380    -1.9045040     0.6353170
  H        2.5026780    -0.7584230    -0.7438410
  H       -2.6431830    -0.5774540     0.6174740
  H       -1.4396990    -1.8621430     0.9229490
  H       -2.4975470    -1.9601810    -0.5134620
  H        0.3645100     1.9871850    -1.4006590
units angstrom
no_reorient  #important for SAPT in psi4, default
symmetry c1  #important for SAPT in psi4, default
}

set PROPERTIES_ORIGIN ["COM"]
properties('MP2/aug-cc-pvtz', properties = ['dipole'])
--------------------------------------------------------------------------

    Molecular point group: c1
  Charge       = 0
  Multiplicity = 1
  Basis Set: AUG-CC-PVTZ
    Blend: AUG-CC-PVTZ
  Basis Set: (AUG-CC-PVTZ AUX)
    Blend: AUG-CC-PVTZ-JKFIT

    Orbital Energies [Eh]
    ---------------------

    Doubly Occupied:

       1A    -80.087617     2A    -20.600906     3A    -20.592074
       4A    -20.589247     5A    -20.511596     6A    -11.296620
       7A    -11.296117     8A     -7.609189     9A     -5.507616
      10A     -5.506699    11A     -5.506296    12A     -1.451825
      13A     -1.376775    14A     -1.374586    15A     -1.338525
      16A     -0.967529    17A     -0.953621    18A     -0.811052
      19A     -0.727942    20A     -0.707019    21A     -0.673838
      22A     -0.655767    23A     -0.638602    24A     -0.630043
      25A     -0.625310    26A     -0.586974    27A     -0.556361
      28A     -0.542934    29A     -0.522434    30A     -0.499153
      31A     -0.491759    32A     -0.488209    33A     -0.475433

  @DF-RHF Final Energy:  -720.27733087728416

   => Energetics <=

    Nuclear Repulsion Energy =            455.9352770132513228
    One-Electron Energy =               -1900.0258786218569185
    Two-Electron Energy =                 723.8132707313213814
    Total Energy =                       -720.2773308772841574
  Basis Set: (AUG-CC-PVTZ AUX)
    Blend: AUG-CC-PVTZ-RI
    Molecular point group: c1

    Geometry (in Angstrom), charge = 0, multiplicity = 1:

       Center              X                  Y                   Z               Mass
    ------------   -----------------  -----------------  -----------------  -----------------
         P           -0.041520994770     0.476196114077     0.078425757407    30.973761998420
         O            1.084968005230    -0.432139885923     0.768816757407    15.994914619570
         O           -1.010586994770    -0.578423885923    -0.678800242593    15.994914619570
         O            0.745465005230     1.125488114077    -1.185066242593    15.994914619570
         O           -0.664913794770     1.360977314077     0.929927557407    15.994914619570
         C            1.869091005230    -1.326370885923    -0.051971242593    12.000000000000
         C           -1.964872994770    -1.280116885923     0.158055757407    12.000000000000
         H            1.215828005230    -1.997102885923    -0.617672242593     1.007825032230
         H            2.483792005230    -1.896348885923     0.643165757407     1.007825032230
         H            2.496932005230    -0.750267885923    -0.735992242593     1.007825032230
         H           -2.648928994770    -0.569298885923     0.625322757407     1.007825032230
         H           -1.445444994770    -1.853987885923     0.930797757407     1.007825032230
         H           -2.503292994770    -1.952025885923    -0.505613242593     1.007825032230
         H            0.358764005230     1.995340114077    -1.392810242593     1.007825032230

  Basis Set: AUG-CC-PVTZ
    Blend: AUG-CC-PVTZ
  Basis Set: (AUG-CC-PVTZ AUX)
    Blend: AUG-CC-PVTZ-JKFIT
	 Reference Energy          =    -720.2773308772841574 [Eh]
	 Singles Energy            =      -0.0000000000000000 [Eh]
	 Same-Spin Energy          =      -0.4018612831801076 [Eh]
	 Opposite-Spin Energy      =      -1.2243410460586608 [Eh]
	 Correlation Energy        =      -1.6262023292387684 [Eh]
	 Total Energy              =    -721.9035332065229795 [Eh]

	 ================> DF-SCS-MP2 Energies <==================
	-----------------------------------------------------------
	 SCS Same-Spin Scale       =       0.3333333333333333 [-]
	 SCS Opposite-Spin Scale   =       1.2000000000000000 [-]
	 SCS Same-Spin Energy      =      -0.1339537610600359 [Eh]
	 SCS Opposite-Spin Energy  =      -1.4692092552703928 [Eh]
	 SCS Correlation Energy    =      -1.6031630163304287 [Eh]
	 SCS Total Energy          =    -721.8804938936145845 [Eh]
	-----------------------------------------------------------

  Dipole Moment: [D]
     X:     0.2654      Y:    -2.2158      Z:    -1.6489     Total:     2.7747

*** Psi4 exiting successfully. Buy a developer a beer!
