                               Psi4 1.3.2 release

  ==> Input File <==

--------------------------------------------------------------------------
#psi4
#
memory 32 gb

molecule  {
0 1
  P       -0.0357750     0.4680410     0.0705770
  O        1.0907140    -0.4402950     0.7609680
  O       -1.0384975    -0.5214285    -0.6669558
  O        0.7512110     1.1173330    -1.1929150
  O       -0.7044350     1.4170700     0.9839100
  C        1.8748370    -1.3345260    -0.0598200
  C       -1.9591270    -1.2882720     0.1502070
  H        1.2215740    -2.0052580    -0.6255210
  H        2.4895380    -1.9045040     0.6353170
  H        2.5026780    -0.7584230    -0.7438410
  H       -2.6153359    -0.5353460     0.5906903
  H       -1.4396990    -1.8621430     0.9229490
  H       -2.4975470    -1.9601810    -0.5134620
  H        0.3645100     1.9871850    -1.4006590
units angstrom
no_reorient  #important for SAPT in psi4, default
symmetry c1  #important for SAPT in psi4, default
}

set PROPERTIES_ORIGIN ["COM"]
properties('MP2/aug-cc-pvtz', properties = ['dipole'])
--------------------------------------------------------------------------

    Molecular point group: c1
  Charge       = 0
  Multiplicity = 1
  Basis Set: AUG-CC-PVTZ
    Blend: AUG-CC-PVTZ
  Basis Set: (AUG-CC-PVTZ AUX)
    Blend: AUG-CC-PVTZ-JKFIT

    Orbital Energies [Eh]
    ---------------------

    Doubly Occupied:

       1A    -80.105569     2A    -20.606321     3A    -20.599622
       4A    -20.595077     5A    -20.509049     6A    -11.302122
       7A    -11.301049     8A     -7.621611     9A     -5.520093
      10A     -5.519688    11A     -5.518612    12A     -1.452517
      13A     -1.385650    14A     -1.381571    15A     -1.291373
      16A     -0.975380    17A     -0.959935    18A     -0.816570
      19A     -0.733103    20A     -0.709724    21A     -0.680341
      22A     -0.659085    23A     -0.642718    24A     -0.636661
      25A     -0.630147    26A     -0.571193    27A     -0.557653
      28A     -0.543537    29A     -0.519614    30A     -0.501179
      31A     -0.492733    32A     -0.466234    33A     -0.459414

  @DF-RHF Final Energy:  -720.28184887701957

   => Energetics <=

    Nuclear Repulsion Energy =            452.1206600407753626
    One-Electron Energy =               -1892.2747271968980840
    Two-Electron Energy =                 719.8722182791030946
    Total Energy =                       -720.2818488770195700
  Basis Set: (AUG-CC-PVTZ AUX)
    Blend: AUG-CC-PVTZ-RI
    Molecular point group: c1

    Geometry (in Angstrom), charge = 0, multiplicity = 1:

       Center              X                  Y                   Z               Mass
    ------------   -----------------  -----------------  -----------------  -----------------
         P           -0.031725498281     0.459434091217     0.068291634567    30.973761998420
         O            1.094763501719    -0.448901908783     0.758682634567    15.994914619570
         O           -1.034447998281    -0.530035408783    -0.669241165433    15.994914619570
         O            0.755260501719     1.108726091217    -1.195200365433    15.994914619570
         O           -0.700385498281     1.408463091217     0.981624634567    15.994914619570
         C            1.878886501719    -1.343132908783    -0.062105365433    12.000000000000
         C           -1.955077498281    -1.296878908783     0.147921634567    12.000000000000
         H            1.225623501719    -2.013864908783    -0.627806365433     1.007825032230
         H            2.493587501719    -1.913110908783     0.633031634567     1.007825032230
         H            2.506727501719    -0.767029908783    -0.746126365433     1.007825032230
         H           -2.611286398281    -0.543952908783     0.588404934567     1.007825032230
         H           -1.435649498281    -1.870749908783     0.920663634567     1.007825032230
         H           -2.493497498281    -1.968787908783    -0.515747365433     1.007825032230
         H            0.368559501719     1.978578091217    -1.402944365433     1.007825032230

  Basis Set: AUG-CC-PVTZ
    Blend: AUG-CC-PVTZ
  Basis Set: (AUG-CC-PVTZ AUX)
    Blend: AUG-CC-PVTZ-JKFIT
	 Reference Energy          =    -720.2818488770195700 [Eh]
	 Singles Energy            =      -0.0000000000000000 [Eh]
	 Same-Spin Energy          =      -0.4038185184062910 [Eh]
	 Opposite-Spin Energy      =      -1.2287225830304631 [Eh]
	 Correlation Energy        =      -1.6325411014367541 [Eh]
	 Total Energy              =    -721.9143899784563700 [Eh]

	 ================> DF-SCS-MP2 Energies <==================
	-----------------------------------------------------------
	 SCS Same-Spin Scale       =       0.3333333333333333 [-]
	 SCS Opposite-Spin Scale   =       1.2000000000000000 [-]
	 SCS Same-Spin Energy      =      -0.1346061728020970 [Eh]
	 SCS Opposite-Spin Energy  =      -1.4744670996365556 [Eh]
	 SCS Correlation Energy    =      -1.6090732724386527 [Eh]
	 SCS Total Energy          =    -721.8909221494582198 [Eh]
	-----------------------------------------------------------

  Dipole Moment: [D]
     X:     0.4882      Y:    -2.8145      Z:    -2.0311     Total:     3.5050

*** Psi4 exiting successfully. Buy a developer a beer!
