                               Psi4 1.3.2 release

  ==> Input File <==

--------------------------------------------------------------------------
#psi4
#
memory 32 gb

molecule  {
0 1
  P        0.0002166     0.4852943    -0.0042632
  O        1.0907140    -0.4402950     0.7609680
  O       -1.0048410    -0.5865790    -0.6866490
  O        0.7512110     1.1173330    -1.1929150
  O       -0.7044350     1.4170700     0.9839100
  C        1.8748370    -1.3345260    -0.0598200
  C       -1.9839547    -1.3243628     0.0881892
  H        1.2215740    -2.0052580    -0.6255210
  H        2.4895380    -1.9045040     0.6353170
  H        2.5026780    -0.7584230    -0.7438410
  H       -2.6431830    -0.5774540     0.6174740
  H       -1.4396990    -1.8621430     0.9229490
  H       -2.4975470    -1.9601810    -0.5134620
  H        0.3645100     1.9871850    -1.4006590
units angstrom
no_reorient  #important for SAPT in psi4, default
symmetry c1  #important for SAPT in psi4, default
}

set PROPERTIES_ORIGIN ["COM"]
properties('MP2/aug-cc-pvtz', properties = ['dipole'])
--------------------------------------------------------------------------

    Molecular point group: c1
  Charge       = 0
  Multiplicity = 1
  Basis Set: AUG-CC-PVTZ
    Blend: AUG-CC-PVTZ
  Basis Set: (AUG-CC-PVTZ AUX)
    Blend: AUG-CC-PVTZ-JKFIT

    Orbital Energies [Eh]
    ---------------------

    Doubly Occupied:

       1A    -80.112593     2A    -20.631278     3A    -20.595415
       4A    -20.590891     5A    -20.504472     6A    -11.298559
       7A    -11.297525     8A     -7.627586     9A     -5.526426
      10A     -5.525621    11A     -5.524241    12A     -1.470379
      13A     -1.399215    14A     -1.374291    15A     -1.264544
      16A     -0.972340    17A     -0.955059    18A     -0.840304
      19A     -0.737201    20A     -0.710299    21A     -0.685790
      22A     -0.666910    23A     -0.652220    24A     -0.635157
      25A     -0.620612    26A     -0.589890    27A     -0.562598
      28A     -0.534233    29A     -0.517051    30A     -0.491796
      31A     -0.478378    32A     -0.451491    33A     -0.445326

  @DF-RHF Final Energy:  -720.26502838800866

   => Energetics <=

    Nuclear Repulsion Energy =            450.5605866376964741
    One-Electron Energy =               -1889.0718495291014278
    Two-Electron Energy =                 718.2462345033961810
    Total Energy =                       -720.2650283880086590
  Basis Set: (AUG-CC-PVTZ AUX)
    Blend: AUG-CC-PVTZ-RI
    Molecular point group: c1

    Geometry (in Angstrom), charge = 0, multiplicity = 1:

       Center              X                  Y                   Z               Mass
    ------------   -----------------  -----------------  -----------------  -----------------
         P           -0.006265996486     0.484490091414     0.020039339372    30.973761998420
         O            1.084231403514    -0.441099208586     0.785270539372    15.994914619570
         O           -1.011323596486    -0.587383208586    -0.662346460628    15.994914619570
         O            0.744728403514     1.116528791414    -1.168612460628    15.994914619570
         O           -0.710917596486     1.416265791414     1.008212539372    15.994914619570
         C            1.868354403514    -1.335330208586    -0.035517460628    12.000000000000
         C           -1.990437296486    -1.325167008586     0.112491739372    12.000000000000
         H            1.215091403514    -2.006062208586    -0.601218460628     1.007825032230
         H            2.483055403514    -1.905308208586     0.659619539372     1.007825032230
         H            2.496195403514    -0.759227208586    -0.719538460628     1.007825032230
         H           -2.649665596486    -0.578258208586     0.641776539372     1.007825032230
         H           -1.446181596486    -1.862947208586     0.947251539372     1.007825032230
         H           -2.504029596486    -1.960985208586    -0.489159460628     1.007825032230
         H            0.358027403514     1.986380791414    -1.376356460628     1.007825032230

  Basis Set: AUG-CC-PVTZ
    Blend: AUG-CC-PVTZ
  Basis Set: (AUG-CC-PVTZ AUX)
    Blend: AUG-CC-PVTZ-JKFIT
	 Reference Energy          =    -720.2650283880086590 [Eh]
	 Singles Energy            =      -0.0000000000000000 [Eh]
	 Same-Spin Energy          =      -0.4047887933880887 [Eh]
	 Opposite-Spin Energy      =      -1.2305475592214630 [Eh]
	 Correlation Energy        =      -1.6353363526095517 [Eh]
	 Total Energy              =    -721.9003647406182154 [Eh]

	 ================> DF-SCS-MP2 Energies <==================
	-----------------------------------------------------------
	 SCS Same-Spin Scale       =       0.3333333333333333 [-]
	 SCS Opposite-Spin Scale   =       1.2000000000000000 [-]
	 SCS Same-Spin Energy      =      -0.1349295977960295 [Eh]
	 SCS Opposite-Spin Energy  =      -1.4766570710657556 [Eh]
	 SCS Correlation Energy    =      -1.6115866688617850 [Eh]
	 SCS Total Energy          =    -721.8766150568704916 [Eh]
	-----------------------------------------------------------

  Dipole Moment: [D]
     X:     0.7888      Y:    -2.3645      Z:    -2.7178     Total:     3.6877

*** Psi4 exiting successfully. Buy a developer a beer!
