                               Psi4 1.3.2 release

  ==> Input File <==

--------------------------------------------------------------------------
#psi4
#
memory 32 gb

molecule  {
0 1
  P       -0.0534772     0.4997342     0.1462623
  O        1.0907140    -0.4402950     0.7609680
  O       -1.0048410    -0.5865790    -0.6866490
  O        0.7512110     1.1173330    -1.1929150
  O       -0.7044350     1.4170700     0.9839100
  C        1.9117123    -1.3562516     0.0025643
  C       -1.9591270    -1.2882720     0.1502070
  H        1.2215740    -2.0052580    -0.6255210
  H        2.4895380    -1.9045040     0.6353170
  H        2.5026780    -0.7584230    -0.7438410
  H       -2.6431830    -0.5774540     0.6174740
  H       -1.4396990    -1.8621430     0.9229490
  H       -2.4975470    -1.9601810    -0.5134620
  H        0.3645100     1.9871850    -1.4006590
units angstrom
no_reorient  #important for SAPT in psi4, default
symmetry c1  #important for SAPT in psi4, default
}

set PROPERTIES_ORIGIN ["COM"]
properties('MP2/aug-cc-pvtz', properties = ['dipole'])
--------------------------------------------------------------------------

    Molecular point group: c1
  Charge       = 0
  Multiplicity = 1
  Basis Set: AUG-CC-PVTZ
    Blend: AUG-CC-PVTZ
  Basis Set: (AUG-CC-PVTZ AUX)
    Blend: AUG-CC-PVTZ-JKFIT

    Orbital Energies [Eh]
    ---------------------

    Doubly Occupied:

       1A    -80.107407     2A    -20.595756     3A    -20.595741
       4A    -20.588437     5A    -20.532067     6A    -11.301785
       7A    -11.292723     8A     -7.624891     9A     -5.522963
      10A     -5.522645    11A     -5.522443    12A     -1.440601
      13A     -1.372043    14A     -1.359493    15A     -1.340330
      16A     -0.973000    17A     -0.949362    18A     -0.802543
      19A     -0.718412    20A     -0.700477    21A     -0.679596
      22A     -0.649993    23A     -0.644679    24A     -0.626647
      25A     -0.616693    26A     -0.590266    27A     -0.546295
      28A     -0.544036    29A     -0.520136    30A     -0.503277
      31A     -0.493883    32A     -0.482957    33A     -0.473911

  @DF-RHF Final Energy:  -720.26211243581463

   => Energetics <=

    Nuclear Repulsion Energy =            449.8601733992451273
    One-Electron Energy =               -1887.7735978270150099
    Two-Electron Energy =                 717.6513119919551400
    Total Energy =                       -720.2621124358146290
  Basis Set: (AUG-CC-PVTZ AUX)
    Blend: AUG-CC-PVTZ-RI
    Molecular point group: c1

    Geometry (in Angstrom), charge = 0, multiplicity = 1:

       Center              X                  Y                   Z               Mass
    ------------   -----------------  -----------------  -----------------  -----------------
         P           -0.052637550685     0.494012530114     0.121717491171    30.973761998420
         O            1.091553649315    -0.446016669886     0.736423191171    15.994914619570
         O           -1.004001350685    -0.592300669886    -0.711193808829    15.994914619570
         O            0.752050649315     1.111611330114    -1.217459808829    15.994914619570
         O           -0.703595350685     1.411348330114     0.959365191171    15.994914619570
         C            1.912551949315    -1.361973269886    -0.021980508829    12.000000000000
         C           -1.958287350685    -1.293993669886     0.125662191171    12.000000000000
         H            1.222413649315    -2.010979669886    -0.650065808829     1.007825032230
         H            2.490377649315    -1.910225669886     0.610772191171     1.007825032230
         H            2.503517649315    -0.764144669886    -0.768385808829     1.007825032230
         H           -2.642343350685    -0.583175669886     0.592929191171     1.007825032230
         H           -1.438859350685    -1.867864669886     0.898404191171     1.007825032230
         H           -2.496707350685    -1.965902669886    -0.538006808829     1.007825032230
         H            0.365349649315     1.981463330114    -1.425203808829     1.007825032230

  Basis Set: AUG-CC-PVTZ
    Blend: AUG-CC-PVTZ
  Basis Set: (AUG-CC-PVTZ AUX)
    Blend: AUG-CC-PVTZ-JKFIT
	 Reference Energy          =    -720.2621124358146290 [Eh]
	 Singles Energy            =      -0.0000000000000000 [Eh]
	 Same-Spin Energy          =      -0.4036605760349843 [Eh]
	 Opposite-Spin Energy      =      -1.2297543958684467 [Eh]
	 Correlation Energy        =      -1.6334149719034310 [Eh]
	 Total Energy              =    -721.8955274077180775 [Eh]

	 ================> DF-SCS-MP2 Energies <==================
	-----------------------------------------------------------
	 SCS Same-Spin Scale       =       0.3333333333333333 [-]
	 SCS Opposite-Spin Scale   =       1.2000000000000000 [-]
	 SCS Same-Spin Energy      =      -0.1345535253449948 [Eh]
	 SCS Opposite-Spin Energy  =      -1.4757052750421360 [Eh]
	 SCS Correlation Energy    =      -1.6102588003871308 [Eh]
	 SCS Total Energy          =    -721.8723712362017295 [Eh]
	-----------------------------------------------------------

  Dipole Moment: [D]
     X:     0.4135      Y:    -2.2430      Z:    -1.2033     Total:     2.5788

*** Psi4 exiting successfully. Buy a developer a beer!
