                               Psi4 1.3.2 release

  ==> Input File <==

--------------------------------------------------------------------------
#psi4
#
memory 32 gb

molecule  {
0 1
  P       -0.0357750     0.4680410     0.0705770
  O        0.9501960    -0.3269894     0.6748488
  O       -1.0048410    -0.5865790    -0.6866490
  O        0.7512110     1.1173330    -1.1929150
  O       -0.7044350     1.4170700     0.9839100
  C        1.8748370    -1.3345260    -0.0598200
  C       -1.9591270    -1.2882720     0.1502070
  H        1.2215740    -2.0052580    -0.6255210
  H        2.4895380    -1.9045040     0.6353170
  H        2.5026780    -0.7584230    -0.7438410
  H       -2.6431830    -0.5774540     0.6174740
  H       -1.4396990    -1.8621430     0.9229490
  H       -2.4975470    -1.9601810    -0.5134620
  H        0.3645100     1.9871850    -1.4006590
units angstrom
no_reorient  #important for SAPT in psi4, default
symmetry c1  #important for SAPT in psi4, default
}

set PROPERTIES_ORIGIN ["COM"]
properties('MP2/aug-cc-pvtz', properties = ['dipole'])
--------------------------------------------------------------------------

    Molecular point group: c1
  Charge       = 0
  Multiplicity = 1
  Basis Set: AUG-CC-PVTZ
    Blend: AUG-CC-PVTZ
  Basis Set: (AUG-CC-PVTZ AUX)
    Blend: AUG-CC-PVTZ-JKFIT

    Orbital Energies [Eh]
    ---------------------

    Doubly Occupied:

       1A    -80.071351     2A    -20.596650     3A    -20.590352
       4A    -20.577207     5A    -20.491867     6A    -11.336450
       7A    -11.290058     8A     -7.594534     9A     -5.494460
      10A     -5.491654    11A     -5.490632    12A     -1.481619
      13A     -1.382159    14A     -1.365788    15A     -1.275850
      16A     -1.000236    17A     -0.952263    18A     -0.807564
      19A     -0.737786    20A     -0.713426    21A     -0.687309
      22A     -0.652412    23A     -0.640627    24A     -0.627308
      25A     -0.621020    26A     -0.574446    27A     -0.562604
      28A     -0.549852    29A     -0.527267    30A     -0.503635
      31A     -0.484397    32A     -0.450946    33A     -0.445220

  @DF-RHF Final Energy:  -720.24990718427557

   => Energetics <=

    Nuclear Repulsion Energy =            458.3627623521645091
    One-Electron Energy =               -1905.0874410635485674
    Two-Electron Energy =                 726.4747715271084871
    Total Energy =                       -720.2499071842755711
  Basis Set: (AUG-CC-PVTZ AUX)
    Blend: AUG-CC-PVTZ-RI
    Molecular point group: c1

    Geometry (in Angstrom), charge = 0, multiplicity = 1:

       Center              X                  Y                   Z               Mass
    ------------   -----------------  -----------------  -----------------  -----------------
         P           -0.017938255607     0.453658282648     0.081508767081    30.973761998420
         O            0.968032744393    -0.341372117352     0.685780567081    15.994914619570
         O           -0.987004255607    -0.600961717352    -0.675717232919    15.994914619570
         O            0.769047744393     1.102950282648    -1.181983232919    15.994914619570
         O           -0.686598255607     1.402687282648     0.994841767081    15.994914619570
         C            1.892673744393    -1.348908717352    -0.048888232919    12.000000000000
         C           -1.941290255607    -1.302654717352     0.161138767081    12.000000000000
         H            1.239410744393    -2.019640717352    -0.614589232919     1.007825032230
         H            2.507374744393    -1.918886717352     0.646248767081     1.007825032230
         H            2.520514744393    -0.772805717352    -0.732909232919     1.007825032230
         H           -2.625346255607    -0.591836717352     0.628405767081     1.007825032230
         H           -1.421862255607    -1.876525717352     0.933880767081     1.007825032230
         H           -2.479710255607    -1.974563717352    -0.502530232919     1.007825032230
         H            0.382346744393     1.972802282648    -1.389727232919     1.007825032230

  Basis Set: AUG-CC-PVTZ
    Blend: AUG-CC-PVTZ
  Basis Set: (AUG-CC-PVTZ AUX)
    Blend: AUG-CC-PVTZ-JKFIT
	 Reference Energy          =    -720.2499071842755711 [Eh]
	 Singles Energy            =      -0.0000000000000000 [Eh]
	 Same-Spin Energy          =      -0.4021962560346553 [Eh]
	 Opposite-Spin Energy      =      -1.2248042204295957 [Eh]
	 Correlation Energy        =      -1.6270004764642509 [Eh]
	 Total Energy              =    -721.8769076607397892 [Eh]

	 ================> DF-SCS-MP2 Energies <==================
	-----------------------------------------------------------
	 SCS Same-Spin Scale       =       0.3333333333333333 [-]
	 SCS Opposite-Spin Scale   =       1.2000000000000000 [-]
	 SCS Same-Spin Energy      =      -0.1340654186782184 [Eh]
	 SCS Opposite-Spin Energy  =      -1.4697650645155147 [Eh]
	 SCS Correlation Energy    =      -1.6038304831937331 [Eh]
	 SCS Total Energy          =    -721.8537376674693178 [Eh]
	-----------------------------------------------------------

  Dipole Moment: [D]
     X:     1.7524      Y:    -3.5342      Z:    -1.7372     Total:     4.3103

*** Psi4 exiting successfully. Buy a developer a beer!
