                               Psi4 1.3.2 release

  ==> Input File <==

--------------------------------------------------------------------------
#psi4
#
memory 32 gb

molecule  {
0 1
  P       -0.0234776     0.4741158     0.0458509
  O        1.0907140    -0.4402950     0.7609680
  O       -1.0048410    -0.5865790    -0.6866490
  O        0.7512110     1.1173330    -1.1929150
  O       -0.7044350     1.4170700     0.9839100
  C        1.8748370    -1.3345260    -0.0598200
  C       -1.9676970    -1.3005210     0.1297810
  H        1.2215740    -2.0052580    -0.6255210
  H        2.4895380    -1.9045040     0.6353170
  H        2.5026780    -0.7584230    -0.7438410
  H       -2.6431830    -0.5774540     0.6174740
  H       -1.4396990    -1.8621430     0.9229490
  H       -2.4975470    -1.9601810    -0.5134620
  H        0.3645100     1.9871850    -1.4006590
units angstrom
no_reorient  #important for SAPT in psi4, default
symmetry c1  #important for SAPT in psi4, default
}

set PROPERTIES_ORIGIN ["COM"]
properties('MP2/aug-cc-pvtz', properties = ['dipole'])
--------------------------------------------------------------------------

    Molecular point group: c1
  Charge       = 0
  Multiplicity = 1
  Basis Set: AUG-CC-PVTZ
    Blend: AUG-CC-PVTZ
  Basis Set: (AUG-CC-PVTZ AUX)
    Blend: AUG-CC-PVTZ-JKFIT

    Orbital Energies [Eh]
    ---------------------

    Doubly Occupied:

       1A    -80.110570     2A    -20.616118     3A    -20.597580
       4A    -20.594443     5A    -20.511743     6A    -11.300107
       7A    -11.297875     8A     -7.625765     9A     -5.524367
      10A     -5.523823    11A     -5.522663    12A     -1.454006
      13A     -1.390102    14A     -1.378526    15A     -1.285925
      16A     -0.972014    17A     -0.956459    18A     -0.824147
      19A     -0.734080    20A     -0.708501    21A     -0.678914
      22A     -0.660255    23A     -0.644701    24A     -0.633437
      25A     -0.627441    26A     -0.572544    27A     -0.566985
      28A     -0.540665    29A     -0.518629    30A     -0.497205
      31A     -0.486658    32A     -0.464674    33A     -0.458512

  @DF-RHF Final Energy:  -720.27993814964702

   => Energetics <=

    Nuclear Repulsion Energy =            450.9109865862799893
    One-Electron Energy =               -1889.8229774311869278
    Two-Electron Energy =                 718.6320526952599721
    Total Energy =                       -720.2799381496470232
  Basis Set: (AUG-CC-PVTZ AUX)
    Blend: AUG-CC-PVTZ-RI
    Molecular point group: c1

    Geometry (in Angstrom), charge = 0, multiplicity = 1:

       Center              X                  Y                   Z               Mass
    ------------   -----------------  -----------------  -----------------  -----------------
         P           -0.025684235637     0.473788850835     0.053874150595    30.973761998420
         O            1.088507364363    -0.440621949165     0.768991250595    15.994914619570
         O           -1.007047635637    -0.586905949165    -0.678625749405    15.994914619570
         O            0.749004364363     1.117006050835    -1.184891749405    15.994914619570
         O           -0.706641635637     1.416743050835     0.991933250595    15.994914619570
         C            1.872630364363    -1.334852949165    -0.051796749405    12.000000000000
         C           -1.969903635637    -1.300847949165     0.137804250595    12.000000000000
         H            1.219367364363    -2.005584949165    -0.617497749405     1.007825032230
         H            2.487331364363    -1.904830949165     0.643340250595     1.007825032230
         H            2.500471364363    -0.758749949165    -0.735817749405     1.007825032230
         H           -2.645389635637    -0.577780949165     0.625497250595     1.007825032230
         H           -1.441905635637    -1.862469949165     0.930972250595     1.007825032230
         H           -2.499753635637    -1.960507949165    -0.505438749405     1.007825032230
         H            0.362303364363     1.986858050835    -1.392635749405     1.007825032230

  Basis Set: AUG-CC-PVTZ
    Blend: AUG-CC-PVTZ
  Basis Set: (AUG-CC-PVTZ AUX)
    Blend: AUG-CC-PVTZ-JKFIT
	 Reference Energy          =    -720.2799381496470232 [Eh]
	 Singles Energy            =      -0.0000000000000000 [Eh]
	 Same-Spin Energy          =      -0.4043761946267712 [Eh]
	 Opposite-Spin Energy      =      -1.2299910884470813 [Eh]
	 Correlation Energy        =      -1.6343672830738525 [Eh]
	 Total Energy              =    -721.9143054327208802 [Eh]

	 ================> DF-SCS-MP2 Energies <==================
	-----------------------------------------------------------
	 SCS Same-Spin Scale       =       0.3333333333333333 [-]
	 SCS Opposite-Spin Scale   =       1.2000000000000000 [-]
	 SCS Same-Spin Energy      =      -0.1347920648755904 [Eh]
	 SCS Opposite-Spin Energy  =      -1.4759893061364975 [Eh]
	 SCS Correlation Energy    =      -1.6107813710120880 [Eh]
	 SCS Total Energy          =    -721.8907195206591041 [Eh]
	-----------------------------------------------------------

  Dipole Moment: [D]
     X:     0.5834      Y:    -2.4931      Z:    -2.2052     Total:     3.3792

*** Psi4 exiting successfully. Buy a developer a beer!
