                               Psi4 1.3.2 release

  ==> Input File <==

--------------------------------------------------------------------------
#psi4
#
memory 32 gb

molecule  {
0 1
  P       -0.0357750     0.4680410     0.0705770
  O        1.0907140    -0.4402950     0.7609680
  O       -1.0048410    -0.5865790    -0.6866490
  O        0.7512110     1.1173330    -1.1929150
  O       -0.7044350     1.4170700     0.9839100
  C        1.7663122    -1.2107619     0.0537794
  C       -1.9591270    -1.2882720     0.1502070
  H        1.2215740    -2.0052580    -0.6255210
  H        2.4895380    -1.9045040     0.6353170
  H        2.5026780    -0.7584230    -0.7438410
  H       -2.6431830    -0.5774540     0.6174740
  H       -1.4396990    -1.8621430     0.9229490
  H       -2.4975470    -1.9601810    -0.5134620
  H        0.3645100     1.9871850    -1.4006590
units angstrom
no_reorient  #important for SAPT in psi4, default
symmetry c1  #important for SAPT in psi4, default
}

set PROPERTIES_ORIGIN ["COM"]
properties('MP2/aug-cc-pvtz', properties = ['dipole'])
--------------------------------------------------------------------------

    Molecular point group: c1
  Charge       = 0
  Multiplicity = 1
  Basis Set: AUG-CC-PVTZ
    Blend: AUG-CC-PVTZ
  Basis Set: (AUG-CC-PVTZ AUX)
    Blend: AUG-CC-PVTZ-JKFIT

    Orbital Energies [Eh]
    ---------------------

    Doubly Occupied:

       1A    -80.123920     2A    -20.618707     3A    -20.616020
       4A    -20.604484     5A    -20.525716     6A    -11.304326
       7A    -11.303304     8A     -7.639530     9A     -5.538035
      10A     -5.537466    11A     -5.536486    12A     -1.506839
      13A     -1.423516    14A     -1.388168    15A     -1.307785
      16A     -0.979382    17A     -0.954152    18A     -0.830112
      19A     -0.750173    20A     -0.737569    21A     -0.703419
      22A     -0.674441    23A     -0.661014    24A     -0.645190
      25A     -0.642873    26A     -0.582823    27A     -0.564835
      28A     -0.536280    29A     -0.510198    30A     -0.484178
      31A     -0.476947    32A     -0.470596    33A     -0.451116

  @DF-RHF Final Energy:  -720.23984427753396

   => Energetics <=

    Nuclear Repulsion Energy =            455.7300538897928277
    One-Electron Energy =               -1898.6805988413016166
    Two-Electron Energy =                 722.7107006739748840
    Total Energy =                       -720.2398442775339618
  Basis Set: (AUG-CC-PVTZ AUX)
    Blend: AUG-CC-PVTZ-RI
    Molecular point group: c1

    Geometry (in Angstrom), charge = 0, multiplicity = 1:

       Center              X                  Y                   Z               Mass
    ------------   -----------------  -----------------  -----------------  -----------------
         P           -0.025439956645     0.456254496299     0.059758895687    30.973761998420
         O            1.101049043355    -0.452081503701     0.750149895687    15.994914619570
         O           -0.994505956645    -0.598365503701    -0.697467104313    15.994914619570
         O            0.761546043355     1.105546496299    -1.203733104313    15.994914619570
         O           -0.694099956645     1.405283496299     0.973091895687    15.994914619570
         C            1.776647243355    -1.222548403701     0.042961295687    12.000000000000
         C           -1.948791956645    -1.300058503701     0.139388895687    12.000000000000
         H            1.231909043355    -2.017044503701    -0.636339104313     1.007825032230
         H            2.499873043355    -1.916290503701     0.624498895687     1.007825032230
         H            2.513013043355    -0.770209503701    -0.754659104313     1.007825032230
         H           -2.632847956645    -0.589240503701     0.606655895687     1.007825032230
         H           -1.429363956645    -1.873929503701     0.912130895687     1.007825032230
         H           -2.487211956645    -1.971967503701    -0.524280104313     1.007825032230
         H            0.374845043355     1.975398496299    -1.411477104313     1.007825032230

  Basis Set: AUG-CC-PVTZ
    Blend: AUG-CC-PVTZ
  Basis Set: (AUG-CC-PVTZ AUX)
    Blend: AUG-CC-PVTZ-JKFIT
	 Reference Energy          =    -720.2398442775339618 [Eh]
	 Singles Energy            =      -0.0000000000000000 [Eh]
	 Same-Spin Energy          =      -0.4055050564590039 [Eh]
	 Opposite-Spin Energy      =      -1.2299823702035013 [Eh]
	 Correlation Energy        =      -1.6354874266625052 [Eh]
	 Total Energy              =    -721.8753317041964692 [Eh]

	 ================> DF-SCS-MP2 Energies <==================
	-----------------------------------------------------------
	 SCS Same-Spin Scale       =       0.3333333333333333 [-]
	 SCS Opposite-Spin Scale   =       1.2000000000000000 [-]
	 SCS Same-Spin Energy      =      -0.1351683521530013 [Eh]
	 SCS Opposite-Spin Energy  =      -1.4759788442442014 [Eh]
	 SCS Correlation Energy    =      -1.6111471963972028 [Eh]
	 SCS Total Energy          =    -721.8509914739311171 [Eh]
	-----------------------------------------------------------

  Dipole Moment: [D]
     X:    -0.2356      Y:    -1.9029      Z:    -1.6066     Total:     2.5016

*** Psi4 exiting successfully. Buy a developer a beer!
