                               Psi4 1.3.2 release

  ==> Input File <==

--------------------------------------------------------------------------
#psi4
#
memory 32 gb

molecule  {
0 1
  P        0.0154669     0.4004341     0.0648909
  O        1.0907140    -0.4402950     0.7609680
  O       -1.0048410    -0.5865790    -0.6866490
  O        0.7512110     1.1173330    -1.1929150
  O       -0.7044350     1.4170700     0.9839100
  C        1.8748370    -1.3345260    -0.0598200
  C       -1.9591270    -1.2882720     0.1502070
  H        1.2215740    -2.0052580    -0.6255210
  H        2.4895380    -1.9045040     0.6353170
  H        2.5026780    -0.7584230    -0.7438410
  H       -2.6431830    -0.5774540     0.6174740
  H       -1.4396990    -1.8621430     0.9229490
  H       -2.4975470    -1.9601810    -0.5134620
  H        0.3983093     1.9916531    -1.4386026
units angstrom
no_reorient  #important for SAPT in psi4, default
symmetry c1  #important for SAPT in psi4, default
}

set PROPERTIES_ORIGIN ["COM"]
properties('MP2/aug-cc-pvtz', properties = ['dipole'])
--------------------------------------------------------------------------

    Molecular point group: c1
  Charge       = 0
  Multiplicity = 1
  Basis Set: AUG-CC-PVTZ
    Blend: AUG-CC-PVTZ
  Basis Set: (AUG-CC-PVTZ AUX)
    Blend: AUG-CC-PVTZ-JKFIT

    Orbital Energies [Eh]
    ---------------------

    Doubly Occupied:

       1A    -80.110021     2A    -20.617199     3A    -20.601774
       4A    -20.597554     5A    -20.496902     6A    -11.314069
       7A    -11.299292     8A     -7.625129     9A     -5.523833
      10A     -5.523327    11A     -5.521674    12A     -1.467777
      13A     -1.399513    14A     -1.378746    15A     -1.250794
      16A     -0.988095    17A     -0.963717    18A     -0.826638
      19A     -0.742447    20A     -0.722086    21A     -0.687222
      22A     -0.661923    23A     -0.647443    24A     -0.638161
      25A     -0.630042    26A     -0.561799    27A     -0.557805
      28A     -0.547763    29A     -0.521347    30A     -0.507224
      31A     -0.495720    32A     -0.440160    33A     -0.437510

  @DF-RHF Final Energy:  -720.27046800406288

   => Energetics <=

    Nuclear Repulsion Energy =            452.0006476600017891
    One-Electron Energy =               -1891.9328196876758739
    Two-Electron Energy =                 719.6617040236112643
    Total Energy =                       -720.2704680040628773
  Basis Set: (AUG-CC-PVTZ AUX)
    Blend: AUG-CC-PVTZ-RI
    Molecular point group: c1

    Geometry (in Angstrom), charge = 0, multiplicity = 1:

       Center              X                  Y                   Z               Mass
    ------------   -----------------  -----------------  -----------------  -----------------
         P            0.002600946155     0.417016434906     0.066592244991    30.973761998420
         O            1.077848046155    -0.423712665094     0.762669344991    15.994914619570
         O           -1.017706953845    -0.569996665094    -0.684947655009    15.994914619570
         O            0.738345046155     1.133915334906    -1.191213655009    15.994914619570
         O           -0.717300953845     1.433652334906     0.985611344991    15.994914619570
         C            1.861971046155    -1.317943665094    -0.058118655009    12.000000000000
         C           -1.971992953845    -1.271689665094     0.151908344991    12.000000000000
         H            1.208708046155    -1.988675665094    -0.623819655009     1.007825032230
         H            2.476672046155    -1.887921665094     0.637018344991     1.007825032230
         H            2.489812046155    -0.741840665094    -0.742139655009     1.007825032230
         H           -2.656048953845    -0.560871665094     0.619175344991     1.007825032230
         H           -1.452564953845    -1.845560665094     0.924650344991     1.007825032230
         H           -2.510412953845    -1.943598665094    -0.511760655009     1.007825032230
         H            0.385443346155     2.008235434906    -1.436901255009     1.007825032230

  Basis Set: AUG-CC-PVTZ
    Blend: AUG-CC-PVTZ
  Basis Set: (AUG-CC-PVTZ AUX)
    Blend: AUG-CC-PVTZ-JKFIT
	 Reference Energy          =    -720.2704680040628773 [Eh]
	 Singles Energy            =      -0.0000000000000000 [Eh]
	 Same-Spin Energy          =      -0.4047343035655714 [Eh]
	 Opposite-Spin Energy      =      -1.2303080045732933 [Eh]
	 Correlation Energy        =      -1.6350423081388645 [Eh]
	 Total Energy              =    -721.9055103122017272 [Eh]

	 ================> DF-SCS-MP2 Energies <==================
	-----------------------------------------------------------
	 SCS Same-Spin Scale       =       0.3333333333333333 [-]
	 SCS Opposite-Spin Scale   =       1.2000000000000000 [-]
	 SCS Same-Spin Energy      =      -0.1349114345218571 [Eh]
	 SCS Opposite-Spin Energy  =      -1.4763696054879518 [Eh]
	 SCS Correlation Energy    =      -1.6112810400098090 [Eh]
	 SCS Total Energy          =    -721.8817490440726488 [Eh]
	-----------------------------------------------------------

  Dipole Moment: [D]
     X:     1.1371      Y:    -3.3456      Z:    -2.1239     Total:     4.1228

*** Psi4 exiting successfully. Buy a developer a beer!
