                               Psi4 1.3.2 release

  ==> Input File <==

--------------------------------------------------------------------------
#psi4
#
memory 32 gb

molecule  {
0 1
  P       -0.0357750     0.4680410     0.0705770
  O        1.1013294    -0.4349851     0.7652274
  O       -1.0048410    -0.5865790    -0.6866490
  O        0.7512110     1.1173330    -1.1929150
  O       -0.7044350     1.4170700     0.9839100
  C        1.8748370    -1.3345260    -0.0598200
  C       -1.9591270    -1.2882720     0.1502070
  H        1.2292505    -2.0093558    -0.6294465
  H        2.4895380    -1.9045040     0.6353170
  H        2.5026780    -0.7584230    -0.7438410
  H       -2.6431830    -0.5774540     0.6174740
  H       -1.4396990    -1.8621430     0.9229490
  H       -2.4975470    -1.9601810    -0.5134620
  H        0.3645100     1.9871850    -1.4006590
units angstrom
no_reorient  #important for SAPT in psi4, default
symmetry c1  #important for SAPT in psi4, default
}

set PROPERTIES_ORIGIN ["COM"]
properties('MP2/aug-cc-pvtz', properties = ['dipole'])
--------------------------------------------------------------------------

    Molecular point group: c1
  Charge       = 0
  Multiplicity = 1
  Basis Set: AUG-CC-PVTZ
    Blend: AUG-CC-PVTZ
  Basis Set: (AUG-CC-PVTZ AUX)
    Blend: AUG-CC-PVTZ-JKFIT

    Orbital Energies [Eh]
    ---------------------

    Doubly Occupied:

       1A    -80.110314     2A    -20.608495     3A    -20.598901
       4A    -20.597500     5A    -20.515743     6A    -11.300199
       7A    -11.298931     8A     -7.625722     9A     -5.524198
      10A     -5.523732    11A     -5.522740    12A     -1.449326
      13A     -1.382005    14A     -1.380717    15A     -1.296669
      16A     -0.971868    17A     -0.957010    18A     -0.818061
      19A     -0.731762    20A     -0.708568    21A     -0.677540
      22A     -0.656392    23A     -0.642153    24A     -0.633046
      25A     -0.628043    26A     -0.572698    27A     -0.560653
      28A     -0.542473    29A     -0.519087    30A     -0.499773
      31A     -0.489829    32A     -0.471062    33A     -0.465378

  @DF-RHF Final Energy:  -720.28096629057495

   => Energetics <=

    Nuclear Repulsion Energy =            450.8043350489469958
    One-Electron Energy =               -1889.6094241156868065
    Two-Electron Energy =                 718.5241227761648588
    Total Energy =                       -720.2809662905749519
  Basis Set: (AUG-CC-PVTZ AUX)
    Blend: AUG-CC-PVTZ-RI
    Molecular point group: c1

    Geometry (in Angstrom), charge = 0, multiplicity = 1:

       Center              X                  Y                   Z               Mass
    ------------   -----------------  -----------------  -----------------  -----------------
         P           -0.037183848202     0.467399546512     0.070067909879    30.973761998420
         O            1.099920551798    -0.435626553488     0.764718309879    15.994914619570
         O           -1.006249848202    -0.587220453488    -0.687158090121    15.994914619570
         O            0.749802151798     1.116691546512    -1.193424090121    15.994914619570
         O           -0.705843848202     1.416428546512     0.983400909879    15.994914619570
         C            1.873428151798    -1.335167453488    -0.060329090121    12.000000000000
         C           -1.960535848202    -1.288913453488     0.149697909879    12.000000000000
         H            1.227841651798    -2.009997253488    -0.629955590121     1.007825032230
         H            2.488129151798    -1.905145453488     0.634807909879     1.007825032230
         H            2.501269151798    -0.759064453488    -0.744350090121     1.007825032230
         H           -2.644591848202    -0.578095453488     0.616964909879     1.007825032230
         H           -1.441107848202    -1.862784453488     0.922439909879     1.007825032230
         H           -2.498955848202    -1.960822453488    -0.513971090121     1.007825032230
         H            0.363101151798     1.986543546512    -1.401168090121     1.007825032230

  Basis Set: AUG-CC-PVTZ
    Blend: AUG-CC-PVTZ
  Basis Set: (AUG-CC-PVTZ AUX)
    Blend: AUG-CC-PVTZ-JKFIT
	 Reference Energy          =    -720.2809662905749519 [Eh]
	 Singles Energy            =      -0.0000000000000000 [Eh]
	 Same-Spin Energy          =      -0.4043485649318892 [Eh]
	 Opposite-Spin Energy      =      -1.2302027872196044 [Eh]
	 Correlation Energy        =      -1.6345513521514936 [Eh]
	 Total Energy              =    -721.9155176427263996 [Eh]

	 ================> DF-SCS-MP2 Energies <==================
	-----------------------------------------------------------
	 SCS Same-Spin Scale       =       0.3333333333333333 [-]
	 SCS Opposite-Spin Scale   =       1.2000000000000000 [-]
	 SCS Same-Spin Energy      =      -0.1347828549772964 [Eh]
	 SCS Opposite-Spin Energy  =      -1.4762433446635252 [Eh]
	 SCS Correlation Energy    =      -1.6110261996408217 [Eh]
	 SCS Total Energy          =    -721.8919924902157845 [Eh]
	-----------------------------------------------------------

  Dipole Moment: [D]
     X:     0.4303      Y:    -2.5624      Z:    -1.9627     Total:     3.2562

*** Psi4 exiting successfully. Buy a developer a beer!
