                               Psi4 1.3.2 release

  ==> Input File <==

--------------------------------------------------------------------------
#psi4
#
memory 32 gb

molecule  {
0 1
  P       -0.0357750     0.4680410     0.0705770
  O        1.0907140    -0.4402950     0.7609680
  O       -1.0269936    -0.5429205    -0.6737719
  O        0.7512110     1.1173330    -1.1929150
  O       -0.7044350     1.4170700     0.9839100
  C        1.8748370    -1.3345260    -0.0598200
  C       -1.9591270    -1.2882720     0.1502070
  H        1.2215740    -2.0052580    -0.6255210
  H        2.4895380    -1.9045040     0.6353170
  H        2.5026780    -0.7584230    -0.7438410
  H       -2.6248220    -0.5491583     0.5997561
  H       -1.4396990    -1.8621430     0.9229490
  H       -2.4975470    -1.9601810    -0.5134620
  H        0.3645100     1.9871850    -1.4006590
units angstrom
no_reorient  #important for SAPT in psi4, default
symmetry c1  #important for SAPT in psi4, default
}

set PROPERTIES_ORIGIN ["COM"]
properties('MP2/aug-cc-pvtz', properties = ['dipole'])
--------------------------------------------------------------------------

    Molecular point group: c1
  Charge       = 0
  Multiplicity = 1
  Basis Set: AUG-CC-PVTZ
    Blend: AUG-CC-PVTZ
  Basis Set: (AUG-CC-PVTZ AUX)
    Blend: AUG-CC-PVTZ-JKFIT

    Orbital Energies [Eh]
    ---------------------

    Doubly Occupied:

       1A    -80.106860     2A    -20.606971     3A    -20.599247
       4A    -20.595567     5A    -20.511168     6A    -11.301680
       7A    -11.300237     8A     -7.622725     9A     -5.521211
      10A     -5.520781    11A     -5.519736    12A     -1.451623
      13A     -1.384034    14A     -1.381797    15A     -1.293041
      16A     -0.974356    17A     -0.959063    18A     -0.816946
      19A     -0.732675    20A     -0.709419    21A     -0.679496
      22A     -0.658075    23A     -0.642587    24A     -0.634946
      25A     -0.630307    26A     -0.571487    27A     -0.558625
      28A     -0.543160    29A     -0.519535    30A     -0.500933
      31A     -0.491763    32A     -0.467792    33A     -0.461322

  @DF-RHF Final Energy:  -720.28231407884095

   => Energetics <=

    Nuclear Repulsion Energy =            451.7973851176552671
    One-Electron Energy =               -1891.6210649967206336
    Two-Electron Energy =                 719.5413658002244119
    Total Energy =                       -720.2823140788409546
  Basis Set: (AUG-CC-PVTZ AUX)
    Blend: AUG-CC-PVTZ-RI
    Molecular point group: c1

    Geometry (in Angstrom), charge = 0, multiplicity = 1:

       Center              X                  Y                   Z               Mass
    ------------   -----------------  -----------------  -----------------  -----------------
         P           -0.033109881006     0.462272661238     0.069084330604    30.973761998420
         O            1.093379118994    -0.446063338762     0.759475330604    15.994914619570
         O           -1.024328481006    -0.548688838762    -0.675264569396    15.994914619570
         O            0.753876118994     1.111564661238    -1.194407669396    15.994914619570
         O           -0.701769881006     1.411301661238     0.982417330604    15.994914619570
         C            1.877502118994    -1.340294338762    -0.061312669396    12.000000000000
         C           -1.956461881006    -1.294040338762     0.148714330604    12.000000000000
         H            1.224239118994    -2.011026338762    -0.627013669396     1.007825032230
         H            2.492203118994    -1.910272338762     0.633824330604     1.007825032230
         H            2.505343118994    -0.764191338762    -0.745333669396     1.007825032230
         H           -2.622156881006    -0.554926638762     0.598263430604     1.007825032230
         H           -1.437033881006    -1.867911338762     0.921456330604     1.007825032230
         H           -2.494881881006    -1.965949338762    -0.514954669396     1.007825032230
         H            0.367175118994     1.981416661238    -1.402151669396     1.007825032230

  Basis Set: AUG-CC-PVTZ
    Blend: AUG-CC-PVTZ
  Basis Set: (AUG-CC-PVTZ AUX)
    Blend: AUG-CC-PVTZ-JKFIT
	 Reference Energy          =    -720.2823140788409546 [Eh]
	 Singles Energy            =      -0.0000000000000000 [Eh]
	 Same-Spin Energy          =      -0.4039425415370846 [Eh]
	 Opposite-Spin Energy      =      -1.2290806795147955 [Eh]
	 Correlation Energy        =      -1.6330232210518800 [Eh]
	 Total Energy              =    -721.9153372998928262 [Eh]

	 ================> DF-SCS-MP2 Energies <==================
	-----------------------------------------------------------
	 SCS Same-Spin Scale       =       0.3333333333333333 [-]
	 SCS Opposite-Spin Scale   =       1.2000000000000000 [-]
	 SCS Same-Spin Energy      =      -0.1346475138456948 [Eh]
	 SCS Opposite-Spin Energy  =      -1.4748968154177546 [Eh]
	 SCS Correlation Energy    =      -1.6095443292634495 [Eh]
	 SCS Total Energy          =    -721.8918584081044401 [Eh]
	-----------------------------------------------------------

  Dipole Moment: [D]
     X:     0.4822      Y:    -2.7315      Z:    -2.0032     Total:     3.4215

*** Psi4 exiting successfully. Buy a developer a beer!
