                               Psi4 1.3.2 release

  ==> Input File <==

--------------------------------------------------------------------------
#psi4
#
memory 32 gb

molecule  {
0 1
  P       -0.0420214     0.4788865     0.0956053
  O        1.0907140    -0.4402950     0.7609680
  O       -1.0048410    -0.5865790    -0.6866490
  O        0.7512110     1.1173330    -1.1929150
  O       -0.7044350     1.4170700     0.9839100
  C        1.8873727    -1.3420433    -0.0392669
  C       -1.9591270    -1.2882720     0.1502070
  H        1.2215740    -2.0052580    -0.6255210
  H        2.4895380    -1.9045040     0.6353170
  H        2.5026780    -0.7584230    -0.7438410
  H       -2.6431830    -0.5774540     0.6174740
  H       -1.4396990    -1.8621430     0.9229490
  H       -2.4975470    -1.9601810    -0.5134620
  H        0.3645100     1.9871850    -1.4006590
units angstrom
no_reorient  #important for SAPT in psi4, default
symmetry c1  #important for SAPT in psi4, default
}

set PROPERTIES_ORIGIN ["COM"]
properties('MP2/aug-cc-pvtz', properties = ['dipole'])
--------------------------------------------------------------------------

    Molecular point group: c1
  Charge       = 0
  Multiplicity = 1
  Basis Set: AUG-CC-PVTZ
    Blend: AUG-CC-PVTZ
  Basis Set: (AUG-CC-PVTZ AUX)
    Blend: AUG-CC-PVTZ-JKFIT

    Orbital Energies [Eh]
    ---------------------

    Doubly Occupied:

       1A    -80.108977     2A    -20.604241     3A    -20.597479
       4A    -20.593822     5A    -20.521125     6A    -11.300889
       7A    -11.296547     8A     -7.624927     9A     -5.523314
      10A     -5.522840    11A     -5.522146    12A     -1.445776
      13A     -1.378452    14A     -1.373773    15A     -1.311931
      16A     -0.971861    17A     -0.954880    18A     -0.812438
      19A     -0.727045    20A     -0.705689    21A     -0.677479
      22A     -0.653203    23A     -0.643045    24A     -0.630617
      25A     -0.625277    26A     -0.578302    27A     -0.554887
      28A     -0.543909    29A     -0.519361    30A     -0.498217
      31A     -0.487439    32A     -0.480309    33A     -0.471571

  @DF-RHF Final Energy:  -720.27941373585929

   => Energetics <=

    Nuclear Repulsion Energy =            450.6700253878954072
    One-Electron Energy =               -1889.3753453694298514
    Two-Electron Energy =                 718.4259062456752645
    Total Energy =                       -720.2794137358592934
  Basis Set: (AUG-CC-PVTZ AUX)
    Blend: AUG-CC-PVTZ-RI
    Molecular point group: c1

    Geometry (in Angstrom), charge = 0, multiplicity = 1:

       Center              X                  Y                   Z               Mass
    ------------   -----------------  -----------------  -----------------  -----------------
         P           -0.041679766090     0.476936268117     0.087496027368    30.973761998420
         O            1.091055633910    -0.442245231883     0.752858727368    15.994914619570
         O           -1.004499366090    -0.588529231883    -0.694758272632    15.994914619570
         O            0.751552633910     1.115382768117    -1.201024272632    15.994914619570
         O           -0.704093366090     1.415119768117     0.975800727368    15.994914619570
         C            1.887714333910    -1.343993531883    -0.047376172632    12.000000000000
         C           -1.958785366090    -1.290222231883     0.142097727368    12.000000000000
         H            1.221915633910    -2.007208231883    -0.633630272632     1.007825032230
         H            2.489879633910    -1.906454231883     0.627207727368     1.007825032230
         H            2.503019633910    -0.760373231883    -0.751950272632     1.007825032230
         H           -2.642841366090    -0.579404231883     0.609364727368     1.007825032230
         H           -1.439357366090    -1.864093231883     0.914839727368     1.007825032230
         H           -2.497205366090    -1.962131231883    -0.521571272632     1.007825032230
         H            0.364851633910     1.985234768117    -1.408768272632     1.007825032230

  Basis Set: AUG-CC-PVTZ
    Blend: AUG-CC-PVTZ
  Basis Set: (AUG-CC-PVTZ AUX)
    Blend: AUG-CC-PVTZ-JKFIT
	 Reference Energy          =    -720.2794137358592934 [Eh]
	 Singles Energy            =      -0.0000000000000000 [Eh]
	 Same-Spin Energy          =      -0.4040239717282292 [Eh]
	 Opposite-Spin Energy      =      -1.2297736825518193 [Eh]
	 Correlation Energy        =      -1.6337976542800485 [Eh]
	 Total Energy              =    -721.9132113901393950 [Eh]

	 ================> DF-SCS-MP2 Energies <==================
	-----------------------------------------------------------
	 SCS Same-Spin Scale       =       0.3333333333333333 [-]
	 SCS Opposite-Spin Scale   =       1.2000000000000000 [-]
	 SCS Same-Spin Energy      =      -0.1346746572427431 [Eh]
	 SCS Opposite-Spin Energy  =      -1.4757284190621831 [Eh]
	 SCS Correlation Energy    =      -1.6104030763049262 [Eh]
	 SCS Total Energy          =    -721.8898168121642129 [Eh]
	-----------------------------------------------------------

  Dipole Moment: [D]
     X:     0.4537      Y:    -2.4513      Z:    -1.7027     Total:     3.0189

*** Psi4 exiting successfully. Buy a developer a beer!
