                               Psi4 1.3.2 release

  ==> Input File <==

--------------------------------------------------------------------------
#psi4
#
memory 32 gb

molecule  {
0 1
  P       -0.0357750     0.4680410     0.0705770
  O        1.0783786    -0.4631239     0.7504926
  O       -0.9885792    -0.6077818    -0.6774022
  O        0.7512110     1.1173330    -1.1929150
  O       -0.7044350     1.4170700     0.9839100
  C        1.8748370    -1.3345260    -0.0598200
  C       -1.9591270    -1.2882720     0.1502070
  H        1.2215740    -2.0052580    -0.6255210
  H        2.4895380    -1.9045040     0.6353170
  H        2.5026780    -0.7584230    -0.7438410
  H       -2.6431830    -0.5774540     0.6174740
  H       -1.4396990    -1.8621430     0.9229490
  H       -2.4975470    -1.9601810    -0.5134620
  H        0.3645100     1.9871850    -1.4006590
units angstrom
no_reorient  #important for SAPT in psi4, default
symmetry c1  #important for SAPT in psi4, default
}

set PROPERTIES_ORIGIN ["COM"]
properties('MP2/aug-cc-pvtz', properties = ['dipole'])
--------------------------------------------------------------------------

    Molecular point group: c1
  Charge       = 0
  Multiplicity = 1
  Basis Set: AUG-CC-PVTZ
    Blend: AUG-CC-PVTZ
  Basis Set: (AUG-CC-PVTZ AUX)
    Blend: AUG-CC-PVTZ-JKFIT

    Orbital Energies [Eh]
    ---------------------

    Doubly Occupied:

       1A    -80.110789     2A    -20.610085     3A    -20.596710
       4A    -20.595020     5A    -20.518066     6A    -11.298509
       7A    -11.297417     8A     -7.626229     9A     -5.524732
      10A     -5.524299    11A     -5.523218    12A     -1.451592
      13A     -1.384886    14A     -1.380714    15A     -1.298697
      16A     -0.972903    17A     -0.955996    18A     -0.818116
      19A     -0.732643    20A     -0.709539    21A     -0.680081
      22A     -0.656819    23A     -0.644002    24A     -0.633215
      25A     -0.628855    26A     -0.573375    27A     -0.562389
      28A     -0.540895    29A     -0.518042    30A     -0.498329
      31A     -0.486541    32A     -0.473142    33A     -0.466673

  @DF-RHF Final Energy:  -720.28157009125357

   => Energetics <=

    Nuclear Repulsion Energy =            451.5699557960727475
    One-Electron Energy =               -1891.1180131569685727
    Two-Electron Energy =                 719.2664872696423117
    Total Energy =                       -720.2815700912535704
  Basis Set: (AUG-CC-PVTZ AUX)
    Blend: AUG-CC-PVTZ-RI
    Molecular point group: c1

    Geometry (in Angstrom), charge = 0, multiplicity = 1:

       Center              X                  Y                   Z               Mass
    ------------   -----------------  -----------------  -----------------  -----------------
         P           -0.036273379227     0.473629973107     0.070733135453    30.973761998420
         O            1.077880220773    -0.457534926893     0.750648735453    15.994914619570
         O           -0.989077579227    -0.602192826893    -0.677246064547    15.994914619570
         O            0.750712620773     1.122921973107    -1.192758864547    15.994914619570
         O           -0.704933379227     1.422658973107     0.984066135453    15.994914619570
         C            1.874338620773    -1.328937026893    -0.059663864547    12.000000000000
         C           -1.959625379227    -1.282683026893     0.150363135453    12.000000000000
         H            1.221075620773    -1.999669026893    -0.625364864547     1.007825032230
         H            2.489039620773    -1.898915026893     0.635473135453     1.007825032230
         H            2.502179620773    -0.752834026893    -0.743684864547     1.007825032230
         H           -2.643681379227    -0.571865026893     0.617630135453     1.007825032230
         H           -1.440197379227    -1.856554026893     0.923105135453     1.007825032230
         H           -2.498045379227    -1.954592026893    -0.513305864547     1.007825032230
         H            0.364011620773     1.992773973107    -1.400502864547     1.007825032230

  Basis Set: AUG-CC-PVTZ
    Blend: AUG-CC-PVTZ
  Basis Set: (AUG-CC-PVTZ AUX)
    Blend: AUG-CC-PVTZ-JKFIT
	 Reference Energy          =    -720.2815700912535704 [Eh]
	 Singles Energy            =      -0.0000000000000000 [Eh]
	 Same-Spin Energy          =      -0.4042486951083862 [Eh]
	 Opposite-Spin Energy      =      -1.2296319824207154 [Eh]
	 Correlation Energy        =      -1.6338806775291017 [Eh]
	 Total Energy              =    -721.9154507687826481 [Eh]

	 ================> DF-SCS-MP2 Energies <==================
	-----------------------------------------------------------
	 SCS Same-Spin Scale       =       0.3333333333333333 [-]
	 SCS Opposite-Spin Scale   =       1.2000000000000000 [-]
	 SCS Same-Spin Energy      =      -0.1347495650361287 [Eh]
	 SCS Opposite-Spin Energy  =      -1.4755583789048583 [Eh]
	 SCS Correlation Energy    =      -1.6103079439409871 [Eh]
	 SCS Total Energy          =    -721.8918780351945088 [Eh]
	-----------------------------------------------------------

  Dipole Moment: [D]
     X:     0.4494      Y:    -2.4073      Z:    -1.9390     Total:     3.1236

*** Psi4 exiting successfully. Buy a developer a beer!
