                               Psi4 1.3.2 release

  ==> Input File <==

--------------------------------------------------------------------------
#psi4
#
memory 32 gb

molecule  {
0 1
  P       -0.0357750     0.4680410     0.0705770
  O        1.0907140    -0.4402950     0.7609680
  O       -1.0048410    -0.5865790    -0.6866490
  O        0.7512110     1.1173330    -1.1929150
  O       -0.7044350     1.4170700     0.9839100
  C        1.9833618    -1.4582901    -0.1734194
  C       -1.9591270    -1.2882720     0.1502070
  H        1.2215740    -2.0052580    -0.6255210
  H        2.4895380    -1.9045040     0.6353170
  H        2.5026780    -0.7584230    -0.7438410
  H       -2.6431830    -0.5774540     0.6174740
  H       -1.4396990    -1.8621430     0.9229490
  H       -2.4975470    -1.9601810    -0.5134620
  H        0.3645100     1.9871850    -1.4006590
units angstrom
no_reorient  #important for SAPT in psi4, default
symmetry c1  #important for SAPT in psi4, default
}

set PROPERTIES_ORIGIN ["COM"]
properties('MP2/aug-cc-pvtz', properties = ['dipole'])
--------------------------------------------------------------------------

    Molecular point group: c1
  Charge       = 0
  Multiplicity = 1
  Basis Set: AUG-CC-PVTZ
    Blend: AUG-CC-PVTZ
  Basis Set: (AUG-CC-PVTZ AUX)
    Blend: AUG-CC-PVTZ-JKFIT

    Orbital Energies [Eh]
    ---------------------

    Doubly Occupied:

       1A    -80.096677     2A    -20.601634     3A    -20.589494
       4A    -20.576632     5A    -20.505635     6A    -11.314527
       7A    -11.294025     8A     -7.612180     9A     -5.510700
      10A     -5.510205    11A     -5.509189    12A     -1.433227
      13A     -1.374417    14A     -1.337744    15A     -1.284377
      16A     -0.985442    17A     -0.957387    18A     -0.805692
      19A     -0.722671    20A     -0.690136    21A     -0.668265
      22A     -0.657545    23A     -0.642979    24A     -0.637003
      25A     -0.610051    26A     -0.563594    27A     -0.553370
      28A     -0.547274    29A     -0.512330    30A     -0.503045
      31A     -0.483728    32A     -0.460024    33A     -0.454205

  @DF-RHF Final Energy:  -720.25548114838602

   => Energetics <=

    Nuclear Repulsion Energy =            447.1118022206214846
    One-Electron Energy =               -1882.7237686324194783
    Two-Electron Energy =                 715.3564852634119688
    Total Energy =                       -720.2554811483860249
  Basis Set: (AUG-CC-PVTZ AUX)
    Blend: AUG-CC-PVTZ-RI
    Molecular point group: c1

    Geometry (in Angstrom), charge = 0, multiplicity = 1:

       Center              X                  Y                   Z               Mass
    ------------   -----------------  -----------------  -----------------  -----------------
         P           -0.046110002633     0.479827077300     0.081395469283    30.973761998420
         O            1.080378997367    -0.428508922700     0.771786469283    15.994914619570
         O           -1.015176002633    -0.574792922700    -0.675830530717    15.994914619570
         O            0.740875997367     1.129119077300    -1.182096530717    15.994914619570
         O           -0.714770002633     1.428856077300     0.994728469283    15.994914619570
         C            1.973026797367    -1.446504022700    -0.162600930717    12.000000000000
         C           -1.969462002633    -1.276485922700     0.161025469283    12.000000000000
         H            1.211238997367    -1.993471922700    -0.614702530717     1.007825032230
         H            2.479202997367    -1.892717922700     0.646135469283     1.007825032230
         H            2.492342997367    -0.746636922700    -0.733022530717     1.007825032230
         H           -2.653518002633    -0.565667922700     0.628292469283     1.007825032230
         H           -1.450034002633    -1.850356922700     0.933767469283     1.007825032230
         H           -2.507882002633    -1.948394922700    -0.502643530717     1.007825032230
         H            0.354174997367     1.998971077300    -1.389840530717     1.007825032230

  Basis Set: AUG-CC-PVTZ
    Blend: AUG-CC-PVTZ
  Basis Set: (AUG-CC-PVTZ AUX)
    Blend: AUG-CC-PVTZ-JKFIT
	 Reference Energy          =    -720.2554811483860249 [Eh]
	 Singles Energy            =      -0.0000000000000000 [Eh]
	 Same-Spin Energy          =      -0.4045981275186578 [Eh]
	 Opposite-Spin Energy      =      -1.2326219315607583 [Eh]
	 Correlation Energy        =      -1.6372200590794161 [Eh]
	 Total Energy              =    -721.8927012074653931 [Eh]

	 ================> DF-SCS-MP2 Energies <==================
	-----------------------------------------------------------
	 SCS Same-Spin Scale       =       0.3333333333333333 [-]
	 SCS Opposite-Spin Scale   =       1.2000000000000000 [-]
	 SCS Same-Spin Energy      =      -0.1348660425062193 [Eh]
	 SCS Opposite-Spin Energy  =      -1.4791463178729098 [Eh]
	 SCS Correlation Energy    =      -1.6140123603791290 [Eh]
	 SCS Total Energy          =    -721.8694935087651174 [Eh]
	-----------------------------------------------------------

  Dipole Moment: [D]
     X:     1.0268      Y:    -3.0685      Z:    -2.2151     Total:     3.9213

*** Psi4 exiting successfully. Buy a developer a beer!
