                               Psi4 1.3.2 release

  ==> Input File <==

--------------------------------------------------------------------------
#psi4
#
memory 32 gb

molecule  {
0 1
  P       -0.0357750     0.4680410     0.0705770
  O        1.0907140    -0.4402950     0.7609680
  O       -1.0646564    -0.6516752    -0.7333886
  O        0.7512110     1.1173330    -1.1929150
  O       -0.7044350     1.4170700     0.9839100
  C        1.8748370    -1.3345260    -0.0598200
  C       -1.9591270    -1.2882720     0.1502070
  H        1.2215740    -2.0052580    -0.6255210
  H        2.4895380    -1.9045040     0.6353170
  H        2.5026780    -0.7584230    -0.7438410
  H       -2.6431830    -0.5774540     0.6174740
  H       -1.4396990    -1.8621430     0.9229490
  H       -2.4975470    -1.9601810    -0.5134620
  H        0.3645100     1.9871850    -1.4006590
units angstrom
no_reorient  #important for SAPT in psi4, default
symmetry c1  #important for SAPT in psi4, default
}

set PROPERTIES_ORIGIN ["COM"]
properties('MP2/aug-cc-pvtz', properties = ['dipole'])
--------------------------------------------------------------------------

    Molecular point group: c1
  Charge       = 0
  Multiplicity = 1
  Basis Set: AUG-CC-PVTZ
    Blend: AUG-CC-PVTZ
  Basis Set: (AUG-CC-PVTZ AUX)
    Blend: AUG-CC-PVTZ-JKFIT

    Orbital Energies [Eh]
    ---------------------

    Doubly Occupied:

       1A    -80.121400     2A    -20.616023     3A    -20.606724
       4A    -20.594239     5A    -20.525090     6A    -11.304108
       7A    -11.285081     8A     -7.635661     9A     -5.534133
      10A     -5.533504    11A     -5.532570    12A     -1.448156
      13A     -1.388985    14A     -1.375681    15A     -1.304602
      16A     -0.972100    17A     -0.944207    18A     -0.823007
      19A     -0.731669    20A     -0.707637    21A     -0.679791
      22A     -0.657576    23A     -0.643543    24A     -0.633616
      25A     -0.626599    26A     -0.575776    27A     -0.567038
      28A     -0.541773    29A     -0.515314    30A     -0.497401
      31A     -0.483144    32A     -0.476882    33A     -0.467109

  @DF-RHF Final Energy:  -720.26877403567164

   => Energetics <=

    Nuclear Repulsion Energy =            448.0170745798057510
    One-Electron Energy =               -1883.8714205273911375
    Two-Electron Energy =                 715.5855719119138030
    Total Energy =                       -720.2687740356716404
  Basis Set: (AUG-CC-PVTZ AUX)
    Blend: AUG-CC-PVTZ-RI
    Molecular point group: c1

    Geometry (in Angstrom), charge = 0, multiplicity = 1:

       Center              X                  Y                   Z               Mass
    ------------   -----------------  -----------------  -----------------  -----------------
         P           -0.028182281318     0.476303806163     0.076510097460    30.973761998420
         O            1.098306718682    -0.432032193837     0.766901097460    15.994914619570
         O           -1.057063681318    -0.643412393837    -0.727455502540    15.994914619570
         O            0.758803718682     1.125595806163    -1.186981902540    15.994914619570
         O           -0.696842281318     1.425332806163     0.989843097460    15.994914619570
         C            1.882429718682    -1.326263193837    -0.053886902540    12.000000000000
         C           -1.951534281318    -1.280009193837     0.156140097460    12.000000000000
         H            1.229166718682    -1.996995193837    -0.619587902540     1.007825032230
         H            2.497130718682    -1.896241193837     0.641250097460     1.007825032230
         H            2.510270718682    -0.750160193837    -0.737907902540     1.007825032230
         H           -2.635590281318    -0.569191193837     0.623407097460     1.007825032230
         H           -1.432106281318    -1.853880193837     0.928882097460     1.007825032230
         H           -2.489954281318    -1.951918193837    -0.507528902540     1.007825032230
         H            0.372102718682     1.995447806163    -1.394725902540     1.007825032230

  Basis Set: AUG-CC-PVTZ
    Blend: AUG-CC-PVTZ
  Basis Set: (AUG-CC-PVTZ AUX)
    Blend: AUG-CC-PVTZ-JKFIT
	 Reference Energy          =    -720.2687740356716404 [Eh]
	 Singles Energy            =      -0.0000000000000000 [Eh]
	 Same-Spin Energy          =      -0.4055296309327176 [Eh]
	 Opposite-Spin Energy      =      -1.2331735964258836 [Eh]
	 Correlation Energy        =      -1.6387032273586013 [Eh]
	 Total Energy              =    -721.9074772630302732 [Eh]

	 ================> DF-SCS-MP2 Energies <==================
	-----------------------------------------------------------
	 SCS Same-Spin Scale       =       0.3333333333333333 [-]
	 SCS Opposite-Spin Scale   =       1.2000000000000000 [-]
	 SCS Same-Spin Energy      =      -0.1351765436442392 [Eh]
	 SCS Opposite-Spin Energy  =      -1.4798083157110604 [Eh]
	 SCS Correlation Energy    =      -1.6149848593552996 [Eh]
	 SCS Total Energy          =    -721.8837588950269719 [Eh]
	-----------------------------------------------------------

  Dipole Moment: [D]
     X:     0.9895      Y:    -2.1235      Z:    -1.8327     Total:     2.9744

*** Psi4 exiting successfully. Buy a developer a beer!
