                               Psi4 1.3.2 release

  ==> Input File <==

--------------------------------------------------------------------------
#psi4
#
memory 32 gb

molecule  {
0 1
  P       -0.0744228     0.4478971     0.1433417
  O        1.0907140    -0.4402950     0.7609680
  O       -1.0048410    -0.5865790    -0.6866490
  O        0.7512110     1.1173330    -1.1929150
  O       -0.7044350     1.4170700     0.9839100
  C        1.8748370    -1.3345260    -0.0598200
  C       -1.9316836    -1.2502579     0.2099311
  H        1.2215740    -2.0052580    -0.6255210
  H        2.4895380    -1.9045040     0.6353170
  H        2.5026780    -0.7584230    -0.7438410
  H       -2.6431830    -0.5774540     0.6174740
  H       -1.4396990    -1.8621430     0.9229490
  H       -2.4975470    -1.9601810    -0.5134620
  H        0.3645100     1.9871850    -1.4006590
units angstrom
no_reorient  #important for SAPT in psi4, default
symmetry c1  #important for SAPT in psi4, default
}

set PROPERTIES_ORIGIN ["COM"]
properties('MP2/aug-cc-pvtz', properties = ['dipole'])
--------------------------------------------------------------------------

    Molecular point group: c1
  Charge       = 0
  Multiplicity = 1
  Basis Set: AUG-CC-PVTZ
    Blend: AUG-CC-PVTZ
  Basis Set: (AUG-CC-PVTZ AUX)
    Blend: AUG-CC-PVTZ-JKFIT

    Orbital Energies [Eh]
    ---------------------

    Doubly Occupied:

       1A    -80.107205     2A    -20.603616     3A    -20.601728
       4A    -20.584682     5A    -20.526649     6A    -11.302862
       7A    -11.301961     8A     -7.624360     9A     -5.522493
      10A     -5.522153    11A     -5.521709    12A     -1.448612
      13A     -1.387412    14A     -1.353716    15A     -1.323914
      16A     -0.974646    17A     -0.959850    18A     -0.806001
      19A     -0.723643    20A     -0.709967    21A     -0.682849
      22A     -0.650076    23A     -0.641891    24A     -0.630747
      25A     -0.625353    26A     -0.575405    27A     -0.542763
      28A     -0.542104    29A     -0.515299    30A     -0.506149
      31A     -0.494587    32A     -0.486236    33A     -0.482139

  @DF-RHF Final Energy:  -720.26525520718633

   => Energetics <=

    Nuclear Repulsion Energy =            451.7793790584960902
    One-Electron Energy =               -1891.5237149603133275
    Two-Electron Energy =                 719.4790806946309658
    Total Energy =                       -720.2652552071863283
  Basis Set: (AUG-CC-PVTZ AUX)
    Blend: AUG-CC-PVTZ-RI
    Molecular point group: c1

    Geometry (in Angstrom), charge = 0, multiplicity = 1:

       Center              X                  Y                   Z               Mass
    ------------   -----------------  -----------------  -----------------  -----------------
         P           -0.067536346942     0.449228253886     0.119768132514    30.973761998420
         O            1.097600453058    -0.438963846114     0.737394432514    15.994914619570
         O           -0.997954546942    -0.585247846114    -0.710222567486    15.994914619570
         O            0.758097453058     1.118664153886    -1.216488567486    15.994914619570
         O           -0.697548546942     1.418401153886     0.960336432514    15.994914619570
         C            1.881723453058    -1.333194846114    -0.083393567486    12.000000000000
         C           -1.924797146942    -1.248926746114     0.186357532514    12.000000000000
         H            1.228460453058    -2.003926846114    -0.649094567486     1.007825032230
         H            2.496424453058    -1.903172846114     0.611743432514     1.007825032230
         H            2.509564453058    -0.757091846114    -0.767414567486     1.007825032230
         H           -2.636296546942    -0.576122846114     0.593900432514     1.007825032230
         H           -1.432812546942    -1.860811846114     0.899375432514     1.007825032230
         H           -2.490660546942    -1.958849846114    -0.537035567486     1.007825032230
         H            0.371396453058     1.988516153886    -1.424232567486     1.007825032230

  Basis Set: AUG-CC-PVTZ
    Blend: AUG-CC-PVTZ
  Basis Set: (AUG-CC-PVTZ AUX)
    Blend: AUG-CC-PVTZ-JKFIT
	 Reference Energy          =    -720.2652552071863283 [Eh]
	 Singles Energy            =      -0.0000000000000000 [Eh]
	 Same-Spin Energy          =      -0.4043925792348914 [Eh]
	 Opposite-Spin Energy      =      -1.2308487502117607 [Eh]
	 Correlation Energy        =      -1.6352413294466519 [Eh]
	 Total Energy              =    -721.9004965366329998 [Eh]

	 ================> DF-SCS-MP2 Energies <==================
	-----------------------------------------------------------
	 SCS Same-Spin Scale       =       0.3333333333333333 [-]
	 SCS Opposite-Spin Scale   =       1.2000000000000000 [-]
	 SCS Same-Spin Energy      =      -0.1347975264116305 [Eh]
	 SCS Opposite-Spin Energy  =      -1.4770185002541127 [Eh]
	 SCS Correlation Energy    =      -1.6118160266657431 [Eh]
	 SCS Total Energy          =    -721.8770712338521207 [Eh]
	-----------------------------------------------------------

  Dipole Moment: [D]
     X:     0.1500      Y:    -2.7808      Z:    -1.1937     Total:     3.0299

*** Psi4 exiting successfully. Buy a developer a beer!
