                               Psi4 1.3.2 release

  ==> Input File <==

--------------------------------------------------------------------------
#psi4
#
memory 32 gb

molecule  {
0 1
  P       -0.0357750     0.4680410     0.0705770
  O        1.1552737    -0.4094713     0.7855754
  O       -1.0048410    -0.5865790    -0.6866490
  O        0.7512110     1.1173330    -1.1929150
  O       -0.7044350     1.4170700     0.9839100
  C        1.8748370    -1.3345260    -0.0598200
  C       -1.9591270    -1.2882720     0.1502070
  H        1.2683584    -2.0290678    -0.6484175
  H        2.4895380    -1.9045040     0.6353170
  H        2.5026780    -0.7584230    -0.7438410
  H       -2.6431830    -0.5774540     0.6174740
  H       -1.4396990    -1.8621430     0.9229490
  H       -2.4975470    -1.9601810    -0.5134620
  H        0.3645100     1.9871850    -1.4006590
units angstrom
no_reorient  #important for SAPT in psi4, default
symmetry c1  #important for SAPT in psi4, default
}

set PROPERTIES_ORIGIN ["COM"]
properties('MP2/aug-cc-pvtz', properties = ['dipole'])
--------------------------------------------------------------------------

    Molecular point group: c1
  Charge       = 0
  Multiplicity = 1
  Basis Set: AUG-CC-PVTZ
    Blend: AUG-CC-PVTZ
  Basis Set: (AUG-CC-PVTZ AUX)
    Blend: AUG-CC-PVTZ-JKFIT

    Orbital Energies [Eh]
    ---------------------

    Doubly Occupied:

       1A    -80.114062     2A    -20.609094     3A    -20.602532
       4A    -20.600145     5A    -20.517465     6A    -11.301263
       7A    -11.296903     8A     -7.628964     9A     -5.527397
      10A     -5.526870    11A     -5.526016    12A     -1.446789
      13A     -1.383744    14A     -1.377279    15A     -1.298145
      16A     -0.970697    17A     -0.954919    18A     -0.819330
      19A     -0.731798    20A     -0.707818    21A     -0.674636
      22A     -0.657292    23A     -0.641710    24A     -0.634188
      25A     -0.623417    26A     -0.574864    27A     -0.561274
      28A     -0.541052    29A     -0.520691    30A     -0.498463
      31A     -0.489326    32A     -0.471505    33A     -0.467443

  @DF-RHF Final Energy:  -720.27595161814088

   => Energetics <=

    Nuclear Repulsion Energy =            449.2483948099780946
    One-Electron Energy =               -1886.4545039219563023
    Two-Electron Energy =                 716.9301574938372141
    Total Energy =                       -720.2759516181408799
  Basis Set: (AUG-CC-PVTZ AUX)
    Blend: AUG-CC-PVTZ-RI
    Molecular point group: c1

    Geometry (in Angstrom), charge = 0, multiplicity = 1:

       Center              X                  Y                   Z               Mass
    ------------   -----------------  -----------------  -----------------  -----------------
         P           -0.044344083996     0.464318597662     0.067636757903    30.973761998420
         O            1.146704616004    -0.413193702338     0.782635157903    15.994914619570
         O           -1.013410083996    -0.590301402338    -0.689589242097    15.994914619570
         O            0.742641916004     1.113610597662    -1.195855242097    15.994914619570
         O           -0.713004083996     1.413347597662     0.980969757903    15.994914619570
         C            1.866267916004    -1.338248402338    -0.062760242097    12.000000000000
         C           -1.967696083996    -1.291994402338     0.147266757903    12.000000000000
         H            1.259789316004    -2.032790202338    -0.651357742097     1.007825032230
         H            2.480968916004    -1.908226402338     0.632376757903     1.007825032230
         H            2.494108916004    -0.762145402338    -0.746781242097     1.007825032230
         H           -2.651752083996    -0.581176402338     0.614533757903     1.007825032230
         H           -1.448268083996    -1.865865402338     0.920008757903     1.007825032230
         H           -2.506116083996    -1.963903402338    -0.516402242097     1.007825032230
         H            0.355940916004     1.983462597662    -1.403599242097     1.007825032230

  Basis Set: AUG-CC-PVTZ
    Blend: AUG-CC-PVTZ
  Basis Set: (AUG-CC-PVTZ AUX)
    Blend: AUG-CC-PVTZ-JKFIT
	 Reference Energy          =    -720.2759516181408799 [Eh]
	 Singles Energy            =      -0.0000000000000000 [Eh]
	 Same-Spin Energy          =      -0.4048414636499840 [Eh]
	 Opposite-Spin Energy      =      -1.2316241073726815 [Eh]
	 Correlation Energy        =      -1.6364655710226654 [Eh]
	 Total Energy              =    -721.9124171891635342 [Eh]

	 ================> DF-SCS-MP2 Energies <==================
	-----------------------------------------------------------
	 SCS Same-Spin Scale       =       0.3333333333333333 [-]
	 SCS Opposite-Spin Scale   =       1.2000000000000000 [-]
	 SCS Same-Spin Energy      =      -0.1349471545499946 [Eh]
	 SCS Opposite-Spin Energy  =      -1.4779489288472176 [Eh]
	 SCS Correlation Energy    =      -1.6128960833972124 [Eh]
	 SCS Total Energy          =    -721.8888477015381113 [Eh]
	-----------------------------------------------------------

  Dipole Moment: [D]
     X:     0.1858      Y:    -2.5625      Z:    -2.0212     Total:     3.2690

*** Psi4 exiting successfully. Buy a developer a beer!
