                               Psi4 1.3.2 release

  ==> Input File <==

--------------------------------------------------------------------------
#psi4
#
memory 32 gb

molecule  {
0 1
  P       -0.0479227     0.4894519     0.1208363
  O        1.0907140    -0.4402950     0.7609680
  O       -1.0048410    -0.5865790    -0.6866490
  O        0.7512110     1.1173330    -1.1929150
  O       -0.7044350     1.4170700     0.9839100
  C        1.8996657    -1.3492859    -0.0184700
  C       -1.9591270    -1.2882720     0.1502070
  H        1.2215740    -2.0052580    -0.6255210
  H        2.4895380    -1.9045040     0.6353170
  H        2.5026780    -0.7584230    -0.7438410
  H       -2.6431830    -0.5774540     0.6174740
  H       -1.4396990    -1.8621430     0.9229490
  H       -2.4975470    -1.9601810    -0.5134620
  H        0.3645100     1.9871850    -1.4006590
units angstrom
no_reorient  #important for SAPT in psi4, default
symmetry c1  #important for SAPT in psi4, default
}

set PROPERTIES_ORIGIN ["COM"]
properties('MP2/aug-cc-pvtz', properties = ['dipole'])
--------------------------------------------------------------------------

    Molecular point group: c1
  Charge       = 0
  Multiplicity = 1
  Basis Set: AUG-CC-PVTZ
    Blend: AUG-CC-PVTZ
  Basis Set: (AUG-CC-PVTZ AUX)
    Blend: AUG-CC-PVTZ-JKFIT

    Orbital Energies [Eh]
    ---------------------

    Doubly Occupied:

       1A    -80.108252     2A    -20.600022     3A    -20.596515
       4A    -20.591140     5A    -20.526676     6A    -11.301206
       7A    -11.294632     8A     -7.624854     9A     -5.523101
      10A     -5.522618    11A     -5.522313    12A     -1.442558
      13A     -1.374962    14A     -1.366617    15A     -1.326861
      16A     -0.972095    17A     -0.952250    18A     -0.807331
      19A     -0.722540    20A     -0.702882    21A     -0.677894
      22A     -0.651057    23A     -0.644200    24A     -0.628627
      25A     -0.620925    26A     -0.584571    27A     -0.549509
      28A     -0.544579    29A     -0.519683    30A     -0.498759
      31A     -0.489094    32A     -0.484821    33A     -0.474688

  @DF-RHF Final Energy:  -720.27304261350866

   => Energetics <=

    Nuclear Repulsion Energy =            450.2529151689959690
    One-Electron Energy =               -1888.5562489054386788
    Two-Electron Energy =                 718.0302911229340452
    Total Energy =                       -720.2730426135086645
  Basis Set: (AUG-CC-PVTZ AUX)
    Blend: AUG-CC-PVTZ-RI
    Molecular point group: c1

    Geometry (in Angstrom), charge = 0, multiplicity = 1:

       Center              X                  Y                   Z               Mass
    ------------   -----------------  -----------------  -----------------  -----------------
         P           -0.047301167934     0.485594339918     0.104544529529    30.973761998420
         O            1.091335532066    -0.444152560082     0.744676229529    15.994914619570
         O           -1.004219467934    -0.590436560082    -0.702940770471    15.994914619570
         O            0.751832532066     1.113475439918    -1.209206770471    15.994914619570
         O           -0.703813467934     1.413212439918     0.967618229529    15.994914619570
         C            1.900287232066    -1.353143460082    -0.034761770471    12.000000000000
         C           -1.958505467934    -1.292129560082     0.133915229529    12.000000000000
         H            1.222195532066    -2.009115560082    -0.641812770471     1.007825032230
         H            2.490159532066    -1.908361560082     0.619025229529     1.007825032230
         H            2.503299532066    -0.762280560082    -0.760132770471     1.007825032230
         H           -2.642561467934    -0.581311560082     0.601182229529     1.007825032230
         H           -1.439077467934    -1.866000560082     0.906657229529     1.007825032230
         H           -2.496925467934    -1.964038560082    -0.529753770471     1.007825032230
         H            0.365131532066     1.983327439918    -1.416950770471     1.007825032230

  Basis Set: AUG-CC-PVTZ
    Blend: AUG-CC-PVTZ
  Basis Set: (AUG-CC-PVTZ AUX)
    Blend: AUG-CC-PVTZ-JKFIT
	 Reference Energy          =    -720.2730426135086645 [Eh]
	 Singles Energy            =      -0.0000000000000000 [Eh]
	 Same-Spin Energy          =      -0.4038202972107249 [Eh]
	 Opposite-Spin Energy      =      -1.2297042339793831 [Eh]
	 Correlation Energy        =      -1.6335245311901081 [Eh]
	 Total Energy              =    -721.9065671446987835 [Eh]

	 ================> DF-SCS-MP2 Energies <==================
	-----------------------------------------------------------
	 SCS Same-Spin Scale       =       0.3333333333333333 [-]
	 SCS Opposite-Spin Scale   =       1.2000000000000000 [-]
	 SCS Same-Spin Energy      =      -0.1346067657369083 [Eh]
	 SCS Opposite-Spin Energy  =      -1.4756450807752597 [Eh]
	 SCS Correlation Energy    =      -1.6102518465121680 [Eh]
	 SCS Total Energy          =    -721.8832944600208066 [Eh]
	-----------------------------------------------------------

  Dipole Moment: [D]
     X:     0.4322      Y:    -2.3454      Z:    -1.4536     Total:     2.7930

*** Psi4 exiting successfully. Buy a developer a beer!
