                               Psi4 1.3.2 release

  ==> Input File <==

--------------------------------------------------------------------------
#psi4
#
memory 32 gb

molecule  {
0 1
  P       -0.0357750     0.4680410     0.0705770
  O        1.0907140    -0.4402950     0.7609680
  O       -1.0048410    -0.5865790    -0.6866490
  O        0.7586089     1.0913087    -1.2013628
  O       -0.7124968     1.3972283     0.9982611
  C        1.8748370    -1.3345260    -0.0598200
  C       -1.9591270    -1.2882720     0.1502070
  H        1.2215740    -2.0052580    -0.6255210
  H        2.4895380    -1.9045040     0.6353170
  H        2.5026780    -0.7584230    -0.7438410
  H       -2.6431830    -0.5774540     0.6174740
  H       -1.4396990    -1.8621430     0.9229490
  H       -2.4975470    -1.9601810    -0.5134620
  H        0.3645100     1.9871850    -1.4006590
units angstrom
no_reorient  #important for SAPT in psi4, default
symmetry c1  #important for SAPT in psi4, default
}

set PROPERTIES_ORIGIN ["COM"]
properties('MP2/aug-cc-pvtz', properties = ['dipole'])
--------------------------------------------------------------------------

    Molecular point group: c1
  Charge       = 0
  Multiplicity = 1
  Basis Set: AUG-CC-PVTZ
    Blend: AUG-CC-PVTZ
  Basis Set: (AUG-CC-PVTZ AUX)
    Blend: AUG-CC-PVTZ-JKFIT

    Orbital Energies [Eh]
    ---------------------

    Doubly Occupied:

       1A    -80.109193     2A    -20.612690     3A    -20.596836
       4A    -20.594992     5A    -20.516997     6A    -11.299745
       7A    -11.297287     8A     -7.624798     9A     -5.523309
      10A     -5.522809    11A     -5.521792    12A     -1.448966
      13A     -1.380067    14A     -1.378379    15A     -1.297486
      16A     -0.971115    17A     -0.956006    18A     -0.813742
      19A     -0.728563    20A     -0.707405    21A     -0.678284
      22A     -0.656478    23A     -0.640047    24A     -0.631916
      25A     -0.627737    26A     -0.573311    27A     -0.560308
      28A     -0.541784    29A     -0.518205    30A     -0.498893
      31A     -0.488597    32A     -0.472420    33A     -0.465567

  @DF-RHF Final Energy:  -720.27904355882845

   => Energetics <=

    Nuclear Repulsion Energy =            451.2287078395683579
    One-Electron Energy =               -1890.5040555286689141
    Two-Electron Energy =                 718.9963041302720512
    Total Energy =                       -720.2790435588284481
  Basis Set: (AUG-CC-PVTZ AUX)
    Blend: AUG-CC-PVTZ-RI
    Molecular point group: c1

    Geometry (in Angstrom), charge = 0, multiplicity = 1:

       Center              X                  Y                   Z               Mass
    ------------   -----------------  -----------------  -----------------  -----------------
         P           -0.035690707154     0.473862810914     0.069827844087    30.973761998420
         O            1.090798292846    -0.434473189086     0.760218844087    15.994914619570
         O           -1.004756707154    -0.580757189086    -0.687398155913    15.994914619570
         O            0.758693192846     1.097130510914    -1.202111955913    15.994914619570
         O           -0.712412507154     1.403050110914     0.997511944087    15.994914619570
         C            1.874921292846    -1.328704189086    -0.060569155913    12.000000000000
         C           -1.959042707154    -1.282450189086     0.149457844087    12.000000000000
         H            1.221658292846    -1.999436189086    -0.626270155913     1.007825032230
         H            2.489622292846    -1.898682189086     0.634567844087     1.007825032230
         H            2.502762292846    -0.752601189086    -0.744590155913     1.007825032230
         H           -2.643098707154    -0.571632189086     0.616724844087     1.007825032230
         H           -1.439614707154    -1.856321189086     0.922199844087     1.007825032230
         H           -2.497462707154    -1.954359189086    -0.514211155913     1.007825032230
         H            0.364594292846     1.993006810914    -1.401408155913     1.007825032230

  Basis Set: AUG-CC-PVTZ
    Blend: AUG-CC-PVTZ
  Basis Set: (AUG-CC-PVTZ AUX)
    Blend: AUG-CC-PVTZ-JKFIT
	 Reference Energy          =    -720.2790435588284481 [Eh]
	 Singles Energy            =      -0.0000000000000000 [Eh]
	 Same-Spin Energy          =      -0.4047168625905218 [Eh]
	 Opposite-Spin Energy      =      -1.2309354573807434 [Eh]
	 Correlation Energy        =      -1.6356523199712651 [Eh]
	 Total Energy              =    -721.9146958787997619 [Eh]

	 ================> DF-SCS-MP2 Energies <==================
	-----------------------------------------------------------
	 SCS Same-Spin Scale       =       0.3333333333333333 [-]
	 SCS Opposite-Spin Scale   =       1.2000000000000000 [-]
	 SCS Same-Spin Energy      =      -0.1349056208635072 [Eh]
	 SCS Opposite-Spin Energy  =      -1.4771225488568920 [Eh]
	 SCS Correlation Energy    =      -1.6120281697203993 [Eh]
	 SCS Total Energy          =    -721.8910717285488090 [Eh]
	-----------------------------------------------------------

  Dipole Moment: [D]
     X:     0.4912      Y:    -2.4123      Z:    -1.9800     Total:     3.1593

*** Psi4 exiting successfully. Buy a developer a beer!
