                               Psi4 1.3.2 release

  ==> Input File <==

--------------------------------------------------------------------------
#psi4
#
memory 32 gb

molecule  {
0 1
  P       -0.0357750     0.4680410     0.0705770
  O        1.0967533    -0.4287763     0.7661270
  O       -1.0128615    -0.5758567    -0.6911861
  O        0.7512110     1.1173330    -1.1929150
  O       -0.7044350     1.4170700     0.9839100
  C        1.8748370    -1.3345260    -0.0598200
  C       -1.9591270    -1.2882720     0.1502070
  H        1.2215740    -2.0052580    -0.6255210
  H        2.4895380    -1.9045040     0.6353170
  H        2.5026780    -0.7584230    -0.7438410
  H       -2.6431830    -0.5774540     0.6174740
  H       -1.4396990    -1.8621430     0.9229490
  H       -2.4975470    -1.9601810    -0.5134620
  H        0.3645100     1.9871850    -1.4006590
units angstrom
no_reorient  #important for SAPT in psi4, default
symmetry c1  #important for SAPT in psi4, default
}

set PROPERTIES_ORIGIN ["COM"]
properties('MP2/aug-cc-pvtz', properties = ['dipole'])
--------------------------------------------------------------------------

    Molecular point group: c1
  Charge       = 0
  Multiplicity = 1
  Basis Set: AUG-CC-PVTZ
    Blend: AUG-CC-PVTZ
  Basis Set: (AUG-CC-PVTZ AUX)
    Blend: AUG-CC-PVTZ-JKFIT

    Orbital Energies [Eh]
    ---------------------

    Doubly Occupied:

       1A    -80.108963     2A    -20.607534     3A    -20.599554
       4A    -20.597179     5A    -20.514091     6A    -11.302024
       7A    -11.299006     8A     -7.624518     9A     -5.523003
      10A     -5.522519    11A     -5.521537    12A     -1.449124
      13A     -1.381485    14A     -1.380003    15A     -1.295226
      16A     -0.972159    17A     -0.957678    18A     -0.817640
      19A     -0.731339    20A     -0.708142    21A     -0.677437
      22A     -0.655942    23A     -0.641521    24A     -0.632655
      25A     -0.628225    26A     -0.571832    27A     -0.559625
      28A     -0.543623    29A     -0.519344    30A     -0.500873
      31A     -0.491248    32A     -0.469734    33A     -0.464007

  @DF-RHF Final Energy:  -720.28110095028603

   => Energetics <=

    Nuclear Repulsion Energy =            450.8806365214289826
    One-Electron Energy =               -1889.7858945576872429
    Two-Electron Energy =                 718.6241570859721151
    Total Energy =                       -720.2811009502860315
  Basis Set: (AUG-CC-PVTZ AUX)
    Blend: AUG-CC-PVTZ-RI
    Molecular point group: c1

    Geometry (in Angstrom), charge = 0, multiplicity = 1:

       Center              X                  Y                   Z               Mass
    ------------   -----------------  -----------------  -----------------  -----------------
         P           -0.035523495006     0.465217614116     0.070498241291    30.973761998420
         O            1.097004804994    -0.431599685884     0.766048241291    15.994914619570
         O           -1.012609995006    -0.578680085884    -0.691264858709    15.994914619570
         O            0.751462504994     1.114509614116    -1.192993758709    15.994914619570
         O           -0.704183495006     1.414246614116     0.983831241291    15.994914619570
         C            1.875088504994    -1.337349385884    -0.059898758709    12.000000000000
         C           -1.958875495006    -1.291095385884     0.150128241291    12.000000000000
         H            1.221825504994    -2.008081385884    -0.625599758709     1.007825032230
         H            2.489789504994    -1.907327385884     0.635238241291     1.007825032230
         H            2.502929504994    -0.761246385884    -0.743919758709     1.007825032230
         H           -2.642931495006    -0.580277385884     0.617395241291     1.007825032230
         H           -1.439447495006    -1.864966385884     0.922870241291     1.007825032230
         H           -2.497295495006    -1.963004385884    -0.513540758709     1.007825032230
         H            0.364761504994     1.984361614116    -1.400737758709     1.007825032230

  Basis Set: AUG-CC-PVTZ
    Blend: AUG-CC-PVTZ
  Basis Set: (AUG-CC-PVTZ AUX)
    Blend: AUG-CC-PVTZ-JKFIT
	 Reference Energy          =    -720.2811009502860315 [Eh]
	 Singles Energy            =      -0.0000000000000000 [Eh]
	 Same-Spin Energy          =      -0.4042954046974395 [Eh]
	 Opposite-Spin Energy      =      -1.2301566857435888 [Eh]
	 Correlation Energy        =      -1.6344520904410282 [Eh]
	 Total Energy              =    -721.9155530407271044 [Eh]

	 ================> DF-SCS-MP2 Energies <==================
	-----------------------------------------------------------
	 SCS Same-Spin Scale       =       0.3333333333333333 [-]
	 SCS Opposite-Spin Scale   =       1.2000000000000000 [-]
	 SCS Same-Spin Energy      =      -0.1347651348991465 [Eh]
	 SCS Opposite-Spin Energy  =      -1.4761880228923066 [Eh]
	 SCS Correlation Energy    =      -1.6109531577914531 [Eh]
	 SCS Total Energy          =    -721.8920541080774456 [Eh]
	-----------------------------------------------------------

  Dipole Moment: [D]
     X:     0.4927      Y:    -2.6379      Z:    -1.9556     Total:     3.3204

*** Psi4 exiting successfully. Buy a developer a beer!
