                               Psi4 1.3.2 release

  ==> Input File <==

--------------------------------------------------------------------------
#psi4
#
memory 32 gb

molecule  {
0 1
  P       -0.0325230     0.4625143     0.0581412
  O        1.0907140    -0.4402950     0.7609680
  O       -1.0048410    -0.5865790    -0.6866490
  O        0.7512110     1.1173330    -1.1929150
  O       -0.7044350     1.4170700     0.9839100
  C        1.8684793    -1.3306651    -0.0700032
  C       -1.9591270    -1.2882720     0.1502070
  H        1.2215740    -2.0052580    -0.6255210
  H        2.4895380    -1.9045040     0.6353170
  H        2.5026780    -0.7584230    -0.7438410
  H       -2.6431830    -0.5774540     0.6174740
  H       -1.4396990    -1.8621430     0.9229490
  H       -2.4975470    -1.9601810    -0.5134620
  H        0.3645100     1.9871850    -1.4006590
units angstrom
no_reorient  #important for SAPT in psi4, default
symmetry c1  #important for SAPT in psi4, default
}

set PROPERTIES_ORIGIN ["COM"]
properties('MP2/aug-cc-pvtz', properties = ['dipole'])
--------------------------------------------------------------------------

    Molecular point group: c1
  Charge       = 0
  Multiplicity = 1
  Basis Set: AUG-CC-PVTZ
    Blend: AUG-CC-PVTZ
  Basis Set: (AUG-CC-PVTZ AUX)
    Blend: AUG-CC-PVTZ-JKFIT

    Orbital Energies [Eh]
    ---------------------

    Doubly Occupied:

       1A    -80.109828     2A    -20.610449     3A    -20.599278
       4A    -20.597793     5A    -20.512528     6A    -11.300920
       7A    -11.299416     8A     -7.625205     9A     -5.523733
      10A     -5.523274    11A     -5.522121    12A     -1.452330
      13A     -1.385574    14A     -1.382691    15A     -1.288531
      16A     -0.972965    17A     -0.958083    18A     -0.820589
      19A     -0.734228    20A     -0.710146    21A     -0.679108
      22A     -0.657975    23A     -0.642707    24A     -0.634168
      25A     -0.629355    26A     -0.569765    27A     -0.563380
      28A     -0.541651    29A     -0.518560    30A     -0.501181
      31A     -0.491023    32A     -0.465897    33A     -0.460919

  @DF-RHF Final Energy:  -720.28102212065858

   => Energetics <=

    Nuclear Repulsion Energy =            451.3391442914242475
    One-Electron Energy =               -1890.6695877593615478
    Two-Electron Energy =                 719.0494213472787806
    Total Energy =                       -720.2810221206585766
  Basis Set: (AUG-CC-PVTZ AUX)
    Blend: AUG-CC-PVTZ-RI
    Molecular point group: c1

    Geometry (in Angstrom), charge = 0, multiplicity = 1:

       Center              X                  Y                   Z               Mass
    ------------   -----------------  -----------------  -----------------  -----------------
         P           -0.032716889836     0.463504910371     0.062167961126    30.973761998420
         O            1.090520110164    -0.439304389629     0.764994761126    15.994914619570
         O           -1.005034889836    -0.585588389629    -0.682622238874    15.994914619570
         O            0.751017110164     1.118323610371    -1.188888238874    15.994914619570
         O           -0.704628889836     1.418060610371     0.987936761126    15.994914619570
         C            1.868285410164    -1.329674489629    -0.065976438874    12.000000000000
         C           -1.959320889836    -1.287281389629     0.154233761126    12.000000000000
         H            1.221380110164    -2.004267389629    -0.621494238874     1.007825032230
         H            2.489344110164    -1.903513389629     0.639343761126     1.007825032230
         H            2.502484110164    -0.757432389629    -0.739814238874     1.007825032230
         H           -2.643376889836    -0.576463389629     0.621500761126     1.007825032230
         H           -1.439892889836    -1.861152389629     0.926975761126     1.007825032230
         H           -2.497740889836    -1.959190389629    -0.509435238874     1.007825032230
         H            0.364316110164     1.988175610371    -1.396632238874     1.007825032230

  Basis Set: AUG-CC-PVTZ
    Blend: AUG-CC-PVTZ
  Basis Set: (AUG-CC-PVTZ AUX)
    Blend: AUG-CC-PVTZ-JKFIT
	 Reference Energy          =    -720.2810221206585766 [Eh]
	 Singles Energy            =      -0.0000000000000000 [Eh]
	 Same-Spin Energy          =      -0.4044061065208189 [Eh]
	 Opposite-Spin Energy      =      -1.2300911168438740 [Eh]
	 Correlation Energy        =      -1.6344972233646928 [Eh]
	 Total Energy              =    -721.9155193440233234 [Eh]

	 ================> DF-SCS-MP2 Energies <==================
	-----------------------------------------------------------
	 SCS Same-Spin Scale       =       0.3333333333333333 [-]
	 SCS Opposite-Spin Scale   =       1.2000000000000000 [-]
	 SCS Same-Spin Energy      =      -0.1348020355069396 [Eh]
	 SCS Opposite-Spin Energy  =      -1.4761093402126486 [Eh]
	 SCS Correlation Energy    =      -1.6109113757195883 [Eh]
	 SCS Total Energy          =    -721.8919334963782148 [Eh]
	-----------------------------------------------------------

  Dipole Moment: [D]
     X:     0.4922      Y:    -2.6170      Z:    -2.0734     Total:     3.3749

*** Psi4 exiting successfully. Buy a developer a beer!
