                               Psi4 1.3.2 release

  ==> Input File <==

--------------------------------------------------------------------------
#psi4
#
memory 32 gb

molecule  {
0 1
  P       -0.0523831     0.4909814     0.0717033
  O        1.0907140    -0.4402950     0.7609680
  O       -1.0048410    -0.5865790    -0.6866490
  O        0.7512110     1.1173330    -1.1929150
  O       -0.7044350     1.4170700     0.9839100
  C        1.8748370    -1.3345260    -0.0598200
  C       -1.9591270    -1.2882720     0.1502070
  H        1.2215740    -2.0052580    -0.6255210
  H        2.4895380    -1.9045040     0.6353170
  H        2.5026780    -0.7584230    -0.7438410
  H       -2.6431830    -0.5774540     0.6174740
  H       -1.4396990    -1.8621430     0.9229490
  H       -2.4975470    -1.9601810    -0.5134620
  H        0.3534746     1.9851650    -1.3878794
units angstrom
no_reorient  #important for SAPT in psi4, default
symmetry c1  #important for SAPT in psi4, default
}

set PROPERTIES_ORIGIN ["COM"]
properties('MP2/aug-cc-pvtz', properties = ['dipole'])
--------------------------------------------------------------------------

    Molecular point group: c1
  Charge       = 0
  Multiplicity = 1
  Basis Set: AUG-CC-PVTZ
    Blend: AUG-CC-PVTZ
  Basis Set: (AUG-CC-PVTZ AUX)
    Blend: AUG-CC-PVTZ-JKFIT

    Orbital Energies [Eh]
    ---------------------

    Doubly Occupied:

       1A    -80.109188     2A    -20.610856     3A    -20.596060
       4A    -20.592271     5A    -20.521439     6A    -11.298059
       7A    -11.296517     8A     -7.625236     9A     -5.523641
      10A     -5.523118    11A     -5.522421    12A     -1.447468
      13A     -1.381852    14A     -1.373562    15A     -1.311410
      16A     -0.968812    17A     -0.953189    18A     -0.815078
      19A     -0.729430    20A     -0.704022    21A     -0.677048
      22A     -0.657485    23A     -0.639136    24A     -0.630338
      25A     -0.625645    26A     -0.579270    27A     -0.561526
      28A     -0.541307    29A     -0.518547    30A     -0.496179
      31A     -0.485889    32A     -0.481019    33A     -0.472019

  @DF-RHF Final Energy:  -720.28005652905824

   => Energetics <=

    Nuclear Repulsion Energy =            450.8347287638920307
    One-Electron Energy =               -1889.6914985095893371
    Two-Electron Energy =                 718.5767132166391775
    Total Energy =                       -720.2800565290582426
  Basis Set: (AUG-CC-PVTZ AUX)
    Blend: AUG-CC-PVTZ-RI
    Molecular point group: c1

    Geometry (in Angstrom), charge = 0, multiplicity = 1:

       Center              X                  Y                   Z               Mass
    ------------   -----------------  -----------------  -----------------  -----------------
         P           -0.048212421643     0.485358420128     0.071324417070    30.973761998420
         O            1.094884678357    -0.445917979872     0.760589117070    15.994914619570
         O           -1.000670321643    -0.592201979872    -0.687027882930    15.994914619570
         O            0.755381678357     1.111710020128    -1.193293882930    15.994914619570
         O           -0.700264321643     1.411447020128     0.983531117070    15.994914619570
         C            1.879007678357    -1.340148979872    -0.060198882930    12.000000000000
         C           -1.954956321643    -1.293894979872     0.149828117070    12.000000000000
         H            1.225744678357    -2.010880979872    -0.625899882930     1.007825032230
         H            2.493708678357    -1.910126979872     0.634938117070     1.007825032230
         H            2.506848678357    -0.764045979872    -0.744219882930     1.007825032230
         H           -2.639012321643    -0.583076979872     0.617095117070     1.007825032230
         H           -1.435528321643    -1.867765979872     0.922570117070     1.007825032230
         H           -2.493376321643    -1.965803979872    -0.513840882930     1.007825032230
         H            0.357645278357     1.979542020128    -1.388258282930     1.007825032230

  Basis Set: AUG-CC-PVTZ
    Blend: AUG-CC-PVTZ
  Basis Set: (AUG-CC-PVTZ AUX)
    Blend: AUG-CC-PVTZ-JKFIT
	 Reference Energy          =    -720.2800565290582426 [Eh]
	 Singles Energy            =      -0.0000000000000000 [Eh]
	 Same-Spin Energy          =      -0.4041570664126656 [Eh]
	 Opposite-Spin Energy      =      -1.2299558957551260 [Eh]
	 Correlation Energy        =      -1.6341129621677917 [Eh]
	 Total Energy              =    -721.9141694912260618 [Eh]

	 ================> DF-SCS-MP2 Energies <==================
	-----------------------------------------------------------
	 SCS Same-Spin Scale       =       0.3333333333333333 [-]
	 SCS Opposite-Spin Scale   =       1.2000000000000000 [-]
	 SCS Same-Spin Energy      =      -0.1347190221375552 [Eh]
	 SCS Opposite-Spin Energy  =      -1.4759470749061512 [Eh]
	 SCS Correlation Energy    =      -1.6106660970437063 [Eh]
	 SCS Total Energy          =    -721.8907226261019332 [Eh]
	-----------------------------------------------------------

  Dipole Moment: [D]
     X:     0.2661      Y:    -2.2975      Z:    -1.9038     Total:     2.9956

*** Psi4 exiting successfully. Buy a developer a beer!
