                               Psi4 1.3.2 release

  ==> Input File <==

--------------------------------------------------------------------------
#psi4
#
memory 32 gb

molecule  {
0 1
  P       -0.0114792     0.4798674     0.0209016
  O        1.0907140    -0.4402950     0.7609680
  O       -1.0048410    -0.5865790    -0.6866490
  O        0.7512110     1.1173330    -1.1929150
  O       -0.7044350     1.4170700     0.9839100
  C        1.8748370    -1.3345260    -0.0598200
  C       -1.9759738    -1.3125524     0.1091063
  H        1.2215740    -2.0052580    -0.6255210
  H        2.4895380    -1.9045040     0.6353170
  H        2.5026780    -0.7584230    -0.7438410
  H       -2.6431830    -0.5774540     0.6174740
  H       -1.4396990    -1.8621430     0.9229490
  H       -2.4975470    -1.9601810    -0.5134620
  H        0.3645100     1.9871850    -1.4006590
units angstrom
no_reorient  #important for SAPT in psi4, default
symmetry c1  #important for SAPT in psi4, default
}

set PROPERTIES_ORIGIN ["COM"]
properties('MP2/aug-cc-pvtz', properties = ['dipole'])
--------------------------------------------------------------------------

    Molecular point group: c1
  Charge       = 0
  Multiplicity = 1
  Basis Set: AUG-CC-PVTZ
    Blend: AUG-CC-PVTZ
  Basis Set: (AUG-CC-PVTZ AUX)
    Blend: AUG-CC-PVTZ-JKFIT

    Orbital Energies [Eh]
    ---------------------

    Doubly Occupied:

       1A    -80.111590     2A    -20.623746     3A    -20.596509
       4A    -20.592582     5A    -20.508091     6A    -11.299346
       7A    -11.297566     8A     -7.626606     9A     -5.525322
      10A     -5.524669    11A     -5.523386    12A     -1.460797
      13A     -1.395779    14A     -1.376409    15A     -1.275277
      16A     -0.971965    17A     -0.955795    18A     -0.831684
      19A     -0.735860    20A     -0.708920    21A     -0.681437
      22A     -0.663782    23A     -0.648233    24A     -0.634862
      25A     -0.624148    26A     -0.580353    27A     -0.565753
      28A     -0.537769    29A     -0.518010    30A     -0.494442
      31A     -0.482847    32A     -0.458167    33A     -0.451947

  @DF-RHF Final Energy:  -720.27452317692848

   => Energetics <=

    Nuclear Repulsion Energy =            450.7269538491340768
    One-Electron Energy =               -1889.4356586354087995
    Two-Electron Energy =                 718.4341816093461830
    Total Energy =                       -720.2745231769284828
  Basis Set: (AUG-CC-PVTZ AUX)
    Blend: AUG-CC-PVTZ-RI
    Molecular point group: c1

    Geometry (in Angstrom), charge = 0, multiplicity = 1:

       Center              X                  Y                   Z               Mass
    ------------   -----------------  -----------------  -----------------  -----------------
         P           -0.015846917180     0.479272437399     0.037026467117    30.973761998420
         O            1.086346282820    -0.440889962601     0.777092867117    15.994914619570
         O           -1.009208717180    -0.587173962601    -0.670524132883    15.994914619570
         O            0.746843282820     1.116738037399    -1.176790132883    15.994914619570
         O           -0.708802717180     1.416475037399     1.000034867117    15.994914619570
         C            1.870469282820    -1.335120962601    -0.043695132883    12.000000000000
         C           -1.980341517180    -1.313147362601     0.125231167117    12.000000000000
         H            1.217206282820    -2.005852962601    -0.609396132883     1.007825032230
         H            2.485170282820    -1.905098962601     0.651441867117     1.007825032230
         H            2.498310282820    -0.759017962601    -0.727716132883     1.007825032230
         H           -2.647550717180    -0.578048962601     0.633598867117     1.007825032230
         H           -1.444066717180    -1.862737962601     0.939073867117     1.007825032230
         H           -2.501914717180    -1.960775962601    -0.497337132883     1.007825032230
         H            0.360142282820     1.986590037399    -1.384534132883     1.007825032230

  Basis Set: AUG-CC-PVTZ
    Blend: AUG-CC-PVTZ
  Basis Set: (AUG-CC-PVTZ AUX)
    Blend: AUG-CC-PVTZ-JKFIT
	 Reference Energy          =    -720.2745231769284828 [Eh]
	 Singles Energy            =      -0.0000000000000000 [Eh]
	 Same-Spin Energy          =      -0.4045508660214186 [Eh]
	 Opposite-Spin Energy      =      -1.2301881817163363 [Eh]
	 Correlation Energy        =      -1.6347390477377548 [Eh]
	 Total Energy              =    -721.9092622246662359 [Eh]

	 ================> DF-SCS-MP2 Energies <==================
	-----------------------------------------------------------
	 SCS Same-Spin Scale       =       0.3333333333333333 [-]
	 SCS Opposite-Spin Scale   =       1.2000000000000000 [-]
	 SCS Same-Spin Energy      =      -0.1348502886738062 [Eh]
	 SCS Opposite-Spin Energy  =      -1.4762258180596035 [Eh]
	 SCS Correlation Energy    =      -1.6110761067334096 [Eh]
	 SCS Total Energy          =    -721.8855992836619180 [Eh]
	-----------------------------------------------------------

  Dipole Moment: [D]
     X:     0.6867      Y:    -2.4277      Z:    -2.4612     Total:     3.5246

*** Psi4 exiting successfully. Buy a developer a beer!
