                               Psi4 1.3.2 release

  ==> Input File <==

--------------------------------------------------------------------------
#psi4
#
memory 32 gb

molecule  {
0 1
  P       -0.0357750     0.4680410     0.0705770
  O        1.0526934    -0.5079240     0.7289237
  O       -0.9551898    -0.6491980    -0.6582281
  O        0.7512110     1.1173330    -1.1929150
  O       -0.7044350     1.4170700     0.9839100
  C        1.8748370    -1.3345260    -0.0598200
  C       -1.9591270    -1.2882720     0.1502070
  H        1.2215740    -2.0052580    -0.6255210
  H        2.4895380    -1.9045040     0.6353170
  H        2.5026780    -0.7584230    -0.7438410
  H       -2.6431830    -0.5774540     0.6174740
  H       -1.4396990    -1.8621430     0.9229490
  H       -2.4975470    -1.9601810    -0.5134620
  H        0.3645100     1.9871850    -1.4006590
units angstrom
no_reorient  #important for SAPT in psi4, default
symmetry c1  #important for SAPT in psi4, default
}

set PROPERTIES_ORIGIN ["COM"]
properties('MP2/aug-cc-pvtz', properties = ['dipole'])
--------------------------------------------------------------------------

    Molecular point group: c1
  Charge       = 0
  Multiplicity = 1
  Basis Set: AUG-CC-PVTZ
    Blend: AUG-CC-PVTZ
  Basis Set: (AUG-CC-PVTZ AUX)
    Blend: AUG-CC-PVTZ-JKFIT

    Orbital Energies [Eh]
    ---------------------

    Doubly Occupied:

       1A    -80.113130     2A    -20.613305     3A    -20.592551
       4A    -20.591902     5A    -20.523183     6A    -11.295517
       7A    -11.293984     8A     -7.628435     9A     -5.526980
      10A     -5.526575    11A     -5.525374    12A     -1.454796
      13A     -1.389197    14A     -1.380713    15A     -1.303108
      16A     -0.974035    17A     -0.953593    18A     -0.818570
      19A     -0.734084    20A     -0.710822    21A     -0.683602
      22A     -0.658166    23A     -0.647042    24A     -0.634844
      25A     -0.626813    26A     -0.575739    27A     -0.566000
      28A     -0.537640    29A     -0.516093    30A     -0.494767
      31A     -0.481867    32A     -0.476389    33A     -0.468466

  @DF-RHF Final Energy:  -720.27873785960799

   => Energetics <=

    Nuclear Repulsion Energy =            452.4861105702688064
    One-Electron Energy =               -1892.8951356593740911
    Two-Electron Energy =                 720.1302872294974122
    Total Energy =                       -720.2787378596079861
  Basis Set: (AUG-CC-PVTZ AUX)
    Blend: AUG-CC-PVTZ-RI
    Molecular point group: c1

    Geometry (in Angstrom), charge = 0, multiplicity = 1:

       Center              X                  Y                   Z               Mass
    ------------   -----------------  -----------------  -----------------  -----------------
         P           -0.037251315785     0.484573883141     0.071037120613    30.973761998420
         O            1.051217084215    -0.491391116859     0.729383820613    15.994914619570
         O           -0.956666115785    -0.632665116859    -0.657767979387    15.994914619570
         O            0.749734684215     1.133865883141    -1.192454879387    15.994914619570
         O           -0.705911315785     1.433602883141     0.984370120613    15.994914619570
         C            1.873360684215    -1.317993116859    -0.059359879387    12.000000000000
         C           -1.960603315785    -1.271739116859     0.150667120613    12.000000000000
         H            1.220097684215    -1.988725116859    -0.625060879387     1.007825032230
         H            2.488061684215    -1.887971116859     0.635777120613     1.007825032230
         H            2.501201684215    -0.741890116859    -0.743380879387     1.007825032230
         H           -2.644659315785    -0.560921116859     0.617934120613     1.007825032230
         H           -1.441175315785    -1.845610116859     0.923409120613     1.007825032230
         H           -2.499023315785    -1.943648116859    -0.513001879387     1.007825032230
         H            0.363033684215     2.003717883141    -1.400198879387     1.007825032230

  Basis Set: AUG-CC-PVTZ
    Blend: AUG-CC-PVTZ
  Basis Set: (AUG-CC-PVTZ AUX)
    Blend: AUG-CC-PVTZ-JKFIT
	 Reference Energy          =    -720.2787378596079861 [Eh]
	 Singles Energy            =      -0.0000000000000000 [Eh]
	 Same-Spin Energy          =      -0.4043426704878700 [Eh]
	 Opposite-Spin Energy      =      -1.2292785884093687 [Eh]
	 Correlation Energy        =      -1.6336212588972387 [Eh]
	 Total Energy              =    -721.9123591185052646 [Eh]

	 ================> DF-SCS-MP2 Energies <==================
	-----------------------------------------------------------
	 SCS Same-Spin Scale       =       0.3333333333333333 [-]
	 SCS Opposite-Spin Scale   =       1.2000000000000000 [-]
	 SCS Same-Spin Energy      =      -0.1347808901626233 [Eh]
	 SCS Opposite-Spin Energy  =      -1.4751343060912423 [Eh]
	 SCS Correlation Energy    =      -1.6099151962538656 [Eh]
	 SCS Total Energy          =    -721.8886530558618233 [Eh]
	-----------------------------------------------------------

  Dipole Moment: [D]
     X:     0.3885      Y:    -2.1045      Z:    -1.9143     Total:     2.8712

*** Psi4 exiting successfully. Buy a developer a beer!
