                               Psi4 1.3.2 release

  ==> Input File <==

--------------------------------------------------------------------------
#psi4
#
memory 32 gb

molecule  {
0 1
  P       -0.0612514     0.4549297     0.1193299
  O        1.0907140    -0.4402950     0.7609680
  O       -1.0048410    -0.5865790    -0.6866490
  O        0.7512110     1.1173330    -1.1929150
  O       -0.7044350     1.4170700     0.9839100
  C        1.8748370    -1.3345260    -0.0598200
  C       -1.9411176    -1.2631367     0.1902881
  H        1.2215740    -2.0052580    -0.6255210
  H        2.4895380    -1.9045040     0.6353170
  H        2.5026780    -0.7584230    -0.7438410
  H       -2.6431830    -0.5774540     0.6174740
  H       -1.4396990    -1.8621430     0.9229490
  H       -2.4975470    -1.9601810    -0.5134620
  H        0.3645100     1.9871850    -1.4006590
units angstrom
no_reorient  #important for SAPT in psi4, default
symmetry c1  #important for SAPT in psi4, default
}

set PROPERTIES_ORIGIN ["COM"]
properties('MP2/aug-cc-pvtz', properties = ['dipole'])
--------------------------------------------------------------------------

    Molecular point group: c1
  Charge       = 0
  Multiplicity = 1
  Basis Set: AUG-CC-PVTZ
    Blend: AUG-CC-PVTZ
  Basis Set: (AUG-CC-PVTZ AUX)
    Blend: AUG-CC-PVTZ-JKFIT

    Orbital Energies [Eh]
    ---------------------

    Doubly Occupied:

       1A    -80.107849     2A    -20.601065     3A    -20.600703
       4A    -20.592680     5A    -20.522882     6A    -11.302221
       7A    -11.300497     8A     -7.624362     9A     -5.522616
      10A     -5.522254    11A     -5.521596    12A     -1.447828
      13A     -1.385209    14A     -1.362786    15A     -1.316060
      16A     -0.973784    17A     -0.958770    18A     -0.808827
      19A     -0.726235    20A     -0.709580    21A     -0.680709
      22A     -0.650304    23A     -0.641198    24A     -0.633606
      25A     -0.625515    26A     -0.574698    27A     -0.546424
      28A     -0.543424    29A     -0.517724    30A     -0.504916
      31A     -0.493503    32A     -0.481922    33A     -0.477039

  @DF-RHF Final Energy:  -720.27394475754886

   => Energetics <=

    Nuclear Repulsion Energy =            451.5470048406767205
    One-Electron Energy =               -1891.0843251733144825
    Two-Electron Energy =                 719.2633755750889577
    Total Energy =                       -720.2739447575488612
  Basis Set: (AUG-CC-PVTZ AUX)
    Blend: AUG-CC-PVTZ-RI
    Molecular point group: c1

    Geometry (in Angstrom), charge = 0, multiplicity = 1:

       Center              X                  Y                   Z               Mass
    ------------   -----------------  -----------------  -----------------  -----------------
         P           -0.056704158350     0.455758660530     0.103529253735    30.973761998420
         O            1.095261241650    -0.439466039470     0.745167353735    15.994914619570
         O           -1.000293758350    -0.585750039470    -0.702449646265    15.994914619570
         O            0.755758241650     1.118161960530    -1.208715646265    15.994914619570
         O           -0.699887758350     1.417898960530     0.968109353735    15.994914619570
         C            1.879384241650    -1.333697039470    -0.075620646265    12.000000000000
         C           -1.936570358350    -1.262307739470     0.174487453735    12.000000000000
         H            1.226121241650    -2.004429039470    -0.641321646265     1.007825032230
         H            2.494085241650    -1.903675039470     0.619516353735     1.007825032230
         H            2.507225241650    -0.757594039470    -0.759641646265     1.007825032230
         H           -2.638635758350    -0.576625039470     0.601673353735     1.007825032230
         H           -1.435151758350    -1.861314039470     0.907148353735     1.007825032230
         H           -2.492999758350    -1.959352039470    -0.529262646265     1.007825032230
         H            0.369057241650     1.988013960530    -1.416459646265     1.007825032230

  Basis Set: AUG-CC-PVTZ
    Blend: AUG-CC-PVTZ
  Basis Set: (AUG-CC-PVTZ AUX)
    Blend: AUG-CC-PVTZ-JKFIT
	 Reference Energy          =    -720.2739447575488612 [Eh]
	 Singles Energy            =      -0.0000000000000000 [Eh]
	 Same-Spin Energy          =      -0.4042729180525390 [Eh]
	 Opposite-Spin Energy      =      -1.2303853720749895 [Eh]
	 Correlation Energy        =      -1.6346582901275286 [Eh]
	 Total Energy              =    -721.9086030476763653 [Eh]

	 ================> DF-SCS-MP2 Energies <==================
	-----------------------------------------------------------
	 SCS Same-Spin Scale       =       0.3333333333333333 [-]
	 SCS Opposite-Spin Scale   =       1.2000000000000000 [-]
	 SCS Same-Spin Energy      =      -0.1347576393508463 [Eh]
	 SCS Opposite-Spin Energy  =      -1.4764624464899874 [Eh]
	 SCS Correlation Energy    =      -1.6112200858408336 [Eh]
	 SCS Total Energy          =    -721.8851648433897026 [Eh]
	-----------------------------------------------------------

  Dipole Moment: [D]
     X:     0.2624      Y:    -2.7043      Z:    -1.4441     Total:     3.0769

*** Psi4 exiting successfully. Buy a developer a beer!
