                               Psi4 1.3.2 release

  ==> Input File <==

--------------------------------------------------------------------------
#psi4
#
memory 32 gb

molecule  {
0 1
  P       -0.0357750     0.4680410     0.0705770
  O        1.0907140    -0.4402950     0.7609680
  O       -1.0157736    -0.5646395    -0.6803369
  O        0.7512110     1.1173330    -1.1929150
  O       -0.7044350     1.4170700     0.9839100
  C        1.8748370    -1.3345260    -0.0598200
  C       -1.9591270    -1.2882720     0.1502070
  H        1.2215740    -2.0052580    -0.6255210
  H        2.4895380    -1.9045040     0.6353170
  H        2.5026780    -0.7584230    -0.7438410
  H       -2.6341053    -0.5631957     0.6086849
  H       -1.4396990    -1.8621430     0.9229490
  H       -2.4975470    -1.9601810    -0.5134620
  H        0.3645100     1.9871850    -1.4006590
units angstrom
no_reorient  #important for SAPT in psi4, default
symmetry c1  #important for SAPT in psi4, default
}

set PROPERTIES_ORIGIN ["COM"]
properties('MP2/aug-cc-pvtz', properties = ['dipole'])
--------------------------------------------------------------------------

    Molecular point group: c1
  Charge       = 0
  Multiplicity = 1
  Basis Set: AUG-CC-PVTZ
    Blend: AUG-CC-PVTZ
  Basis Set: (AUG-CC-PVTZ AUX)
    Blend: AUG-CC-PVTZ-JKFIT

    Orbital Energies [Eh]
    ---------------------

    Doubly Occupied:

       1A    -80.108198     2A    -20.607664     3A    -20.598917
       4A    -20.596035     5A    -20.513295     6A    -11.301253
       7A    -11.299373     8A     -7.623888     9A     -5.522376
      10A     -5.521926    11A     -5.520901    12A     -1.450766
      13A     -1.382668    14A     -1.381736    15A     -1.294717
      16A     -0.973356    17A     -0.958130    18A     -0.817362
      19A     -0.732239    20A     -0.709061    21A     -0.678825
      22A     -0.657114    23A     -0.642475    24A     -0.633457
      25A     -0.629990    26A     -0.571861    27A     -0.559585
      28A     -0.542889    29A     -0.519306    30A     -0.500545
      31A     -0.490750    32A     -0.469352    33A     -0.463171

  @DF-RHF Final Energy:  -720.28219700030570

   => Energetics <=

    Nuclear Repulsion Energy =            451.4604236671865465
    One-Electron Energy =               -1890.9388752865052084
    Two-Electron Energy =                 719.1962546190128478
    Total Energy =                       -720.2821970003057004
  Basis Set: (AUG-CC-PVTZ AUX)
    Blend: AUG-CC-PVTZ-RI
    Molecular point group: c1

    Geometry (in Angstrom), charge = 0, multiplicity = 1:

       Center              X                  Y                   Z               Mass
    ------------   -----------------  -----------------  -----------------  -----------------
         P           -0.034459848752     0.465141845990     0.069846248873    30.973761998420
         O            1.092029151248    -0.443194154010     0.760237248873    15.994914619570
         O           -1.014458448752    -0.567538654010    -0.681067651127    15.994914619570
         O            0.752526151248     1.114433845990    -1.193645751127    15.994914619570
         O           -0.703119848752     1.414170845990     0.983179248873    15.994914619570
         C            1.876152151248    -1.337425154010    -0.060550751127    12.000000000000
         C           -1.957811848752    -1.291171154010     0.149476248873    12.000000000000
         H            1.222889151248    -2.008157154010    -0.626251751127     1.007825032230
         H            2.490853151248    -1.907403154010     0.634586248873     1.007825032230
         H            2.503993151248    -0.761322154010    -0.744571751127     1.007825032230
         H           -2.632790148752    -0.566094854010     0.607954148873     1.007825032230
         H           -1.438383848752    -1.865042154010     0.922218248873     1.007825032230
         H           -2.496231848752    -1.963080154010    -0.514192751127     1.007825032230
         H            0.365825151248     1.984285845990    -1.401389751127     1.007825032230

  Basis Set: AUG-CC-PVTZ
    Blend: AUG-CC-PVTZ
  Basis Set: (AUG-CC-PVTZ AUX)
    Blend: AUG-CC-PVTZ-JKFIT
	 Reference Energy          =    -720.2821970003057004 [Eh]
	 Singles Energy            =      -0.0000000000000000 [Eh]
	 Same-Spin Energy          =      -0.4040929447065970 [Eh]
	 Opposite-Spin Energy      =      -1.2294927562065128 [Eh]
	 Correlation Energy        =      -1.6335857009131098 [Eh]
	 Total Energy              =    -721.9157827012188591 [Eh]

	 ================> DF-SCS-MP2 Energies <==================
	-----------------------------------------------------------
	 SCS Same-Spin Scale       =       0.3333333333333333 [-]
	 SCS Opposite-Spin Scale   =       1.2000000000000000 [-]
	 SCS Same-Spin Energy      =      -0.1346976482355323 [Eh]
	 SCS Opposite-Spin Energy  =      -1.4753913074478153 [Eh]
	 SCS Correlation Energy    =      -1.6100889556833478 [Eh]
	 SCS Total Energy          =    -721.8922859559889957 [Eh]
	-----------------------------------------------------------

  Dipole Moment: [D]
     X:     0.4790      Y:    -2.6469      Z:    -1.9763     Total:     3.3379

*** Psi4 exiting successfully. Buy a developer a beer!
