                               Psi4 1.3.2 release

  ==> Input File <==

--------------------------------------------------------------------------
#psi4
#
memory 32 gb

molecule  {
0 1
  P       -0.0357750     0.4680410     0.0705770
  O        1.0801583    -0.4456730     0.7566461
  O       -1.0048410    -0.5865790    -0.6866490
  O        0.7512110     1.1173330    -1.1929150
  O       -0.7044350     1.4170700     0.9839100
  C        1.8748370    -1.3345260    -0.0598200
  C       -1.9591270    -1.2882720     0.1502070
  H        1.2139473    -2.0011091    -0.6215524
  H        2.4895380    -1.9045040     0.6353170
  H        2.5026780    -0.7584230    -0.7438410
  H       -2.6431830    -0.5774540     0.6174740
  H       -1.4396990    -1.8621430     0.9229490
  H       -2.4975470    -1.9601810    -0.5134620
  H        0.3645100     1.9871850    -1.4006590
units angstrom
no_reorient  #important for SAPT in psi4, default
symmetry c1  #important for SAPT in psi4, default
}

set PROPERTIES_ORIGIN ["COM"]
properties('MP2/aug-cc-pvtz', properties = ['dipole'])
--------------------------------------------------------------------------

    Molecular point group: c1
  Charge       = 0
  Multiplicity = 1
  Basis Set: AUG-CC-PVTZ
    Blend: AUG-CC-PVTZ
  Basis Set: (AUG-CC-PVTZ AUX)
    Blend: AUG-CC-PVTZ-JKFIT

    Orbital Energies [Eh]
    ---------------------

    Doubly Occupied:

       1A    -80.108845     2A    -20.608307     3A    -20.598359
       4A    -20.595450     5A    -20.515122     6A    -11.301477
       7A    -11.297991     8A     -7.624471     9A     -5.522975
      10A     -5.522510    11A     -5.521471    12A     -1.450616
      13A     -1.383322    14A     -1.379789    15A     -1.296134
      16A     -0.973006    17A     -0.957154    18A     -0.817568
      19A     -0.731840    20A     -0.708705    21A     -0.679158
      22A     -0.656058    23A     -0.642613    24A     -0.632355
      25A     -0.629259    26A     -0.571949    27A     -0.560446
      28A     -0.542905    29A     -0.518819    30A     -0.500275
      31A     -0.489497    32A     -0.470734    33A     -0.464527

  @DF-RHF Final Energy:  -720.28187698290071

   => Energetics <=

    Nuclear Repulsion Energy =            451.4147383156569049
    One-Electron Energy =               -1890.8458164120465881
    Two-Electron Energy =                 719.1492011134889708
    Total Energy =                       -720.2818769829007124
  Basis Set: (AUG-CC-PVTZ AUX)
    Blend: AUG-CC-PVTZ-RI
    Molecular point group: c1

    Geometry (in Angstrom), charge = 0, multiplicity = 1:

       Center              X                  Y                   Z               Mass
    ------------   -----------------  -----------------  -----------------  -----------------
         P           -0.034374087432     0.468690262694     0.071094043842    30.973761998420
         O            1.081559212568    -0.445023737306     0.757163143842    15.994914619570
         O           -1.003440087432    -0.585929737306    -0.686131956158    15.994914619570
         O            0.752611912568     1.117982262694    -1.192397956158    15.994914619570
         O           -0.703034087432     1.417719262694     0.984427043842    15.994914619570
         C            1.876237912568    -1.333876737306    -0.059302956158    12.000000000000
         C           -1.957726087432    -1.287622737306     0.150724043842    12.000000000000
         H            1.215348212568    -2.000459837306    -0.621035356158     1.007825032230
         H            2.490938912568    -1.903854737306     0.635834043842     1.007825032230
         H            2.504078912568    -0.757773737306    -0.743323956158     1.007825032230
         H           -2.641782087432    -0.576804737306     0.617991043842     1.007825032230
         H           -1.438298087432    -1.861493737306     0.923466043842     1.007825032230
         H           -2.496146087432    -1.959531737306    -0.512944956158     1.007825032230
         H            0.365910912568     1.987834262694    -1.400141956158     1.007825032230

  Basis Set: AUG-CC-PVTZ
    Blend: AUG-CC-PVTZ
  Basis Set: (AUG-CC-PVTZ AUX)
    Blend: AUG-CC-PVTZ-JKFIT
	 Reference Energy          =    -720.2818769829007124 [Eh]
	 Singles Energy            =      -0.0000000000000000 [Eh]
	 Same-Spin Energy          =      -0.4041957192615716 [Eh]
	 Opposite-Spin Energy      =      -1.2297256250247774 [Eh]
	 Correlation Energy        =      -1.6339213442863492 [Eh]
	 Total Energy              =    -721.9157983271870762 [Eh]

	 ================> DF-SCS-MP2 Energies <==================
	-----------------------------------------------------------
	 SCS Same-Spin Scale       =       0.3333333333333333 [-]
	 SCS Opposite-Spin Scale   =       1.2000000000000000 [-]
	 SCS Same-Spin Energy      =      -0.1347319064205239 [Eh]
	 SCS Opposite-Spin Energy  =      -1.4756707500297328 [Eh]
	 SCS Correlation Energy    =      -1.6104026564502567 [Eh]
	 SCS Total Energy          =    -721.8922796393509316 [Eh]
	-----------------------------------------------------------

  Dipole Moment: [D]
     X:     0.5265      Y:    -2.5587      Z:    -1.9375     Total:     3.2524

*** Psi4 exiting successfully. Buy a developer a beer!
