                               Psi4 1.3.2 release

  ==> Input File <==

--------------------------------------------------------------------------
#psi4
#
memory 32 gb

molecule  {
0 1
  P       -0.0357750     0.4680410     0.0705770
  O        1.0882012    -0.4340001     0.7732084
  O       -1.0048410    -0.5865790    -0.6866490
  O        0.7512110     1.1173330    -1.1929150
  O       -0.6971190     1.4127903     0.9936221
  C        1.8748370    -1.3345260    -0.0598200
  C       -1.9591270    -1.2882720     0.1502070
  H        1.2215740    -2.0052580    -0.6255210
  H        2.4895380    -1.9045040     0.6353170
  H        2.5026780    -0.7584230    -0.7438410
  H       -2.6431830    -0.5774540     0.6174740
  H       -1.4396990    -1.8621430     0.9229490
  H       -2.4975470    -1.9601810    -0.5134620
  H        0.3645100     1.9871850    -1.4006590
units angstrom
no_reorient  #important for SAPT in psi4, default
symmetry c1  #important for SAPT in psi4, default
}

set PROPERTIES_ORIGIN ["COM"]
properties('MP2/aug-cc-pvtz', properties = ['dipole'])
--------------------------------------------------------------------------

    Molecular point group: c1
  Charge       = 0
  Multiplicity = 1
  Basis Set: AUG-CC-PVTZ
    Blend: AUG-CC-PVTZ
  Basis Set: (AUG-CC-PVTZ AUX)
    Blend: AUG-CC-PVTZ-JKFIT

    Orbital Energies [Eh]
    ---------------------

    Doubly Occupied:

       1A    -80.108846     2A    -20.608838     3A    -20.598538
       4A    -20.596987     5A    -20.514117     6A    -11.301966
       7A    -11.298554     8A     -7.624421     9A     -5.522881
      10A     -5.522432    11A     -5.521447    12A     -1.448947
      13A     -1.381781    14A     -1.379252    15A     -1.295223
      16A     -0.971647    17A     -0.957319    18A     -0.817726
      19A     -0.731495    20A     -0.707542    21A     -0.677346
      22A     -0.655845    23A     -0.641445    24A     -0.631933
      25A     -0.627578    26A     -0.571438    27A     -0.560966
      28A     -0.543393    29A     -0.519527    30A     -0.500632
      31A     -0.490428    32A     -0.469725    33A     -0.464154

  @DF-RHF Final Energy:  -720.28095229472592

   => Energetics <=

    Nuclear Repulsion Energy =            450.9105448810174721
    One-Electron Energy =               -1889.8542581421199884
    Two-Electron Energy =                 718.6627609663764815
    Total Energy =                       -720.2809522947259211
  Basis Set: (AUG-CC-PVTZ AUX)
    Blend: AUG-CC-PVTZ-RI
    Molecular point group: c1

    Geometry (in Angstrom), charge = 0, multiplicity = 1:

       Center              X                  Y                   Z               Mass
    ------------   -----------------  -----------------  -----------------  -----------------
         P           -0.036384676282     0.467784986360     0.067790630696    30.973761998420
         O            1.087591523718    -0.434256113640     0.770422030696    15.994914619570
         O           -1.005450676282    -0.586835013640    -0.689435369304    15.994914619570
         O            0.750601323718     1.117076986360    -1.195701369304    15.994914619570
         O           -0.697728676282     1.412534286360     0.990835730696    15.994914619570
         C            1.874227323718    -1.334782013640    -0.062606369304    12.000000000000
         C           -1.959736676282    -1.288528013640     0.147420630696    12.000000000000
         H            1.220964323718    -2.005514013640    -0.628307369304     1.007825032230
         H            2.488928323718    -1.904760013640     0.632530630696     1.007825032230
         H            2.502068323718    -0.758679013640    -0.746627369304     1.007825032230
         H           -2.643792676282    -0.577710013640     0.614687630696     1.007825032230
         H           -1.440308676282    -1.862399013640     0.920162630696     1.007825032230
         H           -2.498156676282    -1.960437013640    -0.516248369304     1.007825032230
         H            0.363900323718     1.986928986360    -1.403445369304     1.007825032230

  Basis Set: AUG-CC-PVTZ
    Blend: AUG-CC-PVTZ
  Basis Set: (AUG-CC-PVTZ AUX)
    Blend: AUG-CC-PVTZ-JKFIT
	 Reference Energy          =    -720.2809522947259211 [Eh]
	 Singles Energy            =      -0.0000000000000000 [Eh]
	 Same-Spin Energy          =      -0.4043250389542604 [Eh]
	 Opposite-Spin Energy      =      -1.2302436394433236 [Eh]
	 Correlation Energy        =      -1.6345686783975839 [Eh]
	 Total Energy              =    -721.9155209731235345 [Eh]

	 ================> DF-SCS-MP2 Energies <==================
	-----------------------------------------------------------
	 SCS Same-Spin Scale       =       0.3333333333333333 [-]
	 SCS Opposite-Spin Scale   =       1.2000000000000000 [-]
	 SCS Same-Spin Energy      =      -0.1347750129847534 [Eh]
	 SCS Opposite-Spin Energy  =      -1.4762923673319883 [Eh]
	 SCS Correlation Energy    =      -1.6110673803167417 [Eh]
	 SCS Total Energy          =    -721.8920196750426612 [Eh]
	-----------------------------------------------------------

  Dipole Moment: [D]
     X:     0.4837      Y:    -2.5878      Z:    -2.0131     Total:     3.3141

*** Psi4 exiting successfully. Buy a developer a beer!
