                               Psi4 1.3.2 release

  ==> Input File <==

--------------------------------------------------------------------------
#psi4
#
memory 32 gb

molecule  {
0 1
  P       -0.0357750     0.4680410     0.0705770
  O        1.0204550    -0.3836422     0.7179084
  O       -1.0048410    -0.5865790    -0.6866490
  O        0.7512110     1.1173330    -1.1929150
  O       -0.7044350     1.4170700     0.9839100
  C        1.8748370    -1.3345260    -0.0598200
  C       -1.9591270    -1.2882720     0.1502070
  H        1.2215740    -2.0052580    -0.6255210
  H        2.4895380    -1.9045040     0.6353170
  H        2.5026780    -0.7584230    -0.7438410
  H       -2.6431830    -0.5774540     0.6174740
  H       -1.4396990    -1.8621430     0.9229490
  H       -2.4975470    -1.9601810    -0.5134620
  H        0.3645100     1.9871850    -1.4006590
units angstrom
no_reorient  #important for SAPT in psi4, default
symmetry c1  #important for SAPT in psi4, default
}

set PROPERTIES_ORIGIN ["COM"]
properties('MP2/aug-cc-pvtz', properties = ['dipole'])
--------------------------------------------------------------------------

    Molecular point group: c1
  Charge       = 0
  Multiplicity = 1
  Basis Set: AUG-CC-PVTZ
    Blend: AUG-CC-PVTZ
  Basis Set: (AUG-CC-PVTZ AUX)
    Blend: AUG-CC-PVTZ-JKFIT

    Orbital Energies [Eh]
    ---------------------

    Doubly Occupied:

       1A    -80.092847     2A    -20.599866     3A    -20.599010
       4A    -20.587263     5A    -20.504461     6A    -11.317563
       7A    -11.294422     8A     -7.611124     9A     -5.509995
      10A     -5.508998    11A     -5.507937    12A     -1.460448
      13A     -1.383871    14A     -1.373611    15A     -1.286789
      16A     -0.985222    17A     -0.956682    18A     -0.812774
      19A     -0.733116    20A     -0.710193    21A     -0.682415
      22A     -0.652714    23A     -0.642777    24A     -0.630388
      25A     -0.625936    26A     -0.566616    27A     -0.556748
      28A     -0.552796    29A     -0.521180    30A     -0.506925
      31A     -0.489455    32A     -0.461688    33A     -0.455985

  @DF-RHF Final Energy:  -720.27821989611039

   => Energetics <=

    Nuclear Repulsion Energy =            454.5249028293604283
    One-Electron Energy =               -1897.2426110471444645
    Two-Electron Energy =                 722.4394883216737071
    Total Energy =                       -720.2782198961103859
  Basis Set: (AUG-CC-PVTZ AUX)
    Blend: AUG-CC-PVTZ-RI
    Molecular point group: c1

    Geometry (in Angstrom), charge = 0, multiplicity = 1:

       Center              X                  Y                   Z               Mass
    ------------   -----------------  -----------------  -----------------  -----------------
         P           -0.026856617623     0.460849534724     0.076042974783    30.973761998420
         O            1.029373382377    -0.390833665276     0.723374374783    15.994914619570
         O           -0.995922617623    -0.593770465276    -0.681183025217    15.994914619570
         O            0.760129382377     1.110141534724    -1.187449025217    15.994914619570
         O           -0.695516617623     1.409878534724     0.989375974783    15.994914619570
         C            1.883755382377    -1.341717465276    -0.054354025217    12.000000000000
         C           -1.950208617623    -1.295463465276     0.155672974783    12.000000000000
         H            1.230492382377    -2.012449465276    -0.620055025217     1.007825032230
         H            2.498456382377    -1.911695465276     0.640782974783     1.007825032230
         H            2.511596382377    -0.765614465276    -0.738375025217     1.007825032230
         H           -2.634264617623    -0.584645465276     0.622939974783     1.007825032230
         H           -1.430780617623    -1.869334465276     0.928414974783     1.007825032230
         H           -2.488628617623    -1.967372465276    -0.507996025217     1.007825032230
         H            0.373428382377     1.979993534724    -1.395193025217     1.007825032230

  Basis Set: AUG-CC-PVTZ
    Blend: AUG-CC-PVTZ
  Basis Set: (AUG-CC-PVTZ AUX)
    Blend: AUG-CC-PVTZ-JKFIT
	 Reference Energy          =    -720.2782198961103859 [Eh]
	 Singles Energy            =      -0.0000000000000000 [Eh]
	 Same-Spin Energy          =      -0.4032112610871874 [Eh]
	 Opposite-Spin Energy      =      -1.2272877807641627 [Eh]
	 Correlation Energy        =      -1.6304990418513501 [Eh]
	 Total Energy              =    -721.9087189379616802 [Eh]

	 ================> DF-SCS-MP2 Energies <==================
	-----------------------------------------------------------
	 SCS Same-Spin Scale       =       0.3333333333333333 [-]
	 SCS Opposite-Spin Scale   =       1.2000000000000000 [-]
	 SCS Same-Spin Energy      =      -0.1344037536957291 [Eh]
	 SCS Opposite-Spin Energy  =      -1.4727453369169952 [Eh]
	 SCS Correlation Energy    =      -1.6071490906127244 [Eh]
	 SCS Total Energy          =    -721.8853689867231651 [Eh]
	-----------------------------------------------------------

  Dipole Moment: [D]
     X:     1.0918      Y:    -3.0264      Z:    -1.8484     Total:     3.7105

*** Psi4 exiting successfully. Buy a developer a beer!
