                               Psi4 1.3.2 release

  ==> Input File <==

--------------------------------------------------------------------------
#psi4
#
memory 32 gb

molecule  {
0 1
  P       -0.0357750     0.4680410     0.0705770
  O        1.0907140    -0.4402950     0.7609680
  O       -0.9738002    -0.6536528    -0.7040484
  O        0.7512110     1.1173330    -1.1929150
  O       -0.7044350     1.4170700     0.9839100
  C        1.8748370    -1.3345260    -0.0598200
  C       -1.9591270    -1.2882720     0.1502070
  H        1.2215740    -2.0052580    -0.6255210
  H        2.4895380    -1.9045040     0.6353170
  H        2.5026780    -0.7584230    -0.7438410
  H       -2.6691551    -0.6215103     0.6429769
  H       -1.4396990    -1.8621430     0.9229490
  H       -2.4975470    -1.9601810    -0.5134620
  H        0.3645100     1.9871850    -1.4006590
units angstrom
no_reorient  #important for SAPT in psi4, default
symmetry c1  #important for SAPT in psi4, default
}

set PROPERTIES_ORIGIN ["COM"]
properties('MP2/aug-cc-pvtz', properties = ['dipole'])
--------------------------------------------------------------------------

    Molecular point group: c1
  Charge       = 0
  Multiplicity = 1
  Basis Set: AUG-CC-PVTZ
    Blend: AUG-CC-PVTZ
  Basis Set: (AUG-CC-PVTZ AUX)
    Blend: AUG-CC-PVTZ-JKFIT

    Orbital Energies [Eh]
    ---------------------

    Doubly Occupied:

       1A    -80.113886     2A    -20.610816     3A    -20.598036
       4A    -20.597634     5A    -20.521813     6A    -11.299693
       7A    -11.295501     8A     -7.628908     9A     -5.527387
      10A     -5.526927    11A     -5.525864    12A     -1.447843
      13A     -1.383660    14A     -1.374609    15A     -1.301423
      16A     -0.969854    17A     -0.953660    18A     -0.819340
      19A     -0.730446    20A     -0.707060    21A     -0.677624
      22A     -0.654057    23A     -0.641929    24A     -0.632701
      25A     -0.621575    26A     -0.574030    27A     -0.563590
      28A     -0.542304    29A     -0.516948    30A     -0.498023
      31A     -0.486291    32A     -0.475466    33A     -0.469782

  @DF-RHF Final Energy:  -720.27598587391890

   => Energetics <=

    Nuclear Repulsion Energy =            449.9906336156343514
    One-Electron Energy =               -1887.9558814403962970
    Two-Electron Energy =                 717.6892619508430471
    Total Energy =                       -720.2759858739188985
  Basis Set: (AUG-CC-PVTZ AUX)
    Blend: AUG-CC-PVTZ-RI
    Molecular point group: c1

    Geometry (in Angstrom), charge = 0, multiplicity = 1:

       Center              X                  Y                   Z               Mass
    ------------   -----------------  -----------------  -----------------  -----------------
         P           -0.039507432204     0.476907200131     0.072581809684    30.973761998420
         O            1.086981567796    -0.431428799869     0.762972809684    15.994914619570
         O           -0.977532632204    -0.644786599869    -0.702043590316    15.994914619570
         O            0.747478567796     1.126199200131    -1.190910190316    15.994914619570
         O           -0.708167432204     1.425936200131     0.985914809684    15.994914619570
         C            1.871104567796    -1.325659799869    -0.057815190316    12.000000000000
         C           -1.962859432204    -1.279405799869     0.152211809684    12.000000000000
         H            1.217841567796    -1.996391799869    -0.623516190316     1.007825032230
         H            2.485805567796    -1.895637799869     0.637321809684     1.007825032230
         H            2.498945567796    -0.749556799869    -0.741836190316     1.007825032230
         H           -2.672887532204    -0.612644099869     0.644981709684     1.007825032230
         H           -1.443431432204    -1.853276799869     0.924953809684     1.007825032230
         H           -2.501279432204    -1.951314799869    -0.511457190316     1.007825032230
         H            0.360777567796     1.996051200131    -1.398654190316     1.007825032230

  Basis Set: AUG-CC-PVTZ
    Blend: AUG-CC-PVTZ
  Basis Set: (AUG-CC-PVTZ AUX)
    Blend: AUG-CC-PVTZ-JKFIT
	 Reference Energy          =    -720.2759858739188985 [Eh]
	 Singles Energy            =      -0.0000000000000000 [Eh]
	 Same-Spin Energy          =      -0.4049420348991920 [Eh]
	 Opposite-Spin Energy      =      -1.2316571132312641 [Eh]
	 Correlation Energy        =      -1.6365991481304563 [Eh]
	 Total Energy              =    -721.9125850220493703 [Eh]

	 ================> DF-SCS-MP2 Energies <==================
	-----------------------------------------------------------
	 SCS Same-Spin Scale       =       0.3333333333333333 [-]
	 SCS Opposite-Spin Scale   =       1.2000000000000000 [-]
	 SCS Same-Spin Energy      =      -0.1349806782997306 [Eh]
	 SCS Opposite-Spin Energy  =      -1.4779885358775169 [Eh]
	 SCS Correlation Energy    =      -1.6129692141772476 [Eh]
	 SCS Total Energy          =    -721.8889550880961679 [Eh]
	-----------------------------------------------------------

  Dipole Moment: [D]
     X:     0.4919      Y:    -2.2959      Z:    -1.8775     Total:     3.0064

*** Psi4 exiting successfully. Buy a developer a beer!
