                               Psi4 1.3.2 release

  ==> Input File <==

--------------------------------------------------------------------------
#psi4
#
memory 32 gb

molecule  {
0 1
  P       -0.0357750     0.4680410     0.0705770
  O        1.0999056    -0.4647782     0.7114899
  O       -1.0048410    -0.5865790    -0.6866490
  O        0.7512110     1.1173330    -1.1929150
  O       -0.7331842     1.4334627     0.9443737
  C        1.8748370    -1.3345260    -0.0598200
  C       -1.9591270    -1.2882720     0.1502070
  H        1.2215740    -2.0052580    -0.6255210
  H        2.4895380    -1.9045040     0.6353170
  H        2.5026780    -0.7584230    -0.7438410
  H       -2.6431830    -0.5774540     0.6174740
  H       -1.4396990    -1.8621430     0.9229490
  H       -2.4975470    -1.9601810    -0.5134620
  H        0.3645100     1.9871850    -1.4006590
units angstrom
no_reorient  #important for SAPT in psi4, default
symmetry c1  #important for SAPT in psi4, default
}

set PROPERTIES_ORIGIN ["COM"]
properties('MP2/aug-cc-pvtz', properties = ['dipole'])
--------------------------------------------------------------------------

    Molecular point group: c1
  Charge       = 0
  Multiplicity = 1
  Basis Set: AUG-CC-PVTZ
    Blend: AUG-CC-PVTZ
  Basis Set: (AUG-CC-PVTZ AUX)
    Blend: AUG-CC-PVTZ-JKFIT

    Orbital Energies [Eh]
    ---------------------

    Doubly Occupied:

       1A    -80.112757     2A    -20.606666     3A    -20.598672
       4A    -20.594472     5A    -20.520685     6A    -11.298122
       7A    -11.296241     8A     -7.628010     9A     -5.526633
      10A     -5.526082    11A     -5.524943    12A     -1.455173
      13A     -1.390762    14A     -1.379557    15A     -1.300810
      16A     -0.976075    17A     -0.956398    18A     -0.818044
      19A     -0.733359    20A     -0.712900    21A     -0.683012
      22A     -0.658655    23A     -0.646871    24A     -0.635065
      25A     -0.632044    26A     -0.575728    27A     -0.558986
      28A     -0.539935    29A     -0.516199    30A     -0.497510
      31A     -0.486002    32A     -0.475202    33A     -0.467704

  @DF-RHF Final Energy:  -720.28062675900651

   => Energetics <=

    Nuclear Repulsion Energy =            451.9549251861152470
    One-Electron Energy =               -1891.8125551864359295
    Two-Electron Energy =                 719.5770032413140598
    Total Energy =                       -720.2806267590065090
  Basis Set: (AUG-CC-PVTZ AUX)
    Blend: AUG-CC-PVTZ-RI
    Molecular point group: c1

    Geometry (in Angstrom), charge = 0, multiplicity = 1:

       Center              X                  Y                   Z               Mass
    ------------   -----------------  -----------------  -----------------  -----------------
         P           -0.033292425704     0.469067758546     0.081876270770    30.973761998420
         O            1.102388174296    -0.463751441454     0.722789170770    15.994914619570
         O           -1.002358425704    -0.585552241454    -0.675349729230    15.994914619570
         O            0.753693574296     1.118359758546    -1.181615729230    15.994914619570
         O           -0.730701625704     1.434489458546     0.955672970770    15.994914619570
         C            1.877319574296    -1.333499241454    -0.048520729230    12.000000000000
         C           -1.956644425704    -1.287245241454     0.161506270770    12.000000000000
         H            1.224056574296    -2.004231241454    -0.614221729230     1.007825032230
         H            2.492020574296    -1.903477241454     0.646616270770     1.007825032230
         H            2.505160574296    -0.757396241454    -0.732541729230     1.007825032230
         H           -2.640700425704    -0.576427241454     0.628773270770     1.007825032230
         H           -1.437216425704    -1.861116241454     0.934248270770     1.007825032230
         H           -2.495064425704    -1.959154241454    -0.502162729230     1.007825032230
         H            0.366992574296     1.988211758546    -1.389359729230     1.007825032230

  Basis Set: AUG-CC-PVTZ
    Blend: AUG-CC-PVTZ
  Basis Set: (AUG-CC-PVTZ AUX)
    Blend: AUG-CC-PVTZ-JKFIT
	 Reference Energy          =    -720.2806267590065090 [Eh]
	 Singles Energy            =      -0.0000000000000000 [Eh]
	 Same-Spin Energy          =      -0.4041639143767096 [Eh]
	 Opposite-Spin Energy      =      -1.2290619468012798 [Eh]
	 Correlation Energy        =      -1.6332258611779893 [Eh]
	 Total Energy              =    -721.9138526201844570 [Eh]

	 ================> DF-SCS-MP2 Energies <==================
	-----------------------------------------------------------
	 SCS Same-Spin Scale       =       0.3333333333333333 [-]
	 SCS Opposite-Spin Scale   =       1.2000000000000000 [-]
	 SCS Same-Spin Energy      =      -0.1347213047922365 [Eh]
	 SCS Opposite-Spin Energy  =      -1.4748743361615357 [Eh]
	 SCS Correlation Energy    =      -1.6095956409537724 [Eh]
	 SCS Total Energy          =    -721.8902223999602938 [Eh]
	-----------------------------------------------------------

  Dipole Moment: [D]
     X:     0.4468      Y:    -2.4411      Z:    -1.6911     Total:     3.0031

*** Psi4 exiting successfully. Buy a developer a beer!
