                               Psi4 1.3.2 release

  ==> Input File <==

--------------------------------------------------------------------------
#psi4
#
memory 32 gb

molecule  {
0 1
  P       -0.0357750     0.4680410     0.0705770
  O        1.1089024    -0.4322783     0.7412710
  O       -1.0048410    -0.5865790    -0.6866490
  O        0.7746223     1.1033383    -1.1852067
  O       -0.7044350     1.4170700     0.9839100
  C        1.8748370    -1.3345260    -0.0598200
  C       -1.9591270    -1.2882720     0.1502070
  H        1.2215740    -2.0052580    -0.6255210
  H        2.4895380    -1.9045040     0.6353170
  H        2.5026780    -0.7584230    -0.7438410
  H       -2.6431830    -0.5774540     0.6174740
  H       -1.4396990    -1.8621430     0.9229490
  H       -2.4975470    -1.9601810    -0.5134620
  H        0.3645100     1.9871850    -1.4006590
units angstrom
no_reorient  #important for SAPT in psi4, default
symmetry c1  #important for SAPT in psi4, default
}

set PROPERTIES_ORIGIN ["COM"]
properties('MP2/aug-cc-pvtz', properties = ['dipole'])
--------------------------------------------------------------------------

    Molecular point group: c1
  Charge       = 0
  Multiplicity = 1
  Basis Set: AUG-CC-PVTZ
    Blend: AUG-CC-PVTZ
  Basis Set: (AUG-CC-PVTZ AUX)
    Blend: AUG-CC-PVTZ-JKFIT

    Orbital Energies [Eh]
    ---------------------

    Doubly Occupied:

       1A    -80.110031     2A    -20.610083     3A    -20.597705
       4A    -20.596044     5A    -20.517915     6A    -11.299297
       7A    -11.297877     8A     -7.625552     9A     -5.524121
      10A     -5.523563    11A     -5.522519    12A     -1.450374
      13A     -1.383065    14A     -1.378380    15A     -1.298340
      16A     -0.972674    17A     -0.956804    18A     -0.813681
      19A     -0.730417    20A     -0.708544    21A     -0.678723
      22A     -0.657594    23A     -0.642028    24A     -0.633439
      25A     -0.629164    26A     -0.574337    27A     -0.559366
      28A     -0.541668    29A     -0.517432    30A     -0.498629
      31A     -0.488204    32A     -0.472954    33A     -0.466841

  @DF-RHF Final Energy:  -720.27950653664288

   => Energetics <=

    Nuclear Repulsion Energy =            451.3385686070623137
    One-Electron Energy =               -1890.6814225139232803
    Two-Electron Energy =                 719.0633473702180254
    Total Energy =                       -720.2795065366428844
  Basis Set: (AUG-CC-PVTZ AUX)
    Blend: AUG-CC-PVTZ-RI
    Molecular point group: c1

    Geometry (in Angstrom), charge = 0, multiplicity = 1:

       Center              X                  Y                   Z               Mass
    ------------   -----------------  -----------------  -----------------  -----------------
         P           -0.041055458786     0.468799607280     0.072098974237    30.973761998420
         O            1.103621941214    -0.431519692720     0.742792974237    15.994914619570
         O           -1.010121458786    -0.585820392720    -0.685127025763    15.994914619570
         O            0.769341841214     1.104096907280    -1.183684725763    15.994914619570
         O           -0.709715458786     1.417828607280     0.985431974237    15.994914619570
         C            1.869556541214    -1.333767392720    -0.058298025763    12.000000000000
         C           -1.964407458786    -1.287513392720     0.151728974237    12.000000000000
         H            1.216293541214    -2.004499392720    -0.623999025763     1.007825032230
         H            2.484257541214    -1.903745392720     0.636838974237     1.007825032230
         H            2.497397541214    -0.757664392720    -0.742319025763     1.007825032230
         H           -2.648463458786    -0.576695392720     0.618995974237     1.007825032230
         H           -1.444979458786    -1.861384392720     0.924470974237     1.007825032230
         H           -2.502827458786    -1.959422392720    -0.511940025763     1.007825032230
         H            0.359229541214     1.987943607280    -1.399137025763     1.007825032230

  Basis Set: AUG-CC-PVTZ
    Blend: AUG-CC-PVTZ
  Basis Set: (AUG-CC-PVTZ AUX)
    Blend: AUG-CC-PVTZ-JKFIT
	 Reference Energy          =    -720.2795065366428844 [Eh]
	 Singles Energy            =      -0.0000000000000000 [Eh]
	 Same-Spin Energy          =      -0.4046059828954983 [Eh]
	 Opposite-Spin Energy      =      -1.2305036260477538 [Eh]
	 Correlation Energy        =      -1.6351096089432520 [Eh]
	 Total Energy              =    -721.9146161455861375 [Eh]

	 ================> DF-SCS-MP2 Energies <==================
	-----------------------------------------------------------
	 SCS Same-Spin Scale       =       0.3333333333333333 [-]
	 SCS Opposite-Spin Scale   =       1.2000000000000000 [-]
	 SCS Same-Spin Energy      =      -0.1348686609651661 [Eh]
	 SCS Opposite-Spin Energy  =      -1.4766043512573044 [Eh]
	 SCS Correlation Energy    =      -1.6114730122224705 [Eh]
	 SCS Total Energy          =    -721.8909795488654026 [Eh]
	-----------------------------------------------------------

  Dipole Moment: [D]
     X:     0.3366      Y:    -2.5011      Z:    -1.9183     Total:     3.1700

*** Psi4 exiting successfully. Buy a developer a beer!
