                               Psi4 1.3.2 release

  ==> Input File <==

--------------------------------------------------------------------------
#psi4
#
memory 32 gb

molecule  {
0 1
  P       -0.0357750     0.4680410     0.0705770
  O        1.0907140    -0.4402950     0.7609680
  O       -1.0160195    -0.5809078    -0.6801099
  O        0.7512110     1.1173330    -1.1929150
  O       -0.7158099     1.4117250     0.9810452
  C        1.8748370    -1.3345260    -0.0598200
  C       -1.9591270    -1.2882720     0.1502070
  H        1.2215740    -2.0052580    -0.6255210
  H        2.4895380    -1.9045040     0.6353170
  H        2.5026780    -0.7584230    -0.7438410
  H       -2.6431830    -0.5774540     0.6174740
  H       -1.4396990    -1.8621430     0.9229490
  H       -2.4975470    -1.9601810    -0.5134620
  H        0.3645100     1.9871850    -1.4006590
units angstrom
no_reorient  #important for SAPT in psi4, default
symmetry c1  #important for SAPT in psi4, default
}

set PROPERTIES_ORIGIN ["COM"]
properties('MP2/aug-cc-pvtz', properties = ['dipole'])
--------------------------------------------------------------------------

    Molecular point group: c1
  Charge       = 0
  Multiplicity = 1
  Basis Set: AUG-CC-PVTZ
    Blend: AUG-CC-PVTZ
  Basis Set: (AUG-CC-PVTZ AUX)
    Blend: AUG-CC-PVTZ-JKFIT

    Orbital Energies [Eh]
    ---------------------

    Doubly Occupied:

       1A    -80.110008     2A    -20.609520     3A    -20.599637
       4A    -20.595386     5A    -20.514904     6A    -11.301532
       7A    -11.296900     8A     -7.625488     9A     -5.523980
      10A     -5.523503    11A     -5.522505    12A     -1.450654
      13A     -1.383512    14A     -1.381947    15A     -1.296109
      16A     -0.972790    17A     -0.957008    18A     -0.818276
      19A     -0.732609    20A     -0.709181    21A     -0.678843
      22A     -0.657130    23A     -0.643072    24A     -0.633282
      25A     -0.629872    26A     -0.572204    27A     -0.561410
      28A     -0.542305    29A     -0.518549    30A     -0.499823
      31A     -0.489520    32A     -0.470633    33A     -0.464007

  @DF-RHF Final Energy:  -720.28180631958969

   => Energetics <=

    Nuclear Repulsion Energy =            451.1988332112855460
    One-Electron Energy =               -1890.3890794807671227
    Two-Electron Energy =                 718.9084399498918856
    Total Energy =                       -720.2818063195896912
  Basis Set: (AUG-CC-PVTZ AUX)
    Blend: AUG-CC-PVTZ-RI
    Molecular point group: c1

    Geometry (in Angstrom), charge = 0, multiplicity = 1:

       Center              X                  Y                   Z               Mass
    ------------   -----------------  -----------------  -----------------  -----------------
         P           -0.032912152302     0.467999380436     0.070110783339    30.973761998420
         O            1.093576847698    -0.440336619564     0.760501783339    15.994914619570
         O           -1.013156652302    -0.580949419564    -0.680576116661    15.994914619570
         O            0.754073847698     1.117291380436    -1.193381216661    15.994914619570
         O           -0.712947052302     1.411683380436     0.980578983339    15.994914619570
         C            1.877699847698    -1.334567619564    -0.060286216661    12.000000000000
         C           -1.956264152302    -1.288313619564     0.149740783339    12.000000000000
         H            1.224436847698    -2.005299619564    -0.625987216661     1.007825032230
         H            2.492400847698    -1.904545619564     0.634850783339     1.007825032230
         H            2.505540847698    -0.758464619564    -0.744307216661     1.007825032230
         H           -2.640320152302    -0.577495619564     0.617007783339     1.007825032230
         H           -1.436836152302    -1.862184619564     0.922482783339     1.007825032230
         H           -2.494684152302    -1.960222619564    -0.513928216661     1.007825032230
         H            0.367372847698     1.987143380436    -1.401125216661     1.007825032230

  Basis Set: AUG-CC-PVTZ
    Blend: AUG-CC-PVTZ
  Basis Set: (AUG-CC-PVTZ AUX)
    Blend: AUG-CC-PVTZ-JKFIT
	 Reference Energy          =    -720.2818063195896912 [Eh]
	 Singles Energy            =      -0.0000000000000000 [Eh]
	 Same-Spin Energy          =      -0.4042047848123528 [Eh]
	 Opposite-Spin Energy      =      -1.2297154164606605 [Eh]
	 Correlation Energy        =      -1.6339202012730132 [Eh]
	 Total Energy              =    -721.9157265208626768 [Eh]

	 ================> DF-SCS-MP2 Energies <==================
	-----------------------------------------------------------
	 SCS Same-Spin Scale       =       0.3333333333333333 [-]
	 SCS Opposite-Spin Scale   =       1.2000000000000000 [-]
	 SCS Same-Spin Energy      =      -0.1347349282707843 [Eh]
	 SCS Opposite-Spin Energy  =      -1.4756584997527926 [Eh]
	 SCS Correlation Energy    =      -1.6103934280235768 [Eh]
	 SCS Total Energy          =    -721.8921997476132901 [Eh]
	-----------------------------------------------------------

  Dipole Moment: [D]
     X:     0.5662      Y:    -2.5440      Z:    -1.9678     Total:     3.2657

*** Psi4 exiting successfully. Buy a developer a beer!
