                               Psi4 1.3.2 release

  ==> Input File <==

--------------------------------------------------------------------------
#psi4
#
memory 32 gb

molecule  {
0 1
  P       -0.0357750     0.4680410     0.0705770
  O        1.0907140    -0.4402950     0.7609680
  O       -1.1244719    -0.7167715    -0.7801283
  O        0.7512110     1.1173330    -1.1929150
  O       -0.7044350     1.4170700     0.9839100
  C        1.8748370    -1.3345260    -0.0598200
  C       -1.9591270    -1.2882720     0.1502070
  H        1.2215740    -2.0052580    -0.6255210
  H        2.4895380    -1.9045040     0.6353170
  H        2.5026780    -0.7584230    -0.7438410
  H       -2.6431830    -0.5774540     0.6174740
  H       -1.4396990    -1.8621430     0.9229490
  H       -2.4975470    -1.9601810    -0.5134620
  H        0.3645100     1.9871850    -1.4006590
units angstrom
no_reorient  #important for SAPT in psi4, default
symmetry c1  #important for SAPT in psi4, default
}

set PROPERTIES_ORIGIN ["COM"]
properties('MP2/aug-cc-pvtz', properties = ['dipole'])
--------------------------------------------------------------------------

    Molecular point group: c1
  Charge       = 0
  Multiplicity = 1
  Basis Set: AUG-CC-PVTZ
    Blend: AUG-CC-PVTZ
  Basis Set: (AUG-CC-PVTZ AUX)
    Blend: AUG-CC-PVTZ-JKFIT

    Orbital Energies [Eh]
    ---------------------

    Doubly Occupied:

       1A    -80.130065     2A    -20.622098     3A    -20.613754
       4A    -20.591507     5A    -20.533662     6A    -11.306998
       7A    -11.274344     8A     -7.643831     9A     -5.542165
      10A     -5.541554    11A     -5.540582    12A     -1.449450
      13A     -1.394285    14A     -1.372790    15A     -1.311843
      16A     -0.974776    17A     -0.928750    18A     -0.827699
      19A     -0.732255    20A     -0.707458    21A     -0.681925
      22A     -0.658746    23A     -0.646978    24A     -0.633816
      25A     -0.622334    26A     -0.580311    27A     -0.574048
      28A     -0.542808    29A     -0.515495    30A     -0.496612
      31A     -0.485231    32A     -0.468734    33A     -0.461603

  @DF-RHF Final Energy:  -720.24617801670649

   => Energetics <=

    Nuclear Repulsion Energy =            445.1731489472658723
    One-Electron Energy =               -1878.0216367618322693
    Two-Electron Energy =                 712.6023097978599026
    Total Energy =                       -720.2461780167064944
  Basis Set: (AUG-CC-PVTZ AUX)
    Blend: AUG-CC-PVTZ-RI
    Molecular point group: c1

    Geometry (in Angstrom), charge = 0, multiplicity = 1:

       Center              X                  Y                   Z               Mass
    ------------   -----------------  -----------------  -----------------  -----------------
         P           -0.020589570304     0.484566838221     0.082443025130    30.973761998420
         O            1.105899429696    -0.423769161779     0.772834025130    15.994914619570
         O           -1.109286470304    -0.700245661779    -0.768262274870    15.994914619570
         O            0.766396429696     1.133858838221    -1.181048974870    15.994914619570
         O           -0.689249570304     1.433595838221     0.995776025130    15.994914619570
         C            1.890022429696    -1.318000161779    -0.047953974870    12.000000000000
         C           -1.943941570304    -1.271746161779     0.162073025130    12.000000000000
         H            1.236759429696    -1.988732161779    -0.613654974870     1.007825032230
         H            2.504723429696    -1.887978161779     0.647183025130     1.007825032230
         H            2.517863429696    -0.741897161779    -0.731974974870     1.007825032230
         H           -2.627997570304    -0.560928161779     0.629340025130     1.007825032230
         H           -1.424513570304    -1.845617161779     0.934815025130     1.007825032230
         H           -2.482361570304    -1.943655161779    -0.501595974870     1.007825032230
         H            0.379695429696     2.003710838221    -1.388792974870     1.007825032230

  Basis Set: AUG-CC-PVTZ
    Blend: AUG-CC-PVTZ
  Basis Set: (AUG-CC-PVTZ AUX)
    Blend: AUG-CC-PVTZ-JKFIT
	 Reference Energy          =    -720.2461780167064944 [Eh]
	 Singles Energy            =      -0.0000000000000000 [Eh]
	 Same-Spin Energy          =      -0.4069544377124443 [Eh]
	 Opposite-Spin Energy      =      -1.2367887638023747 [Eh]
	 Correlation Energy        =      -1.6437432015148190 [Eh]
	 Total Energy              =    -721.8899212182212750 [Eh]

	 ================> DF-SCS-MP2 Energies <==================
	-----------------------------------------------------------
	 SCS Same-Spin Scale       =       0.3333333333333333 [-]
	 SCS Opposite-Spin Scale   =       1.2000000000000000 [-]
	 SCS Same-Spin Energy      =      -0.1356514792374814 [Eh]
	 SCS Opposite-Spin Energy  =      -1.4841465165628496 [Eh]
	 SCS Correlation Energy    =      -1.6197979958003310 [Eh]
	 SCS Total Energy          =    -721.8659760125068487 [Eh]
	-----------------------------------------------------------

  Dipole Moment: [D]
     X:     1.4329      Y:    -1.7415      Z:    -1.7179     Total:     2.8350

*** Psi4 exiting successfully. Buy a developer a beer!
