                               Psi4 1.3.2 release

  ==> Input File <==

--------------------------------------------------------------------------
#psi4
#
memory 32 gb

molecule  {
0 1
  P       -0.0357750     0.4680410     0.0705770
  O        1.0907140    -0.4402950     0.7609680
  O       -1.0048410    -0.5865790    -0.6866490
  O        0.7726766     1.0386984    -1.2170935
  O       -0.7279997     1.3567020     1.0261114
  C        1.8748370    -1.3345260    -0.0598200
  C       -1.9591270    -1.2882720     0.1502070
  H        1.2215740    -2.0052580    -0.6255210
  H        2.4895380    -1.9045040     0.6353170
  H        2.5026780    -0.7584230    -0.7438410
  H       -2.6431830    -0.5774540     0.6174740
  H       -1.4396990    -1.8621430     0.9229490
  H       -2.4975470    -1.9601810    -0.5134620
  H        0.3645100     1.9871850    -1.4006590
units angstrom
no_reorient  #important for SAPT in psi4, default
symmetry c1  #important for SAPT in psi4, default
}

set PROPERTIES_ORIGIN ["COM"]
properties('MP2/aug-cc-pvtz', properties = ['dipole'])
--------------------------------------------------------------------------

    Molecular point group: c1
  Charge       = 0
  Multiplicity = 1
  Basis Set: AUG-CC-PVTZ
    Blend: AUG-CC-PVTZ
  Basis Set: (AUG-CC-PVTZ AUX)
    Blend: AUG-CC-PVTZ-JKFIT

    Orbital Energies [Eh]
    ---------------------

    Doubly Occupied:

       1A    -80.108603     2A    -20.620635     3A    -20.593281
       4A    -20.592024     5A    -20.519982     6A    -11.297566
       7A    -11.294929     8A     -7.624363     9A     -5.522937
      10A     -5.522349    11A     -5.521299    12A     -1.447231
      13A     -1.376907    14A     -1.372931    15A     -1.299516
      16A     -0.968629    17A     -0.953773    18A     -0.806395
      19A     -0.722546    20A     -0.704509    21A     -0.678336
      22A     -0.656670    23A     -0.635392    24A     -0.630183
      25A     -0.625398    26A     -0.575223    27A     -0.559611
      28A     -0.539840    29A     -0.516704    30A     -0.496724
      31A     -0.486457    32A     -0.474978    33A     -0.466402

  @DF-RHF Final Energy:  -720.27004892423770

   => Energetics <=

    Nuclear Repulsion Energy =            451.5206386371816052
    One-Electron Energy =               -1891.1567293770222022
    Two-Electron Energy =                 719.3660418156030119
    Total Energy =                       -720.2700489242376989
  Basis Set: (AUG-CC-PVTZ AUX)
    Blend: AUG-CC-PVTZ-RI
    Molecular point group: c1

    Geometry (in Angstrom), charge = 0, multiplicity = 1:

       Center              X                  Y                   Z               Mass
    ------------   -----------------  -----------------  -----------------  -----------------
         P           -0.035508529310     0.485685152760     0.068289436477    30.973761998420
         O            1.090980470690    -0.422650847240     0.758680436477    15.994914619570
         O           -1.004574529310    -0.568934847240    -0.688936563523    15.994914619570
         O            0.772943070690     1.056342552760    -1.219381063523    15.994914619570
         O           -0.727733229310     1.374346152760     1.023823836477    15.994914619570
         C            1.875103470690    -1.316881847240    -0.062107563523    12.000000000000
         C           -1.958860529310    -1.270627847240     0.147919436477    12.000000000000
         H            1.221840470690    -1.987613847240    -0.627808563523     1.007825032230
         H            2.489804470690    -1.886859847240     0.633029436477     1.007825032230
         H            2.502944470690    -0.740778847240    -0.746128563523     1.007825032230
         H           -2.642916529310    -0.559809847240     0.615186436477     1.007825032230
         H           -1.439432529310    -1.844498847240     0.920661436477     1.007825032230
         H           -2.497280529310    -1.942536847240    -0.515749563523     1.007825032230
         H            0.364776470690     2.004829152760    -1.402946563523     1.007825032230

  Basis Set: AUG-CC-PVTZ
    Blend: AUG-CC-PVTZ
  Basis Set: (AUG-CC-PVTZ AUX)
    Blend: AUG-CC-PVTZ-JKFIT
	 Reference Energy          =    -720.2700489242376989 [Eh]
	 Singles Energy            =      -0.0000000000000000 [Eh]
	 Same-Spin Energy          =      -0.4056959829951827 [Eh]
	 Opposite-Spin Energy      =      -1.2331185954551378 [Eh]
	 Correlation Energy        =      -1.6388145784503205 [Eh]
	 Total Energy              =    -721.9088635026880638 [Eh]

	 ================> DF-SCS-MP2 Energies <==================
	-----------------------------------------------------------
	 SCS Same-Spin Scale       =       0.3333333333333333 [-]
	 SCS Opposite-Spin Scale   =       1.2000000000000000 [-]
	 SCS Same-Spin Energy      =      -0.1352319943317276 [Eh]
	 SCS Opposite-Spin Energy  =      -1.4797423145461652 [Eh]
	 SCS Correlation Energy    =      -1.6149743088778927 [Eh]
	 SCS Total Energy          =    -721.8850232331155894 [Eh]
	-----------------------------------------------------------

  Dipole Moment: [D]
     X:     0.5162      Y:    -2.1198      Z:    -2.0369     Total:     2.9848

*** Psi4 exiting successfully. Buy a developer a beer!
