                               Psi4 1.3.2 release

  ==> Input File <==

--------------------------------------------------------------------------
#psi4
#
memory 32 gb

molecule  {
0 1
  P       -0.0357750     0.4680410     0.0705770
  O        1.0907140    -0.4402950     0.7609680
  O       -1.0048410    -0.5865790    -0.6866490
  O        0.7512110     1.1173330    -1.1929150
  O       -0.7044350     1.4170700     0.9839100
  C        1.8748370    -1.3345260    -0.0598200
  C       -1.9591270    -1.2882720     0.1502070
  H        1.2215740    -2.0052580    -0.6255210
  H        2.4895380    -1.9045040     0.6353170
  H        2.5026780    -0.7584230    -0.7438410
  H       -2.6431830    -0.5774540     0.6174740
  H       -1.4396990    -1.8621430     0.9229490
  H       -2.4975470    -1.9601810    -0.5134620
  H        0.4041985     1.8979089    -1.3793375
units angstrom
no_reorient  #important for SAPT in psi4, default
symmetry c1  #important for SAPT in psi4, default
}

set PROPERTIES_ORIGIN ["COM"]
properties('MP2/aug-cc-pvtz', properties = ['dipole'])
--------------------------------------------------------------------------

    Molecular point group: c1
  Charge       = 0
  Multiplicity = 1
  Basis Set: AUG-CC-PVTZ
    Blend: AUG-CC-PVTZ
  Basis Set: (AUG-CC-PVTZ AUX)
    Blend: AUG-CC-PVTZ-JKFIT

    Orbital Energies [Eh]
    ---------------------

    Doubly Occupied:

       1A    -80.111572     2A    -20.600925     3A    -20.599626
       4A    -20.597704     5A    -20.517140     6A    -11.301622
       7A    -11.299294     8A     -7.627080     9A     -5.525606
      10A     -5.525091    11A     -5.524073    12A     -1.460439
      13A     -1.400883    14A     -1.381850    15A     -1.298608
      16A     -0.974452    17A     -0.958215    18A     -0.835895
      19A     -0.741718    20A     -0.710720    21A     -0.681316
      22A     -0.659242    23A     -0.645854    24A     -0.634975
      25A     -0.630101    26A     -0.574343    27A     -0.565030
      28A     -0.543932    29A     -0.520556    30A     -0.501168
      31A     -0.490834    32A     -0.472748    33A     -0.466356

  @DF-RHF Final Energy:  -720.27598000580588

   => Energetics <=

    Nuclear Repulsion Energy =            451.8495095314841592
    One-Electron Energy =               -1891.4930368689094848
    Two-Electron Energy =                 719.3675473316195621
    Total Energy =                       -720.2759800058058772
  Basis Set: (AUG-CC-PVTZ AUX)
    Blend: AUG-CC-PVTZ-RI
    Molecular point group: c1

    Geometry (in Angstrom), charge = 0, multiplicity = 1:

       Center              X                  Y                   Z               Mass
    ------------   -----------------  -----------------  -----------------  -----------------
         P           -0.036092411879     0.468754825183     0.070406651185    30.973761998420
         O            1.090396588121    -0.439581174817     0.760797651185    15.994914619570
         O           -1.005158411879    -0.585865174817    -0.686819348815    15.994914619570
         O            0.750893588121     1.118046825183    -1.193085348815    15.994914619570
         O           -0.704752411879     1.417783825183     0.983739651185    15.994914619570
         C            1.874519588121    -1.333812174817    -0.059990348815    12.000000000000
         C           -1.959444411879    -1.287558174817     0.150036651185    12.000000000000
         H            1.221256588121    -2.004544174817    -0.625691348815     1.007825032230
         H            2.489220588121    -1.903790174817     0.635146651185     1.007825032230
         H            2.502360588121    -0.757709174817    -0.744011348815     1.007825032230
         H           -2.643500411879    -0.576740174817     0.617303651185     1.007825032230
         H           -1.440016411879    -1.861429174817     0.922778651185     1.007825032230
         H           -2.497864411879    -1.959467174817    -0.513632348815     1.007825032230
         H            0.403881088121     1.898622725183    -1.379507848815     1.007825032230

  Basis Set: AUG-CC-PVTZ
    Blend: AUG-CC-PVTZ
  Basis Set: (AUG-CC-PVTZ AUX)
    Blend: AUG-CC-PVTZ-JKFIT
	 Reference Energy          =    -720.2759800058058772 [Eh]
	 Singles Energy            =      -0.0000000000000000 [Eh]
	 Same-Spin Energy          =      -0.4031610450313051 [Eh]
	 Opposite-Spin Energy      =      -1.2274737517016061 [Eh]
	 Correlation Energy        =      -1.6306347967329113 [Eh]
	 Total Energy              =    -721.9066148025387974 [Eh]

	 ================> DF-SCS-MP2 Energies <==================
	-----------------------------------------------------------
	 SCS Same-Spin Scale       =       0.3333333333333333 [-]
	 SCS Opposite-Spin Scale   =       1.2000000000000000 [-]
	 SCS Same-Spin Energy      =      -0.1343870150104350 [Eh]
	 SCS Opposite-Spin Energy  =      -1.4729685020419272 [Eh]
	 SCS Correlation Energy    =      -1.6073555170523623 [Eh]
	 SCS Total Energy          =    -721.8833355228582604 [Eh]
	-----------------------------------------------------------

  Dipole Moment: [D]
     X:     0.4944      Y:    -2.7095      Z:    -1.8739     Total:     3.3312

*** Psi4 exiting successfully. Buy a developer a beer!
