                               Psi4 1.3.2 release

  ==> Input File <==

--------------------------------------------------------------------------
#psi4
#
memory 32 gb

molecule  {
0 1
  P       -0.0357750     0.4680410     0.0705770
  O        1.0907140    -0.4402950     0.7609680
  O       -0.9713173    -0.5611054    -0.7602791
  O        0.7062039     1.0665782    -1.2441700
  O       -0.7044350     1.4170700     0.9839100
  C        1.8748370    -1.3345260    -0.0598200
  C       -1.9591270    -1.2882720     0.1502070
  H        1.2215740    -2.0052580    -0.6255210
  H        2.4895380    -1.9045040     0.6353170
  H        2.5026780    -0.7584230    -0.7438410
  H       -2.6431830    -0.5774540     0.6174740
  H       -1.4396990    -1.8621430     0.9229490
  H       -2.4975470    -1.9601810    -0.5134620
  H        0.3645100     1.9871850    -1.4006590
units angstrom
no_reorient  #important for SAPT in psi4, default
symmetry c1  #important for SAPT in psi4, default
}

set PROPERTIES_ORIGIN ["COM"]
properties('MP2/aug-cc-pvtz', properties = ['dipole'])
--------------------------------------------------------------------------

    Molecular point group: c1
  Charge       = 0
  Multiplicity = 1
  Basis Set: AUG-CC-PVTZ
    Blend: AUG-CC-PVTZ
  Basis Set: (AUG-CC-PVTZ AUX)
    Blend: AUG-CC-PVTZ-JKFIT

    Orbital Energies [Eh]
    ---------------------

    Doubly Occupied:

       1A    -80.105956     2A    -20.602455     3A    -20.598975
       4A    -20.595336     5A    -20.518950     6A    -11.305356
       7A    -11.299880     8A     -7.621789     9A     -5.520363
      10A     -5.519775    11A     -5.518719    12A     -1.444274
      13A     -1.378981    14A     -1.359279    15A     -1.298020
      16A     -0.969266    17A     -0.957364    18A     -0.811394
      19A     -0.718742    20A     -0.705502    21A     -0.675657
      22A     -0.649003    23A     -0.635884    24A     -0.626996
      25A     -0.617961    26A     -0.574100    27A     -0.550380
      28A     -0.544391    29A     -0.520220    30A     -0.502596
      31A     -0.492163    32A     -0.473590    33A     -0.467852

  @DF-RHF Final Energy:  -720.27085922235210

   => Energetics <=

    Nuclear Repulsion Energy =            450.3803828185369298
    One-Electron Energy =               -1888.9401450675334218
    Two-Electron Energy =                 718.2889030266444479
    Total Energy =                       -720.2708592223521009
  Basis Set: (AUG-CC-PVTZ AUX)
    Blend: AUG-CC-PVTZ-RI
    Molecular point group: c1

    Geometry (in Angstrom), charge = 0, multiplicity = 1:

       Center              X                  Y                   Z               Mass
    ------------   -----------------  -----------------  -----------------  -----------------
         P           -0.034317328401     0.471249868822     0.086429536378    30.973761998420
         O            1.092171671599    -0.437086131178     0.776820536378    15.994914619570
         O           -0.969859628401    -0.557896531178    -0.744426563622    15.994914619570
         O            0.707661571599     1.069787068822    -1.228317463622    15.994914619570
         O           -0.702977328401     1.420278868822     0.999762536378    15.994914619570
         C            1.876294671599    -1.331317131178    -0.043967463622    12.000000000000
         C           -1.957669328401    -1.285063131178     0.166059536378    12.000000000000
         H            1.223031671599    -2.002049131178    -0.609668463622     1.007825032230
         H            2.490995671599    -1.901295131178     0.651169536378     1.007825032230
         H            2.504135671599    -0.755214131178    -0.727988463622     1.007825032230
         H           -2.641725328401    -0.574245131178     0.633326536378     1.007825032230
         H           -1.438241328401    -1.858934131178     0.938801536378     1.007825032230
         H           -2.496089328401    -1.956972131178    -0.497609463622     1.007825032230
         H            0.365967671599     1.990393868822    -1.384806463622     1.007825032230

  Basis Set: AUG-CC-PVTZ
    Blend: AUG-CC-PVTZ
  Basis Set: (AUG-CC-PVTZ AUX)
    Blend: AUG-CC-PVTZ-JKFIT
	 Reference Energy          =    -720.2708592223521009 [Eh]
	 Singles Energy            =      -0.0000000000000000 [Eh]
	 Same-Spin Energy          =      -0.4054102584988343 [Eh]
	 Opposite-Spin Energy      =      -1.2333885249458270 [Eh]
	 Correlation Energy        =      -1.6387987834446611 [Eh]
	 Total Energy              =    -721.9096580057968140 [Eh]

	 ================> DF-SCS-MP2 Energies <==================
	-----------------------------------------------------------
	 SCS Same-Spin Scale       =       0.3333333333333333 [-]
	 SCS Opposite-Spin Scale   =       1.2000000000000000 [-]
	 SCS Same-Spin Energy      =      -0.1351367528329447 [Eh]
	 SCS Opposite-Spin Energy  =      -1.4800662299349923 [Eh]
	 SCS Correlation Energy    =      -1.6152029827679371 [Eh]
	 SCS Total Energy          =    -721.8860622051200835 [Eh]
	-----------------------------------------------------------

  Dipole Moment: [D]
     X:     0.3860      Y:    -2.5854      Z:    -1.6091     Total:     3.0696

*** Psi4 exiting successfully. Buy a developer a beer!
