                               Psi4 1.3.2 release

  ==> Input File <==

--------------------------------------------------------------------------
#psi4
#
memory 32 gb

molecule  {
0 1
  P       -0.0357750     0.4680410     0.0705770
  O        1.0907140    -0.4402950     0.7609680
  O       -1.0048410    -0.5865790    -0.6866490
  O        0.7512110     1.1173330    -1.1929150
  O       -0.7044350     1.4170700     0.9839100
  C        1.8748370    -1.3345260    -0.0598200
  C       -1.8275283    -1.1915066     0.0348023
  H        1.2215740    -2.0052580    -0.6255210
  H        2.4895380    -1.9045040     0.6353170
  H        2.5026780    -0.7584230    -0.7438410
  H       -2.6431830    -0.5774540     0.6174740
  H       -1.4396990    -1.8621430     0.9229490
  H       -2.4975470    -1.9601810    -0.5134620
  H        0.3645100     1.9871850    -1.4006590
units angstrom
no_reorient  #important for SAPT in psi4, default
symmetry c1  #important for SAPT in psi4, default
}

set PROPERTIES_ORIGIN ["COM"]
properties('MP2/aug-cc-pvtz', properties = ['dipole'])
--------------------------------------------------------------------------

    Molecular point group: c1
  Charge       = 0
  Multiplicity = 1
  Basis Set: AUG-CC-PVTZ
    Blend: AUG-CC-PVTZ
  Basis Set: (AUG-CC-PVTZ AUX)
    Blend: AUG-CC-PVTZ-JKFIT

    Orbital Energies [Eh]
    ---------------------

    Doubly Occupied:

       1A    -80.123457     2A    -20.618120     3A    -20.615331
       4A    -20.607460     5A    -20.525058     6A    -11.306542
       7A    -11.302494     8A     -7.639126     9A     -5.537498
      10A     -5.537284    11A     -5.535963    12A     -1.501038
      13A     -1.427873    14A     -1.391440    15A     -1.306830
      16A     -0.979305    17A     -0.953637    18A     -0.823840
      19A     -0.761366    20A     -0.728404    21A     -0.702836
      22A     -0.681791    23A     -0.663383    24A     -0.643954
      25A     -0.642985    26A     -0.576658    27A     -0.572158
      28A     -0.537308    29A     -0.508790    30A     -0.487990
      31A     -0.478615    32A     -0.468849    33A     -0.447500

  @DF-RHF Final Energy:  -720.24138390425992

   => Energetics <=

    Nuclear Repulsion Energy =            455.7694476954179095
    One-Electron Energy =               -1898.7518923671609627
    Two-Electron Energy =                 722.7410607674830771
    Total Energy =                       -720.2413839042599193
  Basis Set: (AUG-CC-PVTZ AUX)
    Blend: AUG-CC-PVTZ-RI
    Molecular point group: c1

    Geometry (in Angstrom), charge = 0, multiplicity = 1:

       Center              X                  Y                   Z               Mass
    ------------   -----------------  -----------------  -----------------  -----------------
         P           -0.048307373990     0.458825633821     0.081567391433    30.973761998420
         O            1.078181626010    -0.449510366179     0.771958391433    15.994914619570
         O           -1.017373373990    -0.595794366179    -0.675658608567    15.994914619570
         O            0.738678626010     1.108117633821    -1.181924608567    15.994914619570
         O           -0.716967373990     1.407854633821     0.994900391433    15.994914619570
         C            1.862304626010    -1.343741366179    -0.048829608567    12.000000000000
         C           -1.840060673990    -1.200721966179     0.045792691433    12.000000000000
         H            1.209041626010    -2.014473366179    -0.614530608567     1.007825032230
         H            2.477005626010    -1.913719366179     0.646307391433     1.007825032230
         H            2.490145626010    -0.767638366179    -0.732850608567     1.007825032230
         H           -2.655715373990    -0.586669366179     0.628464391433     1.007825032230
         H           -1.452231373990    -1.871358366179     0.933939391433     1.007825032230
         H           -2.510079373990    -1.969396366179    -0.502471608567     1.007825032230
         H            0.351977626010     1.977969633821    -1.389668608567     1.007825032230

  Basis Set: AUG-CC-PVTZ
    Blend: AUG-CC-PVTZ
  Basis Set: (AUG-CC-PVTZ AUX)
    Blend: AUG-CC-PVTZ-JKFIT
	 Reference Energy          =    -720.2413839042599193 [Eh]
	 Singles Energy            =      -0.0000000000000000 [Eh]
	 Same-Spin Energy          =      -0.4054772228160619 [Eh]
	 Opposite-Spin Energy      =      -1.2299758027728582 [Eh]
	 Correlation Energy        =      -1.6354530255889201 [Eh]
	 Total Energy              =    -721.8768369298488778 [Eh]

	 ================> DF-SCS-MP2 Energies <==================
	-----------------------------------------------------------
	 SCS Same-Spin Scale       =       0.3333333333333333 [-]
	 SCS Opposite-Spin Scale   =       1.2000000000000000 [-]
	 SCS Same-Spin Energy      =      -0.1351590742720206 [Eh]
	 SCS Opposite-Spin Energy  =      -1.4759709633274298 [Eh]
	 SCS Correlation Energy    =      -1.6111300375994504 [Eh]
	 SCS Total Energy          =    -721.8525139418593426 [Eh]
	-----------------------------------------------------------

  Dipole Moment: [D]
     X:     1.2678      Y:    -1.9604      Z:    -2.3021     Total:     3.2787

*** Psi4 exiting successfully. Buy a developer a beer!
