                               Psi4 1.3.2 release

  ==> Input File <==

--------------------------------------------------------------------------
#psi4
#
memory 32 gb

molecule  {
0 1
  P       -0.0357750     0.4680410     0.0705770
  O        1.0907140    -0.4402950     0.7609680
  O       -1.0048410    -0.5865790    -0.6866490
  O        0.6542909     1.0373704    -1.0373114
  O       -0.7044350     1.4170700     0.9839100
  C        1.8748370    -1.3345260    -0.0598200
  C       -1.9591270    -1.2882720     0.1502070
  H        1.2215740    -2.0052580    -0.6255210
  H        2.4895380    -1.9045040     0.6353170
  H        2.5026780    -0.7584230    -0.7438410
  H       -2.6431830    -0.5774540     0.6174740
  H       -1.4396990    -1.8621430     0.9229490
  H       -2.4975470    -1.9601810    -0.5134620
  H        0.3645100     1.9871850    -1.4006590
units angstrom
no_reorient  #important for SAPT in psi4, default
symmetry c1  #important for SAPT in psi4, default
}

set PROPERTIES_ORIGIN ["COM"]
properties('MP2/aug-cc-pvtz', properties = ['dipole'])
--------------------------------------------------------------------------

    Molecular point group: c1
  Charge       = 0
  Multiplicity = 1
  Basis Set: AUG-CC-PVTZ
    Blend: AUG-CC-PVTZ
  Basis Set: (AUG-CC-PVTZ AUX)
    Blend: AUG-CC-PVTZ-JKFIT

    Orbital Energies [Eh]
    ---------------------

    Doubly Occupied:

       1A    -80.078983     2A    -20.619003     3A    -20.584172
       4A    -20.582857     5A    -20.496355     6A    -11.295599
       7A    -11.289161     8A     -7.601506     9A     -5.501470
      10A     -5.498595    11A     -5.497654    12A     -1.491274
      13A     -1.390675    14A     -1.369747    15A     -1.280870
      16A     -0.965118    17A     -0.949846    18A     -0.843566
      19A     -0.733491    20A     -0.717437    21A     -0.687852
      22A     -0.660781    23A     -0.640266    24A     -0.628401
      25A     -0.622572    26A     -0.581176    27A     -0.561794
      28A     -0.532124    29A     -0.509644    30A     -0.492030
      31A     -0.479268    32A     -0.457389    33A     -0.451015

  @DF-RHF Final Energy:  -720.25214491318116

   => Energetics <=

    Nuclear Repulsion Energy =            459.6419279088313488
    One-Electron Energy =               -1907.6047655380043579
    Two-Electron Energy =                 727.7106927159918541
    Total Energy =                       -720.2521449131811551
  Basis Set: (AUG-CC-PVTZ AUX)
    Blend: AUG-CC-PVTZ-RI
    Molecular point group: c1

    Geometry (in Angstrom), charge = 0, multiplicity = 1:

       Center              X                  Y                   Z               Mass
    ------------   -----------------  -----------------  -----------------  -----------------
         P           -0.023472377290     0.478190880233     0.050825560119    30.973761998420
         O            1.103016622710    -0.430145119767     0.741216560119    15.994914619570
         O           -0.992538377290    -0.576429119767    -0.706400439881    15.994914619570
         O            0.666593522710     1.047520280233    -1.057062839881    15.994914619570
         O           -0.692132377290     1.427219880233     0.964158560119    15.994914619570
         C            1.887139622710    -1.324376119767    -0.079571439881    12.000000000000
         C           -1.946824377290    -1.278122119767     0.130455560119    12.000000000000
         H            1.233876622710    -1.995108119767    -0.645272439881     1.007825032230
         H            2.501840622710    -1.894354119767     0.615565560119     1.007825032230
         H            2.514980622710    -0.748273119767    -0.763592439881     1.007825032230
         H           -2.630880377290    -0.567304119767     0.597722560119     1.007825032230
         H           -1.427396377290    -1.851993119767     0.903197560119     1.007825032230
         H           -2.485244377290    -1.950031119767    -0.533213439881     1.007825032230
         H            0.376812622710     1.997334880233    -1.420410439881     1.007825032230

  Basis Set: AUG-CC-PVTZ
    Blend: AUG-CC-PVTZ
  Basis Set: (AUG-CC-PVTZ AUX)
    Blend: AUG-CC-PVTZ-JKFIT
	 Reference Energy          =    -720.2521449131811551 [Eh]
	 Singles Energy            =      -0.0000000000000000 [Eh]
	 Same-Spin Energy          =      -0.4037318464187671 [Eh]
	 Opposite-Spin Energy      =      -1.2261013815326498 [Eh]
	 Correlation Energy        =      -1.6298332279514169 [Eh]
	 Total Energy              =    -721.8819781411325494 [Eh]

	 ================> DF-SCS-MP2 Energies <==================
	-----------------------------------------------------------
	 SCS Same-Spin Scale       =       0.3333333333333333 [-]
	 SCS Opposite-Spin Scale   =       1.2000000000000000 [-]
	 SCS Same-Spin Energy      =      -0.1345772821395890 [Eh]
	 SCS Opposite-Spin Energy  =      -1.4713216578391797 [Eh]
	 SCS Correlation Energy    =      -1.6058989399787686 [Eh]
	 SCS Total Energy          =    -721.8580438531598702 [Eh]
	-----------------------------------------------------------

  Dipole Moment: [D]
     X:     1.0264      Y:    -1.8027      Z:    -2.9478     Total:     3.6046

*** Psi4 exiting successfully. Buy a developer a beer!
