                               Psi4 1.3.2 release

  ==> Input File <==

--------------------------------------------------------------------------
#psi4
#
memory 32 gb

molecule  {
0 1
  P       -0.0357750     0.4680410     0.0705770
  O        1.0907140    -0.4402950     0.7609680
  O       -1.0101724    -0.5905453    -0.6741700
  O        0.7585057     1.1256228    -1.1840319
  O       -0.7044350     1.4170700     0.9839100
  C        1.8748370    -1.3345260    -0.0598200
  C       -1.9591270    -1.2882720     0.1502070
  H        1.2215740    -2.0052580    -0.6255210
  H        2.4895380    -1.9045040     0.6353170
  H        2.5026780    -0.7584230    -0.7438410
  H       -2.6431830    -0.5774540     0.6174740
  H       -1.4396990    -1.8621430     0.9229490
  H       -2.4975470    -1.9601810    -0.5134620
  H        0.3645100     1.9871850    -1.4006590
units angstrom
no_reorient  #important for SAPT in psi4, default
symmetry c1  #important for SAPT in psi4, default
}

set PROPERTIES_ORIGIN ["COM"]
properties('MP2/aug-cc-pvtz', properties = ['dipole'])
--------------------------------------------------------------------------

    Molecular point group: c1
  Charge       = 0
  Multiplicity = 1
  Basis Set: AUG-CC-PVTZ
    Blend: AUG-CC-PVTZ
  Basis Set: (AUG-CC-PVTZ AUX)
    Blend: AUG-CC-PVTZ-JKFIT

    Orbital Energies [Eh]
    ---------------------

    Doubly Occupied:

       1A    -80.110258     2A    -20.609453     3A    -20.598604
       4A    -20.596553     5A    -20.514853     6A    -11.301023
       7A    -11.297243     8A     -7.625715     9A     -5.524207
      10A     -5.523734    11A     -5.522732    12A     -1.451097
      13A     -1.384336    14A     -1.382691    15A     -1.296141
      16A     -0.973031    17A     -0.957166    18A     -0.818712
      19A     -0.734024    20A     -0.709173    21A     -0.678864
      22A     -0.657626    23A     -0.644186    24A     -0.633452
      25A     -0.629907    26A     -0.572044    27A     -0.562505
      28A     -0.542053    29A     -0.518405    30A     -0.499601
      31A     -0.488989    32A     -0.470443    33A     -0.464382

  @DF-RHF Final Energy:  -720.28209838460532

   => Energetics <=

    Nuclear Repulsion Energy =            451.2475116268717557
    One-Electron Energy =               -1890.4728125063181778
    Two-Electron Energy =                 718.9432024948411026
    Total Energy =                       -720.2820983846053196
  Basis Set: (AUG-CC-PVTZ AUX)
    Blend: AUG-CC-PVTZ-RI
    Molecular point group: c1

    Geometry (in Angstrom), charge = 0, multiplicity = 1:

       Center              X                  Y                   Z               Mass
    ------------   -----------------  -----------------  -----------------  -----------------
         P           -0.036024192127     0.467491981121     0.067865573421    30.973761998420
         O            1.090464807873    -0.440844018879     0.758256573421    15.994914619570
         O           -1.010421592127    -0.591094318879    -0.676881426579    15.994914619570
         O            0.758256507873     1.125073781121    -1.186743326579    15.994914619570
         O           -0.704684192127     1.416520981121     0.981198573421    15.994914619570
         C            1.874587807873    -1.335075018879    -0.062531426579    12.000000000000
         C           -1.959376192127    -1.288821018879     0.147495573421    12.000000000000
         H            1.221324807873    -2.005807018879    -0.628232426579     1.007825032230
         H            2.489288807873    -1.905053018879     0.632605573421     1.007825032230
         H            2.502428807873    -0.758972018879    -0.746552426579     1.007825032230
         H           -2.643432192127    -0.578003018879     0.614762573421     1.007825032230
         H           -1.439948192127    -1.862692018879     0.920237573421     1.007825032230
         H           -2.497796192127    -1.960730018879    -0.516173426579     1.007825032230
         H            0.364260807873     1.986635981121    -1.403370426579     1.007825032230

  Basis Set: AUG-CC-PVTZ
    Blend: AUG-CC-PVTZ
  Basis Set: (AUG-CC-PVTZ AUX)
    Blend: AUG-CC-PVTZ-JKFIT
	 Reference Energy          =    -720.2820983846053196 [Eh]
	 Singles Energy            =      -0.0000000000000000 [Eh]
	 Same-Spin Energy          =      -0.4041360550271861 [Eh]
	 Opposite-Spin Energy      =      -1.2295082438409777 [Eh]
	 Correlation Energy        =      -1.6336442988681639 [Eh]
	 Total Energy              =    -721.9157426834734679 [Eh]

	 ================> DF-SCS-MP2 Energies <==================
	-----------------------------------------------------------
	 SCS Same-Spin Scale       =       0.3333333333333333 [-]
	 SCS Opposite-Spin Scale   =       1.2000000000000000 [-]
	 SCS Same-Spin Energy      =      -0.1347120183423954 [Eh]
	 SCS Opposite-Spin Energy  =      -1.4754098926091732 [Eh]
	 SCS Correlation Energy    =      -1.6101219109515685 [Eh]
	 SCS Total Energy          =    -721.8922202955568537 [Eh]
	-----------------------------------------------------------

  Dipole Moment: [D]
     X:     0.4988      Y:    -2.5537      Z:    -2.0107     Total:     3.2884

*** Psi4 exiting successfully. Buy a developer a beer!
