                               Psi4 1.3.2 release

  ==> Input File <==

--------------------------------------------------------------------------
#psi4
#
memory 32 gb

molecule  {
0 1
  P       -0.0357750     0.4680410     0.0705770
  O        1.0907140    -0.4402950     0.7609680
  O       -1.0048410    -0.5865790    -0.6866490
  O        0.8481311     1.1972956    -1.3485186
  O       -0.7044350     1.4170700     0.9839100
  C        1.8748370    -1.3345260    -0.0598200
  C       -1.9591270    -1.2882720     0.1502070
  H        1.2215740    -2.0052580    -0.6255210
  H        2.4895380    -1.9045040     0.6353170
  H        2.5026780    -0.7584230    -0.7438410
  H       -2.6431830    -0.5774540     0.6174740
  H       -1.4396990    -1.8621430     0.9229490
  H       -2.4975470    -1.9601810    -0.5134620
  H        0.3645100     1.9871850    -1.4006590
units angstrom
no_reorient  #important for SAPT in psi4, default
symmetry c1  #important for SAPT in psi4, default
}

set PROPERTIES_ORIGIN ["COM"]
properties('MP2/aug-cc-pvtz', properties = ['dipole'])
--------------------------------------------------------------------------

    Molecular point group: c1
  Charge       = 0
  Multiplicity = 1
  Basis Set: AUG-CC-PVTZ
    Blend: AUG-CC-PVTZ
  Basis Set: (AUG-CC-PVTZ AUX)
    Blend: AUG-CC-PVTZ-JKFIT

    Orbital Energies [Eh]
    ---------------------

    Doubly Occupied:

       1A    -80.128899     2A    -20.609884     3A    -20.607467
       4A    -20.596410     5A    -20.532425     6A    -11.306025
       7A    -11.305134     8A     -7.642332     9A     -5.540607
      10A     -5.540213    11A     -5.539122    12A     -1.444604
      13A     -1.389722    14A     -1.357076    15A     -1.309762
      16A     -0.978420    17A     -0.963225    18A     -0.802427
      19A     -0.721795    20A     -0.704490    21A     -0.681846
      22A     -0.656110    23A     -0.644052    24A     -0.638783
      25A     -0.622395    26A     -0.575882    27A     -0.550712
      28A     -0.538315    29A     -0.523240    30A     -0.504993
      31A     -0.497820    32A     -0.479788    33A     -0.476732

  @DF-RHF Final Energy:  -720.25028270336156

   => Energetics <=

    Nuclear Repulsion Energy =            443.8922706674537721
    One-Electron Energy =               -1875.4636944390197186
    Two-Electron Energy =                 711.3211410682044971
    Total Energy =                       -720.2502827033615631
  Basis Set: (AUG-CC-PVTZ AUX)
    Blend: AUG-CC-PVTZ-RI
    Molecular point group: c1

    Geometry (in Angstrom), charge = 0, multiplicity = 1:

       Center              X                  Y                   Z               Mass
    ------------   -----------------  -----------------  -----------------  -----------------
         P           -0.048077581988     0.457890693366     0.090328804850    30.973761998420
         O            1.078411418012    -0.450445306634     0.780719804850    15.994914619570
         O           -1.017143581988    -0.596729306634    -0.666897195150    15.994914619570
         O            0.835828518012     1.187145293366    -1.328766795150    15.994914619570
         O           -0.716737581988     1.406919693366     1.003661804850    15.994914619570
         C            1.862534418012    -1.344676306634    -0.040068195150    12.000000000000
         C           -1.971429581988    -1.298422306634     0.169958804850    12.000000000000
         H            1.209271418012    -2.015408306634    -0.605769195150     1.007825032230
         H            2.477235418012    -1.914654306634     0.655068804850     1.007825032230
         H            2.490375418012    -0.768573306634    -0.724089195150     1.007825032230
         H           -2.655485581988    -0.587604306634     0.637225804850     1.007825032230
         H           -1.452001581988    -1.872293306634     0.942700804850     1.007825032230
         H           -2.509849581988    -1.970331306634    -0.493710195150     1.007825032230
         H            0.352207418012     1.977034693366    -1.380907195150     1.007825032230

  Basis Set: AUG-CC-PVTZ
    Blend: AUG-CC-PVTZ
  Basis Set: (AUG-CC-PVTZ AUX)
    Blend: AUG-CC-PVTZ-JKFIT
	 Reference Energy          =    -720.2502827033615631 [Eh]
	 Singles Energy            =      -0.0000000000000000 [Eh]
	 Same-Spin Energy          =      -0.4058620809797590 [Eh]
	 Opposite-Spin Energy      =      -1.2359880258623335 [Eh]
	 Correlation Energy        =      -1.6418501068420923 [Eh]
	 Total Energy              =    -721.8921328102036341 [Eh]

	 ================> DF-SCS-MP2 Energies <==================
	-----------------------------------------------------------
	 SCS Same-Spin Scale       =       0.3333333333333333 [-]
	 SCS Opposite-Spin Scale   =       1.2000000000000000 [-]
	 SCS Same-Spin Energy      =      -0.1352873603265863 [Eh]
	 SCS Opposite-Spin Energy  =      -1.4831856310348002 [Eh]
	 SCS Correlation Energy    =      -1.6184729913613864 [Eh]
	 SCS Total Energy          =    -721.8687556947229496 [Eh]
	-----------------------------------------------------------

  Dipole Moment: [D]
     X:    -0.0143      Y:    -3.1881      Z:    -1.0558     Total:     3.3584

*** Psi4 exiting successfully. Buy a developer a beer!
