                               Psi4 1.3.2 release

  ==> Input File <==

--------------------------------------------------------------------------
#psi4
#
memory 32 gb

molecule  {
0 1
  P       -0.0357750     0.4680410     0.0705770
  O        1.0907140    -0.4402950     0.7609680
  O       -1.0102712    -0.5755821    -0.6835247
  O        0.7512110     1.1173330    -1.1929150
  O       -0.7044350     1.4170700     0.9839100
  C        1.8748370    -1.3345260    -0.0598200
  C       -1.9591270    -1.2882720     0.1502070
  H        1.2215740    -2.0052580    -0.6255210
  H        2.4895380    -1.9045040     0.6353170
  H        2.5026780    -0.7584230    -0.7438410
  H       -2.6386700    -0.5702975     0.6130971
  H       -1.4396990    -1.8621430     0.9229490
  H       -2.4975470    -1.9601810    -0.5134620
  H        0.3645100     1.9871850    -1.4006590
units angstrom
no_reorient  #important for SAPT in psi4, default
symmetry c1  #important for SAPT in psi4, default
}

set PROPERTIES_ORIGIN ["COM"]
properties('MP2/aug-cc-pvtz', properties = ['dipole'])
--------------------------------------------------------------------------

    Molecular point group: c1
  Charge       = 0
  Multiplicity = 1
  Basis Set: AUG-CC-PVTZ
    Blend: AUG-CC-PVTZ
  Basis Set: (AUG-CC-PVTZ AUX)
    Blend: AUG-CC-PVTZ-JKFIT

    Orbital Energies [Eh]
    ---------------------

    Doubly Occupied:

       1A    -80.108883     2A    -20.608025     3A    -20.598769
       4A    -20.596259     5A    -20.514361     6A    -11.301046
       7A    -11.298922     8A     -7.624485     9A     -5.522974
      10A     -5.522516    11A     -5.521498    12A     -1.450353
      13A     -1.382539    14A     -1.381138    15A     -1.295557
      16A     -0.972869    17A     -0.957638    18A     -0.817584
      19A     -0.732018    20A     -0.708861    21A     -0.678552
      22A     -0.656659    23A     -0.642419    24A     -0.632980
      25A     -0.629479    26A     -0.572078    27A     -0.560064
      28A     -0.542787    29A     -0.519131    30A     -0.500307
      31A     -0.490226    32A     -0.470131    33A     -0.464071

  @DF-RHF Final Energy:  -720.28192107923553

   => Energetics <=

    Nuclear Repulsion Energy =            451.2870381976376279
    One-Electron Energy =               -1890.5875587994726175
    Two-Electron Energy =                 719.0185995225994020
    Total Energy =                       -720.2819210792355307
  Basis Set: (AUG-CC-PVTZ AUX)
    Blend: AUG-CC-PVTZ-RI
    Molecular point group: c1

    Geometry (in Angstrom), charge = 0, multiplicity = 1:

       Center              X                  Y                   Z               Mass
    ------------   -----------------  -----------------  -----------------  -----------------
         P           -0.035121789817     0.466587651348     0.070215604715    30.973761998420
         O            1.091367210183    -0.441748348652     0.760606604715    15.994914619570
         O           -1.009617989817    -0.577035448652    -0.683886095285    15.994914619570
         O            0.751864210183     1.115879651348    -1.193276395285    15.994914619570
         O           -0.703781789817     1.415616651348     0.983548604715    15.994914619570
         C            1.875490210183    -1.335979348652    -0.060181395285    12.000000000000
         C           -1.958473789817    -1.289725348652     0.149845604715    12.000000000000
         H            1.222227210183    -2.006711348652    -0.625882395285     1.007825032230
         H            2.490191210183    -1.905957348652     0.634955604715     1.007825032230
         H            2.503331210183    -0.759876348652    -0.744202395285     1.007825032230
         H           -2.638016789817    -0.571750848652     0.612735704715     1.007825032230
         H           -1.439045789817    -1.863596348652     0.922587604715     1.007825032230
         H           -2.496893789817    -1.961634348652    -0.513823395285     1.007825032230
         H            0.365163210183     1.985731651348    -1.401020395285     1.007825032230

  Basis Set: AUG-CC-PVTZ
    Blend: AUG-CC-PVTZ
  Basis Set: (AUG-CC-PVTZ AUX)
    Blend: AUG-CC-PVTZ-JKFIT
	 Reference Energy          =    -720.2819210792355307 [Eh]
	 Singles Energy            =      -0.0000000000000000 [Eh]
	 Same-Spin Energy          =      -0.4041777727228233 [Eh]
	 Opposite-Spin Energy      =      -1.2297186262672495 [Eh]
	 Correlation Energy        =      -1.6338963989900728 [Eh]
	 Total Energy              =    -721.9158174782255628 [Eh]

	 ================> DF-SCS-MP2 Energies <==================
	-----------------------------------------------------------
	 SCS Same-Spin Scale       =       0.3333333333333333 [-]
	 SCS Opposite-Spin Scale   =       1.2000000000000000 [-]
	 SCS Same-Spin Energy      =      -0.1347259242409411 [Eh]
	 SCS Opposite-Spin Energy  =      -1.4756623515206992 [Eh]
	 SCS Correlation Energy    =      -1.6103882757616403 [Eh]
	 SCS Total Energy          =    -721.8923093549972236 [Eh]
	-----------------------------------------------------------

  Dipole Moment: [D]
     X:     0.4784      Y:    -2.6040      Z:    -1.9631     Total:     3.2960

*** Psi4 exiting successfully. Buy a developer a beer!
