                               Psi4 1.3.2 release

  ==> Input File <==

--------------------------------------------------------------------------
#psi4
#
memory 32 gb

molecule  {
0 1
  P       -0.0357750     0.4680410     0.0705770
  O        1.0907140    -0.4402950     0.7609680
  O       -0.9838511    -0.6310924    -0.6985066
  O        0.7512110     1.1173330    -1.1929150
  O       -0.7044350     1.4170700     0.9839100
  C        1.8748370    -1.3345260    -0.0598200
  C       -1.9591270    -1.2882720     0.1502070
  H        1.2215740    -2.0052580    -0.6255210
  H        2.4895380    -1.9045040     0.6353170
  H        2.5026780    -0.7584230    -0.7438410
  H       -2.6607106    -0.6066157     0.6346227
  H       -1.4396990    -1.8621430     0.9229490
  H       -2.4975470    -1.9601810    -0.5134620
  H        0.3645100     1.9871850    -1.4006590
units angstrom
no_reorient  #important for SAPT in psi4, default
symmetry c1  #important for SAPT in psi4, default
}

set PROPERTIES_ORIGIN ["COM"]
properties('MP2/aug-cc-pvtz', properties = ['dipole'])
--------------------------------------------------------------------------

    Molecular point group: c1
  Charge       = 0
  Multiplicity = 1
  Basis Set: AUG-CC-PVTZ
    Blend: AUG-CC-PVTZ
  Basis Set: (AUG-CC-PVTZ AUX)
    Blend: AUG-CC-PVTZ-JKFIT

    Orbital Energies [Eh]
    ---------------------

    Doubly Occupied:

       1A    -80.112426     2A    -20.609975     3A    -20.598194
       4A    -20.597278     5A    -20.519690     6A    -11.300062
       7A    -11.296520     8A     -7.627608     9A     -5.526092
      10A     -5.525624    11A     -5.524588    12A     -1.448485
      13A     -1.383280    14A     -1.376590    15A     -1.299754
      16A     -0.970635    17A     -0.954894    18A     -0.818806
      19A     -0.730895    20A     -0.707646    21A     -0.677730
      22A     -0.654696    23A     -0.642092    24A     -0.632621
      25A     -0.624174    26A     -0.573412    27A     -0.562536
      28A     -0.542444    29A     -0.517713    30A     -0.498770
      31A     -0.487452    32A     -0.473973    33A     -0.468278

  @DF-RHF Final Energy:  -720.27838949975660

   => Energetics <=

    Nuclear Repulsion Energy =            450.3748574321026581
    One-Electron Energy =               -1888.7366334642629226
    Two-Electron Energy =                 718.0833865324037788
    Total Energy =                       -720.2783894997565994
  Basis Set: (AUG-CC-PVTZ AUX)
    Blend: AUG-CC-PVTZ-RI
    Molecular point group: c1

    Geometry (in Angstrom), charge = 0, multiplicity = 1:

       Center              X                  Y                   Z               Mass
    ------------   -----------------  -----------------  -----------------  -----------------
         P           -0.038299155964     0.473924355877     0.071945176126    30.973761998420
         O            1.088189844036    -0.434411644123     0.762336176126    15.994914619570
         O           -0.986375255964    -0.625209044123    -0.697138423874    15.994914619570
         O            0.748686844036     1.123216355877    -1.191546823874    15.994914619570
         O           -0.706959155964     1.422953355877     0.985278176126    15.994914619570
         C            1.872312844036    -1.328642644123    -0.058451823874    12.000000000000
         C           -1.961651155964    -1.282388644123     0.151575176126    12.000000000000
         H            1.219049844036    -1.999374644123    -0.624152823874     1.007825032230
         H            2.487013844036    -1.898620644123     0.636685176126     1.007825032230
         H            2.500153844036    -0.752539644123    -0.742472823874     1.007825032230
         H           -2.663234755964    -0.600732344123     0.635990876126     1.007825032230
         H           -1.442223155964    -1.856259644123     0.924317176126     1.007825032230
         H           -2.500071155964    -1.954297644123    -0.512093823874     1.007825032230
         H            0.361985844036     1.993068355877    -1.399290823874     1.007825032230

  Basis Set: AUG-CC-PVTZ
    Blend: AUG-CC-PVTZ
  Basis Set: (AUG-CC-PVTZ AUX)
    Blend: AUG-CC-PVTZ-JKFIT
	 Reference Energy          =    -720.2783894997565994 [Eh]
	 Singles Energy            =      -0.0000000000000000 [Eh]
	 Same-Spin Energy          =      -0.4046941514368090 [Eh]
	 Opposite-Spin Energy      =      -1.2310406231082505 [Eh]
	 Correlation Energy        =      -1.6357347745450594 [Eh]
	 Total Energy              =    -721.9141242743016846 [Eh]

	 ================> DF-SCS-MP2 Energies <==================
	-----------------------------------------------------------
	 SCS Same-Spin Scale       =       0.3333333333333333 [-]
	 SCS Opposite-Spin Scale   =       1.2000000000000000 [-]
	 SCS Same-Spin Energy      =      -0.1348980504789363 [Eh]
	 SCS Opposite-Spin Energy  =      -1.4772487477299006 [Eh]
	 SCS Correlation Energy    =      -1.6121467982088369 [Eh]
	 SCS Total Energy          =    -721.8905362979654683 [Eh]
	-----------------------------------------------------------

  Dipole Moment: [D]
     X:     0.4851      Y:    -2.3851      Z:    -1.9008     Total:     3.0882

*** Psi4 exiting successfully. Buy a developer a beer!
