                               Psi4 1.3.2 release

  ==> Input File <==

--------------------------------------------------------------------------
#psi4
#
memory 32 gb

molecule  {
0 1
  P       -0.0357750     0.4680410     0.0705770
  O        1.0907140    -0.4402950     0.7609680
  O       -0.9362506    -0.6189052    -0.7246557
  O        0.7512110     1.1173330    -1.1929150
  O       -0.6351470     1.4476082     0.9996307
  C        1.8748370    -1.3345260    -0.0598200
  C       -1.9591270    -1.2882720     0.1502070
  H        1.2215740    -2.0052580    -0.6255210
  H        2.4895380    -1.9045040     0.6353170
  H        2.5026780    -0.7584230    -0.7438410
  H       -2.6431830    -0.5774540     0.6174740
  H       -1.4396990    -1.8621430     0.9229490
  H       -2.4975470    -1.9601810    -0.5134620
  H        0.3645100     1.9871850    -1.4006590
units angstrom
no_reorient  #important for SAPT in psi4, default
symmetry c1  #important for SAPT in psi4, default
}

set PROPERTIES_ORIGIN ["COM"]
properties('MP2/aug-cc-pvtz', properties = ['dipole'])
--------------------------------------------------------------------------

    Molecular point group: c1
  Charge       = 0
  Multiplicity = 1
  Basis Set: AUG-CC-PVTZ
    Blend: AUG-CC-PVTZ
  Basis Set: (AUG-CC-PVTZ AUX)
    Blend: AUG-CC-PVTZ-JKFIT

    Orbital Energies [Eh]
    ---------------------

    Doubly Occupied:

       1A    -80.107125     2A    -20.602267     3A    -20.601549
       4A    -20.592500     5A    -20.518358     6A    -11.307988
       7A    -11.296602     8A     -7.622848     9A     -5.521331
      10A     -5.520952    11A     -5.519762    12A     -1.445846
      13A     -1.377249    14A     -1.370351    15A     -1.297886
      16A     -0.970996    17A     -0.957151    18A     -0.814834
      19A     -0.726667    20A     -0.705321    21A     -0.675047
      22A     -0.651112    23A     -0.638209    24A     -0.629570
      25A     -0.620816    26A     -0.573470    27A     -0.555508
      28A     -0.546704    29A     -0.519553    30A     -0.501784
      31A     -0.488774    32A     -0.472267    33A     -0.468658

  @DF-RHF Final Energy:  -720.27522299685506

   => Energetics <=

    Nuclear Repulsion Energy =            450.6460771883341181
    One-Electron Energy =               -1889.4044916864258994
    Two-Electron Energy =                 718.4831915012366608
    Total Energy =                       -720.2752229968550637
  Basis Set: (AUG-CC-PVTZ AUX)
    Blend: AUG-CC-PVTZ-RI
    Molecular point group: c1

    Geometry (in Angstrom), charge = 0, multiplicity = 1:

       Center              X                  Y                   Z               Mass
    ------------   -----------------  -----------------  -----------------  -----------------
         P           -0.053276644698     0.468267747492     0.073406067267    30.973761998420
         O            1.073212355302    -0.440068252508     0.763797067267    15.994914619570
         O           -0.953752244698    -0.618678452508    -0.721826632733    15.994914619570
         O            0.733709355302     1.117559747492    -1.190085932733    15.994914619570
         O           -0.652648644698     1.447834947492     1.002459767267    15.994914619570
         C            1.857335355302    -1.334299252508    -0.056990932733    12.000000000000
         C           -1.976628644698    -1.288045252508     0.153036067267    12.000000000000
         H            1.204072355302    -2.005031252508    -0.622691932733     1.007825032230
         H            2.472036355302    -1.904277252508     0.638146067267     1.007825032230
         H            2.485176355302    -0.758196252508    -0.741011932733     1.007825032230
         H           -2.660684644698    -0.577227252508     0.620303067267     1.007825032230
         H           -1.457200644698    -1.861916252508     0.925778067267     1.007825032230
         H           -2.515048644698    -1.959954252508    -0.510632932733     1.007825032230
         H            0.347008355302     1.987411747492    -1.397829932733     1.007825032230

  Basis Set: AUG-CC-PVTZ
    Blend: AUG-CC-PVTZ
  Basis Set: (AUG-CC-PVTZ AUX)
    Blend: AUG-CC-PVTZ-JKFIT
	 Reference Energy          =    -720.2752229968550637 [Eh]
	 Singles Energy            =      -0.0000000000000000 [Eh]
	 Same-Spin Energy          =      -0.4048414399836254 [Eh]
	 Opposite-Spin Energy      =      -1.2317960979725151 [Eh]
	 Correlation Energy        =      -1.6366375379561404 [Eh]
	 Total Energy              =    -721.9118605348112396 [Eh]

	 ================> DF-SCS-MP2 Energies <==================
	-----------------------------------------------------------
	 SCS Same-Spin Scale       =       0.3333333333333333 [-]
	 SCS Opposite-Spin Scale   =       1.2000000000000000 [-]
	 SCS Same-Spin Energy      =      -0.1349471466612084 [Eh]
	 SCS Opposite-Spin Energy  =      -1.4781553175670181 [Eh]
	 SCS Correlation Energy    =      -1.6131024642282266 [Eh]
	 SCS Total Energy          =    -721.8883254610832410 [Eh]
	-----------------------------------------------------------

  Dipole Moment: [D]
     X:    -0.0458      Y:    -2.6563      Z:    -1.8460     Total:     3.2351

*** Psi4 exiting successfully. Buy a developer a beer!
