                               Psi4 1.3.2 release

  ==> Input File <==

--------------------------------------------------------------------------
#psi4
#
memory 32 gb

molecule  {
0 1
  P       -0.0357750     0.4680410     0.0705770
  O        1.0907140    -0.4402950     0.7609680
  O       -1.0048410    -0.5865790    -0.6866490
  O        0.7512110     1.1173330    -1.1929150
  O       -0.7044350     1.4170700     0.9839100
  C        1.8748370    -1.3345260    -0.0598200
  C       -1.9591270    -1.2882720     0.1502070
  H        1.2215740    -2.0052580    -0.6255210
  H        2.4895380    -1.9045040     0.6353170
  H        2.5026780    -0.7584230    -0.7438410
  H       -2.6431830    -0.5774540     0.6174740
  H       -1.4396990    -1.8621430     0.9229490
  H       -2.4975470    -1.9601810    -0.5134620
  H        0.2851330     2.1657371    -1.4433020
units angstrom
no_reorient  #important for SAPT in psi4, default
symmetry c1  #important for SAPT in psi4, default
}

set PROPERTIES_ORIGIN ["COM"]
properties('MP2/aug-cc-pvtz', properties = ['dipole'])
--------------------------------------------------------------------------

    Molecular point group: c1
  Charge       = 0
  Multiplicity = 1
  Basis Set: AUG-CC-PVTZ
    Blend: AUG-CC-PVTZ
  Basis Set: (AUG-CC-PVTZ AUX)
    Blend: AUG-CC-PVTZ-JKFIT

    Orbital Energies [Eh]
    ---------------------

    Doubly Occupied:

       1A    -80.105657     2A    -20.616836     3A    -20.596720
       4A    -20.594016     5A    -20.512039     6A    -11.299264
       7A    -11.296788     8A     -7.621184     9A     -5.519610
      10A     -5.519237    11A     -5.518222    12A     -1.441270
      13A     -1.378592    14A     -1.352479    15A     -1.291684
      16A     -0.969287    17A     -0.955070    18A     -0.796063
      19A     -0.714263    20A     -0.701407    21A     -0.671947
      22A     -0.650735    23A     -0.634862    24A     -0.625920
      25A     -0.620354    26A     -0.567850    27A     -0.552779
      28A     -0.539892    29A     -0.515589    30A     -0.497785
      31A     -0.487383    32A     -0.467086    33A     -0.462057

  @DF-RHF Final Energy:  -720.24660830323251

   => Energetics <=

    Nuclear Repulsion Energy =            449.9022710978441637
    One-Electron Energy =               -1888.1099016381749607
    Two-Electron Energy =                 717.9610222370981774
    Total Energy =                       -720.2466083032325059
  Basis Set: (AUG-CC-PVTZ AUX)
    Blend: AUG-CC-PVTZ-RI
    Molecular point group: c1

    Geometry (in Angstrom), charge = 0, multiplicity = 1:

       Center              X                  Y                   Z               Mass
    ------------   -----------------  -----------------  -----------------  -----------------
         P           -0.035140115160     0.466612710833     0.070918245085    30.973761998420
         O            1.091348884840    -0.441723289167     0.761309245085    15.994914619570
         O           -1.004206115160    -0.588007289167    -0.686307754915    15.994914619570
         O            0.751845884840     1.115904710833    -1.192573754915    15.994914619570
         O           -0.703800115160     1.415641710833     0.984251245085    15.994914619570
         C            1.875471884840    -1.335954289167    -0.059478754915    12.000000000000
         C           -1.958492115160    -1.289700289167     0.150548245085    12.000000000000
         H            1.222208884840    -2.006686289167    -0.625179754915     1.007825032230
         H            2.490172884840    -1.905932289167     0.635658245085     1.007825032230
         H            2.503312884840    -0.759851289167    -0.743499754915     1.007825032230
         H           -2.642548115160    -0.578882289167     0.617815245085     1.007825032230
         H           -1.439064115160    -1.863571289167     0.923290245085     1.007825032230
         H           -2.496912115160    -1.961609289167    -0.513120754915     1.007825032230
         H            0.285767884840     2.164308810833    -1.442960754915     1.007825032230

  Basis Set: AUG-CC-PVTZ
    Blend: AUG-CC-PVTZ
  Basis Set: (AUG-CC-PVTZ AUX)
    Blend: AUG-CC-PVTZ-JKFIT
	 Reference Energy          =    -720.2466083032325059 [Eh]
	 Singles Energy            =      -0.0000000000000000 [Eh]
	 Same-Spin Energy          =      -0.4063709905235159 [Eh]
	 Opposite-Spin Energy      =      -1.2356904908430595 [Eh]
	 Correlation Energy        =      -1.6420614813665755 [Eh]
	 Total Energy              =    -721.8886697845990739 [Eh]

	 ================> DF-SCS-MP2 Energies <==================
	-----------------------------------------------------------
	 SCS Same-Spin Scale       =       0.3333333333333333 [-]
	 SCS Opposite-Spin Scale   =       1.2000000000000000 [-]
	 SCS Same-Spin Energy      =      -0.1354569968411720 [Eh]
	 SCS Opposite-Spin Energy  =      -1.4828285890116712 [Eh]
	 SCS Correlation Energy    =      -1.6182855858528433 [Eh]
	 SCS Total Energy          =    -721.8648938890853515 [Eh]
	-----------------------------------------------------------

  Dipole Moment: [D]
     X:     0.4298      Y:    -2.2535      Z:    -2.0904     Total:     3.1037

*** Psi4 exiting successfully. Buy a developer a beer!
