                               Psi4 1.3.2 release

  ==> Input File <==

--------------------------------------------------------------------------
#psi4
#
memory 32 gb

molecule  {
0 1
  P       -0.0357750     0.4680410     0.0705770
  O        1.0907140    -0.4402950     0.7609680
  O       -1.0271233    -0.5751566    -0.6735136
  O        0.7512110     1.1173330    -1.1929150
  O       -0.7271330     1.4063082     0.9781111
  C        1.8748370    -1.3345260    -0.0598200
  C       -1.9591270    -1.2882720     0.1502070
  H        1.2215740    -2.0052580    -0.6255210
  H        2.4895380    -1.9045040     0.6353170
  H        2.5026780    -0.7584230    -0.7438410
  H       -2.6431830    -0.5774540     0.6174740
  H       -1.4396990    -1.8621430     0.9229490
  H       -2.4975470    -1.9601810    -0.5134620
  H        0.3645100     1.9871850    -1.4006590
units angstrom
no_reorient  #important for SAPT in psi4, default
symmetry c1  #important for SAPT in psi4, default
}

set PROPERTIES_ORIGIN ["COM"]
properties('MP2/aug-cc-pvtz', properties = ['dipole'])
--------------------------------------------------------------------------

    Molecular point group: c1
  Charge       = 0
  Multiplicity = 1
  Basis Set: AUG-CC-PVTZ
    Blend: AUG-CC-PVTZ
  Basis Set: (AUG-CC-PVTZ AUX)
    Blend: AUG-CC-PVTZ-JKFIT

    Orbital Energies [Eh]
    ---------------------

    Doubly Occupied:

       1A    -80.110445     2A    -20.610636     3A    -20.600636
       4A    -20.594261     5A    -20.514370     6A    -11.302218
       7A    -11.295349     8A     -7.625888     9A     -5.524385
      10A     -5.523895    11A     -5.522911    12A     -1.451358
      13A     -1.384399    14A     -1.383569    15A     -1.295810
      16A     -0.973216    17A     -0.956869    18A     -0.818730
      19A     -0.733407    20A     -0.709710    21A     -0.679363
      22A     -0.658047    23A     -0.643784    24A     -0.633885
      25A     -0.630975    26A     -0.572121    27A     -0.562261
      28A     -0.542001    29A     -0.518121    30A     -0.499642
      31A     -0.489235    32A     -0.470340    33A     -0.462961

  @DF-RHF Final Energy:  -720.28189137406230

   => Energetics <=

    Nuclear Repulsion Energy =            451.2901438217991767
    One-Electron Energy =               -1890.5544701955391247
    Two-Electron Energy =                 718.9824349996777073
    Total Energy =                       -720.2818913740622975
  Basis Set: (AUG-CC-PVTZ AUX)
    Blend: AUG-CC-PVTZ-RI
    Molecular point group: c1

    Geometry (in Angstrom), charge = 0, multiplicity = 1:

       Center              X                  Y                   Z               Mass
    ------------   -----------------  -----------------  -----------------  -----------------
         P           -0.030065382307     0.467956933202     0.069645920114    30.973761998420
         O            1.096423617693    -0.440379066798     0.760036920114    15.994914619570
         O           -1.021413682307    -0.575240666798    -0.674444679886    15.994914619570
         O            0.756920617693     1.117248933202    -1.193846079886    15.994914619570
         O           -0.721423382307     1.406224133202     0.977180020114    15.994914619570
         C            1.880546617693    -1.334610066798    -0.060751079886    12.000000000000
         C           -1.953417382307    -1.288356066798     0.149275920114    12.000000000000
         H            1.227283617693    -2.005342066798    -0.626452079886     1.007825032230
         H            2.495247617693    -1.904588066798     0.634385920114     1.007825032230
         H            2.508387617693    -0.758507066798    -0.744772079886     1.007825032230
         H           -2.637473382307    -0.577538066798     0.616542920114     1.007825032230
         H           -1.433989382307    -1.862227066798     0.922017920114     1.007825032230
         H           -2.491837382307    -1.960265066798    -0.514393079886     1.007825032230
         H            0.370219617693     1.987100933202    -1.401590079886     1.007825032230

  Basis Set: AUG-CC-PVTZ
    Blend: AUG-CC-PVTZ
  Basis Set: (AUG-CC-PVTZ AUX)
    Blend: AUG-CC-PVTZ-JKFIT
	 Reference Energy          =    -720.2818913740622975 [Eh]
	 Singles Energy            =      -0.0000000000000000 [Eh]
	 Same-Spin Energy          =      -0.4041498812878485 [Eh]
	 Opposite-Spin Energy      =      -1.2294920533470766 [Eh]
	 Correlation Energy        =      -1.6336419346349249 [Eh]
	 Total Energy              =    -721.9155333086972632 [Eh]

	 ================> DF-SCS-MP2 Energies <==================
	-----------------------------------------------------------
	 SCS Same-Spin Scale       =       0.3333333333333333 [-]
	 SCS Opposite-Spin Scale   =       1.2000000000000000 [-]
	 SCS Same-Spin Energy      =      -0.1347166270959495 [Eh]
	 SCS Opposite-Spin Energy  =      -1.4753904640164919 [Eh]
	 SCS Correlation Energy    =      -1.6101070911124413 [Eh]
	 SCS Total Energy          =    -721.8919984651747654 [Eh]
	-----------------------------------------------------------

  Dipole Moment: [D]
     X:     0.6539      Y:    -2.5269      Z:    -1.9853     Total:     3.2794

*** Psi4 exiting successfully. Buy a developer a beer!
