                               Psi4 1.3.2 release

  ==> Input File <==

--------------------------------------------------------------------------
#psi4
#
memory 32 gb

molecule  {
0 1
  P       -0.0441093     0.4794869     0.0711883
  O        1.0907140    -0.4402950     0.7609680
  O       -1.0048410    -0.5865790    -0.6866490
  O        0.7512110     1.1173330    -1.1929150
  O       -0.7044350     1.4170700     0.9839100
  C        1.8748370    -1.3345260    -0.0598200
  C       -1.9591270    -1.2882720     0.1502070
  H        1.2215740    -2.0052580    -0.6255210
  H        2.4895380    -1.9045040     0.6353170
  H        2.5026780    -0.7584230    -0.7438410
  H       -2.6431830    -0.5774540     0.6174740
  H       -1.4396990    -1.8621430     0.9229490
  H       -2.4975470    -1.9601810    -0.5134620
  H        0.3589774     1.9862081    -1.3942769
units angstrom
no_reorient  #important for SAPT in psi4, default
symmetry c1  #important for SAPT in psi4, default
}

set PROPERTIES_ORIGIN ["COM"]
properties('MP2/aug-cc-pvtz', properties = ['dipole'])
--------------------------------------------------------------------------

    Molecular point group: c1
  Charge       = 0
  Multiplicity = 1
  Basis Set: AUG-CC-PVTZ
    Blend: AUG-CC-PVTZ
  Basis Set: (AUG-CC-PVTZ AUX)
    Blend: AUG-CC-PVTZ-JKFIT

    Orbital Energies [Eh]
    ---------------------

    Doubly Occupied:

       1A    -80.109395     2A    -20.609610     3A    -20.596271
       4A    -20.595461     5A    -20.518445     6A    -11.298674
       7A    -11.298267     8A     -7.625152     9A     -5.523601
      10A     -5.523110    11A     -5.522247    12A     -1.448507
      13A     -1.381827    14A     -1.377463    15A     -1.303941
      16A     -0.970483    17A     -0.955281    18A     -0.816433
      19A     -0.730545    20A     -0.706323    21A     -0.677528
      22A     -0.656840    23A     -0.640705    24A     -0.631647
      25A     -0.627244    26A     -0.575736    27A     -0.561012
      28A     -0.541909    29A     -0.518686    30A     -0.498156
      31A     -0.487733    32A     -0.475996    33A     -0.468788

  @DF-RHF Final Energy:  -720.28110559417792

   => Energetics <=

    Nuclear Repulsion Energy =            450.9713317976567168
    One-Electron Energy =               -1889.9588409958828379
    Two-Electron Energy =                 718.7064036040483188
    Total Energy =                       -720.2811055941779159
  Basis Set: (AUG-CC-PVTZ AUX)
    Blend: AUG-CC-PVTZ-RI
    Molecular point group: c1

    Geometry (in Angstrom), charge = 0, multiplicity = 1:

       Center              X                  Y                   Z               Mass
    ------------   -----------------  -----------------  -----------------  -----------------
         P           -0.042016395792     0.476681011850     0.070987175731    30.973761998420
         O            1.092806904208    -0.443100888150     0.760766875731    15.994914619570
         O           -1.002748095792    -0.589384888150    -0.686850124269    15.994914619570
         O            0.753303904208     1.114527111850    -1.193116124269    15.994914619570
         O           -0.702342095792     1.414264111850     0.983708875731    15.994914619570
         C            1.876929904208    -1.337331888150    -0.060021124269    12.000000000000
         C           -1.957034095792    -1.291077888150     0.150005875731    12.000000000000
         H            1.223666904208    -2.008063888150    -0.625722124269     1.007825032230
         H            2.491630904208    -1.907309888150     0.635115875731     1.007825032230
         H            2.504770904208    -0.761228888150    -0.744042124269     1.007825032230
         H           -2.641090095792    -0.580259888150     0.617272875731     1.007825032230
         H           -1.437606095792    -1.864948888150     0.922747875731     1.007825032230
         H           -2.495454095792    -1.962986888150    -0.513663124269     1.007825032230
         H            0.361070304208     1.983402211850    -1.394478024269     1.007825032230

  Basis Set: AUG-CC-PVTZ
    Blend: AUG-CC-PVTZ
  Basis Set: (AUG-CC-PVTZ AUX)
    Blend: AUG-CC-PVTZ-JKFIT
	 Reference Energy          =    -720.2811055941779159 [Eh]
	 Singles Energy            =      -0.0000000000000000 [Eh]
	 Same-Spin Energy          =      -0.4042097549818389 [Eh]
	 Opposite-Spin Energy      =      -1.2299488880258949 [Eh]
	 Correlation Energy        =      -1.6341586430077337 [Eh]
	 Total Energy              =    -721.9152642371856246 [Eh]

	 ================> DF-SCS-MP2 Energies <==================
	-----------------------------------------------------------
	 SCS Same-Spin Scale       =       0.3333333333333333 [-]
	 SCS Opposite-Spin Scale   =       1.2000000000000000 [-]
	 SCS Same-Spin Energy      =      -0.1347365849939463 [Eh]
	 SCS Opposite-Spin Energy  =      -1.4759386656310738 [Eh]
	 SCS Correlation Energy    =      -1.6106752506250201 [Eh]
	 SCS Total Energy          =    -721.8917808448029518 [Eh]
	-----------------------------------------------------------

  Dipole Moment: [D]
     X:     0.3718      Y:    -2.4292      Z:    -1.9263     Total:     3.1225

*** Psi4 exiting successfully. Buy a developer a beer!
