                               Psi4 1.3.2 release

  ==> Input File <==

--------------------------------------------------------------------------
#psi4
#
memory 32 gb

molecule  {
0 1
  P       -0.0357750     0.4680410     0.0705770
  O        1.1039832    -0.4765954     0.6864543
  O       -1.0048410    -0.5865790    -0.6866490
  O        0.7512110     1.1173330    -1.1929150
  O       -0.7472424     1.4412192     0.9242033
  C        1.8748370    -1.3345260    -0.0598200
  C       -1.9591270    -1.2882720     0.1502070
  H        1.2215740    -2.0052580    -0.6255210
  H        2.4895380    -1.9045040     0.6353170
  H        2.5026780    -0.7584230    -0.7438410
  H       -2.6431830    -0.5774540     0.6174740
  H       -1.4396990    -1.8621430     0.9229490
  H       -2.4975470    -1.9601810    -0.5134620
  H        0.3645100     1.9871850    -1.4006590
units angstrom
no_reorient  #important for SAPT in psi4, default
symmetry c1  #important for SAPT in psi4, default
}

set PROPERTIES_ORIGIN ["COM"]
properties('MP2/aug-cc-pvtz', properties = ['dipole'])
--------------------------------------------------------------------------

    Molecular point group: c1
  Charge       = 0
  Multiplicity = 1
  Basis Set: AUG-CC-PVTZ
    Blend: AUG-CC-PVTZ
  Basis Set: (AUG-CC-PVTZ AUX)
    Blend: AUG-CC-PVTZ-JKFIT

    Orbital Energies [Eh]
    ---------------------

    Doubly Occupied:

       1A    -80.114500     2A    -20.605825     3A    -20.598492
       4A    -20.593493     5A    -20.523318     6A    -11.297973
       7A    -11.293910     8A     -7.629603     9A     -5.528302
      10A     -5.527692    11A     -5.526495    12A     -1.458612
      13A     -1.394760    14A     -1.378973    15A     -1.302865
      16A     -0.978347    17A     -0.956055    18A     -0.818061
      19A     -0.734386    20A     -0.714894    21A     -0.685879
      22A     -0.660608    23A     -0.649028    24A     -0.635922
      25A     -0.633188    26A     -0.577355    27A     -0.558282
      28A     -0.538632    29A     -0.514803    30A     -0.496051
      31A     -0.483876    32A     -0.476928    33A     -0.468780

  @DF-RHF Final Energy:  -720.27824724400887

   => Energetics <=

    Nuclear Repulsion Energy =            452.4026631574537873
    One-Electron Energy =               -1892.6500458238026567
    Two-Electron Energy =                 719.9691354223399458
    Total Energy =                       -720.2782472440088668
  Basis Set: (AUG-CC-PVTZ AUX)
    Blend: AUG-CC-PVTZ-RI
    Molecular point group: c1

    Geometry (in Angstrom), charge = 0, multiplicity = 1:

       Center              X                  Y                   Z               Mass
    ------------   -----------------  -----------------  -----------------  -----------------
         P           -0.032025533150     0.469583205572     0.087614517447    30.973761998420
         O            1.107732666850    -0.475053194428     0.703491817447    15.994914619570
         O           -1.001091533150    -0.585036794428    -0.669611482553    15.994914619570
         O            0.754960466850     1.118875205572    -1.175877482553    15.994914619570
         O           -0.743492933150     1.442761405572     0.941240817447    15.994914619570
         C            1.878586466850    -1.332983794428    -0.042782482553    12.000000000000
         C           -1.955377533150    -1.286729794428     0.167244517447    12.000000000000
         H            1.225323466850    -2.003715794428    -0.608483482553     1.007825032230
         H            2.493287466850    -1.902961794428     0.652354517447     1.007825032230
         H            2.506427466850    -0.756880794428    -0.726803482553     1.007825032230
         H           -2.639433533150    -0.575911794428     0.634511517447     1.007825032230
         H           -1.435949533150    -1.860600794428     0.939986517447     1.007825032230
         H           -2.493797533150    -1.958638794428    -0.496424482553     1.007825032230
         H            0.368259466850     1.988727205572    -1.383621482553     1.007825032230

  Basis Set: AUG-CC-PVTZ
    Blend: AUG-CC-PVTZ
  Basis Set: (AUG-CC-PVTZ AUX)
    Blend: AUG-CC-PVTZ-JKFIT
	 Reference Energy          =    -720.2782472440088668 [Eh]
	 Singles Energy            =      -0.0000000000000000 [Eh]
	 Same-Spin Energy          =      -0.4041818709326184 [Eh]
	 Opposite-Spin Energy      =      -1.2287617380951281 [Eh]
	 Correlation Energy        =      -1.6329436090277465 [Eh]
	 Total Energy              =    -721.9111908530366009 [Eh]

	 ================> DF-SCS-MP2 Energies <==================
	-----------------------------------------------------------
	 SCS Same-Spin Scale       =       0.3333333333333333 [-]
	 SCS Opposite-Spin Scale   =       1.2000000000000000 [-]
	 SCS Same-Spin Energy      =      -0.1347272903108728 [Eh]
	 SCS Opposite-Spin Energy  =      -1.4745140857141537 [Eh]
	 SCS Correlation Energy    =      -1.6092413760250264 [Eh]
	 SCS Total Energy          =    -721.8874886200338779 [Eh]
	-----------------------------------------------------------

  Dipole Moment: [D]
     X:     0.4247      Y:    -2.3746      Z:    -1.5574     Total:     2.8713

*** Psi4 exiting successfully. Buy a developer a beer!
