                               Psi4 1.3.2 release

  ==> Input File <==

--------------------------------------------------------------------------
#psi4
#
memory 32 gb

molecule  {
0 1
  P       -0.0357750     0.4680410     0.0705770
  O        1.0907140    -0.4402950     0.7609680
  O       -1.0048410    -0.5865790    -0.6866490
  O        0.7512110     1.1173330    -1.1929150
  O       -0.7044350     1.4170700     0.9839100
  C        1.8748370    -1.3345260    -0.0598200
  C       -1.9591270    -1.2882720     0.1502070
  H        1.2215740    -2.0052580    -0.6255210
  H        2.4895380    -1.9045040     0.6353170
  H        2.5026780    -0.7584230    -0.7438410
  H       -2.6431830    -0.5774540     0.6174740
  H       -1.4396990    -1.8621430     0.9229490
  H       -2.4975470    -1.9601810    -0.5134620
  H        0.3248215     2.0764611    -1.4219805
units angstrom
no_reorient  #important for SAPT in psi4, default
symmetry c1  #important for SAPT in psi4, default
}

set PROPERTIES_ORIGIN ["COM"]
properties('MP2/aug-cc-pvtz', properties = ['dipole'])
--------------------------------------------------------------------------

    Molecular point group: c1
  Charge       = 0
  Multiplicity = 1
  Basis Set: AUG-CC-PVTZ
    Blend: AUG-CC-PVTZ
  Basis Set: (AUG-CC-PVTZ AUX)
    Blend: AUG-CC-PVTZ-JKFIT

    Orbital Energies [Eh]
    ---------------------

    Doubly Occupied:

       1A    -80.107602     2A    -20.613588     3A    -20.597665
       4A    -20.595245     5A    -20.513723     6A    -11.300055
       7A    -11.297624     8A     -7.623124     9A     -5.521580
      10A     -5.521164    11A     -5.520149    12A     -1.444606
      13A     -1.379730    14A     -1.365574    15A     -1.294075
      16A     -0.970717    17A     -0.956081    18A     -0.804811
      19A     -0.721624    20A     -0.705794    21A     -0.675136
      22A     -0.653290    23A     -0.638126    24A     -0.628859
      25A     -0.627126    26A     -0.570185    27A     -0.556461
      28A     -0.541372    29A     -0.517260    30A     -0.498913
      31A     -0.488540    32A     -0.469020    33A     -0.463522

  @DF-RHF Final Energy:  -720.26856410942401

   => Energetics <=

    Nuclear Repulsion Energy =            450.4691621858372628
    One-Electron Energy =               -1889.1107660830843997
    Two-Electron Energy =                 718.3730397878230178
    Total Energy =                       -720.2685641094240054
  Basis Set: (AUG-CC-PVTZ AUX)
    Blend: AUG-CC-PVTZ-RI
    Molecular point group: c1

    Geometry (in Angstrom), charge = 0, multiplicity = 1:

       Center              X                  Y                   Z               Mass
    ------------   -----------------  -----------------  -----------------  -----------------
         P           -0.035457547400     0.467326748416     0.070747713785    30.973761998420
         O            1.091031452600    -0.441009251584     0.761138713785    15.994914619570
         O           -1.004523547400    -0.587293251584    -0.686478286215    15.994914619570
         O            0.751528452600     1.116618748416    -1.192744286215    15.994914619570
         O           -0.704117547400     1.416355748416     0.984080713785    15.994914619570
         C            1.875154452600    -1.335240251584    -0.059649286215    12.000000000000
         C           -1.958809547400    -1.288986251584     0.150377713785    12.000000000000
         H            1.221891452600    -2.005972251584    -0.625350286215     1.007825032230
         H            2.489855452600    -1.905218251584     0.635487713785     1.007825032230
         H            2.502995452600    -0.759137251584    -0.743670286215     1.007825032230
         H           -2.642865547400    -0.578168251584     0.617644713785     1.007825032230
         H           -1.439381547400    -1.862857251584     0.923119713785     1.007825032230
         H           -2.497229547400    -1.960895251584    -0.513291286215     1.007825032230
         H            0.325138952600     2.075746848416    -1.421809786215     1.007825032230

  Basis Set: AUG-CC-PVTZ
    Blend: AUG-CC-PVTZ
  Basis Set: (AUG-CC-PVTZ AUX)
    Blend: AUG-CC-PVTZ-JKFIT
	 Reference Energy          =    -720.2685641094240054 [Eh]
	 Singles Energy            =      -0.0000000000000000 [Eh]
	 Same-Spin Energy          =      -0.4053497826020869 [Eh]
	 Opposite-Spin Energy      =      -1.2327107069826742 [Eh]
	 Correlation Energy        =      -1.6380604895847610 [Eh]
	 Total Energy              =    -721.9066245990087509 [Eh]

	 ================> DF-SCS-MP2 Energies <==================
	-----------------------------------------------------------
	 SCS Same-Spin Scale       =       0.3333333333333333 [-]
	 SCS Opposite-Spin Scale   =       1.2000000000000000 [-]
	 SCS Same-Spin Energy      =      -0.1351165942006956 [Eh]
	 SCS Opposite-Spin Energy  =      -1.4792528483792089 [Eh]
	 SCS Correlation Energy    =      -1.6143694425799044 [Eh]
	 SCS Total Energy          =    -721.8829335520039194 [Eh]
	-----------------------------------------------------------

  Dipole Moment: [D]
     X:     0.4566      Y:    -2.4077      Z:    -2.0227     Total:     3.1776

*** Psi4 exiting successfully. Buy a developer a beer!
