                               Psi4 1.3.2 release

  ==> Input File <==

--------------------------------------------------------------------------
#psi4
#
memory 32 gb

molecule  {
0 1
  P       -0.0357750     0.4680410     0.0705770
  O        1.0907140    -0.4402950     0.7609680
  O       -1.0048410    -0.5865790    -0.6866490
  O        0.7027509     1.0773517    -1.1151132
  O       -0.7044350     1.4170700     0.9839100
  C        1.8748370    -1.3345260    -0.0598200
  C       -1.9591270    -1.2882720     0.1502070
  H        1.2215740    -2.0052580    -0.6255210
  H        2.4895380    -1.9045040     0.6353170
  H        2.5026780    -0.7584230    -0.7438410
  H       -2.6431830    -0.5774540     0.6174740
  H       -1.4396990    -1.8621430     0.9229490
  H       -2.4975470    -1.9601810    -0.5134620
  H        0.3645100     1.9871850    -1.4006590
units angstrom
no_reorient  #important for SAPT in psi4, default
symmetry c1  #important for SAPT in psi4, default
}

set PROPERTIES_ORIGIN ["COM"]
properties('MP2/aug-cc-pvtz', properties = ['dipole'])
--------------------------------------------------------------------------

    Molecular point group: c1
  Charge       = 0
  Multiplicity = 1
  Basis Set: AUG-CC-PVTZ
    Blend: AUG-CC-PVTZ
  Basis Set: (AUG-CC-PVTZ AUX)
    Blend: AUG-CC-PVTZ-JKFIT

    Orbital Energies [Eh]
    ---------------------

    Doubly Occupied:

       1A    -80.096056     2A    -20.614331     3A    -20.591851
       4A    -20.590012     5A    -20.506156     6A    -11.298328
       7A    -11.294034     8A     -7.614133     9A     -5.513064
      10A     -5.511928    11A     -5.510956    12A     -1.464536
      13A     -1.389525    14A     -1.375486    15A     -1.288870
      16A     -0.968943    17A     -0.953614    18A     -0.830689
      19A     -0.733863    20A     -0.711169    21A     -0.679478
      22A     -0.660102    23A     -0.640668    24A     -0.630972
      25A     -0.626633    26A     -0.572328    27A     -0.567333
      28A     -0.537844    29A     -0.514780    30A     -0.496396
      31A     -0.484757    32A     -0.464605    33A     -0.458217

  @DF-RHF Final Energy:  -720.27866579293925

   => Energetics <=

    Nuclear Repulsion Energy =            455.1767363854692690
    One-Electron Energy =               -1898.5274927949380981
    Two-Electron Energy =                 723.0720906165296356
    Total Energy =                       -720.2786657929392504
  Basis Set: (AUG-CC-PVTZ AUX)
    Blend: AUG-CC-PVTZ-RI
    Molecular point group: c1

    Geometry (in Angstrom), charge = 0, multiplicity = 1:

       Center              X                  Y                   Z               Mass
    ------------   -----------------  -----------------  -----------------  -----------------
         P           -0.029623672118     0.473115833517     0.060701371302    30.973761998420
         O            1.096865327882    -0.435220166483     0.751092371302    15.994914619570
         O           -0.998689672118    -0.581504166483    -0.696524628698    15.994914619570
         O            0.708902227882     1.082426533517    -1.124988828698    15.994914619570
         O           -0.698283672118     1.422144833517     0.974034371302    15.994914619570
         C            1.880988327882    -1.329451166483    -0.069695628698    12.000000000000
         C           -1.952975672118    -1.283197166483     0.140331371302    12.000000000000
         H            1.227725327882    -2.000183166483    -0.635396628698     1.007825032230
         H            2.495689327882    -1.899429166483     0.625441371302     1.007825032230
         H            2.508829327882    -0.753348166483    -0.753716628698     1.007825032230
         H           -2.637031672118    -0.572379166483     0.607598371302     1.007825032230
         H           -1.433547672118    -1.857068166483     0.913073371302     1.007825032230
         H           -2.491395672118    -1.955106166483    -0.523337628698     1.007825032230
         H            0.370661327882     1.992259833517    -1.410534628698     1.007825032230

  Basis Set: AUG-CC-PVTZ
    Blend: AUG-CC-PVTZ
  Basis Set: (AUG-CC-PVTZ AUX)
    Blend: AUG-CC-PVTZ-JKFIT
	 Reference Energy          =    -720.2786657929392504 [Eh]
	 Singles Energy            =      -0.0000000000000000 [Eh]
	 Same-Spin Energy          =      -0.4038751084757386 [Eh]
	 Opposite-Spin Energy      =      -1.2277670207512366 [Eh]
	 Correlation Energy        =      -1.6316421292269752 [Eh]
	 Total Energy              =    -721.9103079221662256 [Eh]

	 ================> DF-SCS-MP2 Energies <==================
	-----------------------------------------------------------
	 SCS Same-Spin Scale       =       0.3333333333333333 [-]
	 SCS Opposite-Spin Scale   =       1.2000000000000000 [-]
	 SCS Same-Spin Energy      =      -0.1346250361585795 [Eh]
	 SCS Opposite-Spin Energy  =      -1.4733204249014837 [Eh]
	 SCS Correlation Energy    =      -1.6079454610600632 [Eh]
	 SCS Total Energy          =    -721.8866112539992628 [Eh]
	-----------------------------------------------------------

  Dipole Moment: [D]
     X:     0.7462      Y:    -2.1972      Z:    -2.4374     Total:     3.3653

*** Psi4 exiting successfully. Buy a developer a beer!
