                               Psi4 1.3.2 release

  ==> Input File <==

--------------------------------------------------------------------------
#psi4
#
memory 32 gb

molecule  {
0 1
  P       -0.0357750     0.4680410     0.0705770
  O        1.0907140    -0.4402950     0.7609680
  O       -1.0048410    -0.5865790    -0.6866490
  O        0.7512110     1.1173330    -1.1929150
  O       -0.7044350     1.4170700     0.9839100
  C        1.8748370    -1.3345260    -0.0598200
  C       -1.9591270    -1.2882720     0.1502070
  H        1.2215740    -2.0052580    -0.6255210
  H        2.4895380    -1.9045040     0.6353170
  H        2.5026780    -0.7584230    -0.7438410
  H       -2.6431830    -0.5774540     0.6174740
  H       -1.4396990    -1.8621430     0.9229490
  H       -2.4975470    -1.9601810    -0.5134620
  H        0.3645100     1.9871850    -1.4006590
units angstrom
no_reorient  #important for SAPT in psi4, default
symmetry c1  #important for SAPT in psi4, default
}

set PROPERTIES_ORIGIN ["COM"]
properties('MP2/aug-cc-pvtz', properties = ['dipole'])
--------------------------------------------------------------------------

    Molecular point group: c1
  Charge       = 0
  Multiplicity = 1
  Basis Set: AUG-CC-PVTZ
    Blend: AUG-CC-PVTZ
  Basis Set: (AUG-CC-PVTZ AUX)
    Blend: AUG-CC-PVTZ-JKFIT

    Orbital Energies [Eh]
    ---------------------

    Doubly Occupied:

       1A    -80.109576     2A    -20.608397     3A    -20.598633
       4A    -20.596477     5A    -20.515427     6A    -11.300842
       7A    -11.298461     8A     -7.625092     9A     -5.523582
      10A     -5.523118    11A     -5.522102    12A     -1.449952
      13A     -1.382626    14A     -1.380312    15A     -1.296397
      16A     -0.972394    17A     -0.957128    18A     -0.817813
      19A     -0.731795    20A     -0.708647    21A     -0.678317
      22A     -0.656224    23A     -0.642362    24A     -0.632716
      25A     -0.628700    26A     -0.572314    27A     -0.560546
      28A     -0.542702    29A     -0.518918    30A     -0.500043
      31A     -0.489692    32A     -0.470907    33A     -0.464954

  @DF-RHF Final Energy:  -720.28150088271400

   => Energetics <=

    Nuclear Repulsion Energy =            451.1105103298263543
    One-Electron Energy =               -1890.2296929934257150
    Two-Electron Energy =                 718.8376817808853048
    Total Energy =                       -720.2815008827139991
  Basis Set: (AUG-CC-PVTZ AUX)
    Blend: AUG-CC-PVTZ-RI
    Molecular point group: c1

    Geometry (in Angstrom), charge = 0, multiplicity = 1:

       Center              X                  Y                   Z               Mass
    ------------   -----------------  -----------------  -----------------  -----------------
         P           -0.035774979639     0.468040786800     0.070577182485    30.973761998420
         O            1.090714020361    -0.440295213200     0.760968182485    15.994914619570
         O           -1.004840979639    -0.586579213200    -0.686648817515    15.994914619570
         O            0.751211020361     1.117332786800    -1.192914817515    15.994914619570
         O           -0.704434979639     1.417069786800     0.983910182485    15.994914619570
         C            1.874837020361    -1.334526213200    -0.059819817515    12.000000000000
         C           -1.959126979639    -1.288272213200     0.150207182485    12.000000000000
         H            1.221574020361    -2.005258213200    -0.625520817515     1.007825032230
         H            2.489538020361    -1.904504213200     0.635317182485     1.007825032230
         H            2.502678020361    -0.758423213200    -0.743840817515     1.007825032230
         H           -2.643182979639    -0.577454213200     0.617474182485     1.007825032230
         H           -1.439698979639    -1.862143213200     0.922949182485     1.007825032230
         H           -2.497546979639    -1.960181213200    -0.513461817515     1.007825032230
         H            0.364510020361     1.987184786800    -1.400658817515     1.007825032230

  Basis Set: AUG-CC-PVTZ
    Blend: AUG-CC-PVTZ
  Basis Set: (AUG-CC-PVTZ AUX)
    Blend: AUG-CC-PVTZ-JKFIT
	 Reference Energy          =    -720.2815008827139991 [Eh]
	 Singles Energy            =      -0.0000000000000000 [Eh]
	 Same-Spin Energy          =      -0.4042688796615719 [Eh]
	 Opposite-Spin Energy      =      -1.2299575147248831 [Eh]
	 Correlation Energy        =      -1.6342263943864550 [Eh]
	 Total Energy              =    -721.9157272771004727 [Eh]

	 ================> DF-SCS-MP2 Energies <==================
	-----------------------------------------------------------
	 SCS Same-Spin Scale       =       0.3333333333333333 [-]
	 SCS Opposite-Spin Scale   =       1.2000000000000000 [-]
	 SCS Same-Spin Energy      =      -0.1347562932205240 [Eh]
	 SCS Opposite-Spin Energy  =      -1.4759490176698598 [Eh]
	 SCS Correlation Energy    =      -1.6107053108903837 [Eh]
	 SCS Total Energy          =    -721.8922061936043519 [Eh]
	-----------------------------------------------------------

  Dipole Moment: [D]
     X:     0.4785      Y:    -2.5608      Z:    -1.9502     Total:     3.2542

*** Psi4 exiting successfully. Buy a developer a beer!
