                               Psi4 1.3.2 release

  ==> Input File <==

--------------------------------------------------------------------------
#psi4
#
memory 32 gb

molecule  {
0 1
 Br        0.9177060    -0.9570590     1.5920850
 Br        0.9177150    -0.9570980    -1.5920580
 Br        1.2265620     1.7572190    -0.0000210
  C       -1.1965930     0.1192070    -0.0000060
  C       -1.9155750    -1.0884400    -0.0000040
  C       -1.8874290     1.3343550    -0.0000020
  C        0.3074130     0.0291790     0.0000000
  C       -3.3062270    -1.0722710    -0.0000080
  C       -3.2847940     1.3392570    -0.0000050
  C       -3.9987170     0.1427130    -0.0000040
  H       -1.3823580    -2.0353640    -0.0000080
  H       -1.3462350     2.2735570    -0.0000030
  H       -3.8517840    -2.0125620    -0.0000060
  H       -3.8118410     2.2900330    -0.0000020
  H       -5.0856930     0.1531320    -0.0000070
units angstrom
no_reorient  #important for SAPT in psi4, default
symmetry c1  #important for SAPT in psi4, default
}

set PROPERTIES_ORIGIN ["COM"]
properties('MP2/aug-cc-pvtz', properties = ['dipole'])
--------------------------------------------------------------------------

    Molecular point group: c1
  Charge       = 0
  Multiplicity = 1
  Basis Set: AUG-CC-PVTZ
    Blend: AUG-CC-PVTZ
  Basis Set: (AUG-CC-PVTZ AUX)
    Blend: AUG-CC-PVTZ-JKFIT

    Orbital Energies [Eh]
    ---------------------

    Doubly Occupied:

       1A   -490.044142     2A   -490.039660     3A   -490.039660
       4A    -65.183901     5A    -65.179405     6A    -65.179405
       7A    -58.539327     8A    -58.537643     9A    -58.537628
      10A    -58.534826    11A    -58.534826    12A    -58.533137
      13A    -58.533137    14A    -58.533114    15A    -58.533114
      16A    -11.427204    17A    -11.277769    18A    -11.258097
      19A    -11.257487    20A    -11.255321    21A    -11.252785
      22A    -11.252242    23A     -9.856580    24A     -9.852052
      25A     -9.852047    26A     -7.468626    27A     -7.464089
      28A     -7.464086    29A     -7.460841    30A     -7.460836
      31A     -7.456321    32A     -7.456319    33A     -7.456208
      34A     -7.456206    35A     -3.212623    36A     -3.208606
      37A     -3.208565    38A     -3.208056    39A     -3.208036
      40A     -3.204110    41A     -3.204107    42A     -3.203966
      43A     -3.203964    44A     -3.198467    45A     -3.198460
      46A     -3.193908    47A     -3.193905    48A     -3.193903
      49A     -3.193900    50A     -1.193045    51A     -1.137894
      52A     -1.038300    53A     -1.032284    54A     -1.014868
      55A     -1.014520    56A     -0.883371    57A     -0.845697
      58A     -0.783367    59A     -0.711782    60A     -0.651880
      61A     -0.649209    62A     -0.611406    63A     -0.605259
      64A     -0.582280    65A     -0.550373    66A     -0.524977
      67A     -0.512989    68A     -0.510644    69A     -0.454554
      70A     -0.447936    71A     -0.436134    72A     -0.410618
      73A     -0.408943    74A     -0.399669    75A     -0.354827
      76A     -0.345273

  @DF-RHF Final Energy: -7985.42954483083486

   => Energetics <=

    Nuclear Repulsion Energy =           1587.2443813435211268
    One-Electron Energy =              -14276.7184301997331204
    Two-Electron Energy =                4704.0445040253780462
    Total Energy =                      -7985.4295448308348568
  Basis Set: (AUG-CC-PVTZ AUX)
    Blend: AUG-CC-PVTZ-RI
    Molecular point group: c1

    Geometry (in Angstrom), charge = 0, multiplicity = 1:

       Center              X                  Y                   Z               Mass
    ------------   -----------------  -----------------  -----------------  -----------------
         BR           0.786750549930    -0.950725992510     1.592084695186    78.918337600000
         BR           0.786759549930    -0.950764992510    -1.592058304814    78.918337600000
         BR           1.095606549930     1.763552007490    -0.000021304814    78.918337600000
         C           -1.327548450070     0.125540007490    -0.000006304814    12.000000000000
         C           -2.046530450070    -1.082106992510    -0.000004304814    12.000000000000
         C           -2.018384450070     1.340688007490    -0.000002304814    12.000000000000
         C            0.176457549930     0.035512007490    -0.000000304814    12.000000000000
         C           -3.437182450070    -1.065937992510    -0.000008304814    12.000000000000
         C           -3.415749450070     1.345590007490    -0.000005304814    12.000000000000
         C           -4.129672450070     0.149046007490    -0.000004304814    12.000000000000
         H           -1.513313450070    -2.029030992510    -0.000008304814     1.007825032230
         H           -1.477190450070     2.279890007490    -0.000003304814     1.007825032230
         H           -3.982739450070    -2.006228992510    -0.000006304814     1.007825032230
         H           -3.942796450070     2.296366007490    -0.000002304814     1.007825032230
         H           -5.216648450070     0.159465007490    -0.000007304814     1.007825032230

  Basis Set: AUG-CC-PVTZ
    Blend: AUG-CC-PVTZ
  Basis Set: (AUG-CC-PVTZ AUX)
    Blend: AUG-CC-PVTZ-JKFIT
	 Reference Energy          =   -7985.4295448308348568 [Eh]
	 Singles Energy            =      -0.0000000000000000 [Eh]
	 Same-Spin Energy          =      -0.5852522030697151 [Eh]
	 Opposite-Spin Energy      =      -1.5628214114625711 [Eh]
	 Correlation Energy        =      -2.1480736145322865 [Eh]
	 Total Energy              =   -7987.5776184453670794 [Eh]

	 ================> DF-SCS-MP2 Energies <==================
	-----------------------------------------------------------
	 SCS Same-Spin Scale       =       0.3333333333333333 [-]
	 SCS Opposite-Spin Scale   =       1.2000000000000000 [-]
	 SCS Same-Spin Energy      =      -0.1950840676899050 [Eh]
	 SCS Opposite-Spin Energy  =      -1.8753856937550852 [Eh]
	 SCS Correlation Energy    =      -2.0704697614449903 [Eh]
	 SCS Total Energy          =   -7987.5000145922795127 [Eh]
	-----------------------------------------------------------

  Dipole Moment: [D]
     X:    -2.2038      Y:     0.1616      Z:    -0.0000     Total:     2.2097

*** Psi4 exiting successfully. Buy a developer a beer!
