                               Psi4 1.4a3.dev225

  ==> Input File <==

--------------------------------------------------------------------------
#psi4
#
memory 32 gb

molecule  {
0 1
 Br        0.9177060    -0.9570590     1.5920850
 Br        0.9177150    -0.9570980    -1.5920580
 Br        1.2265620     1.7572190    -0.0000210
  C       -1.1965930     0.1192070    -0.0000060
  C       -1.9155750    -1.0884400    -0.0000040
  C       -1.8874290     1.3343550    -0.0000020
  C        0.2575023     0.0321666    -0.0000002
  C       -3.3062270    -1.0722710    -0.0000080
  C       -3.2847940     1.3392570    -0.0000050
  C       -3.9987170     0.1427130    -0.0000040
  H       -1.3823580    -2.0353640    -0.0000080
  H       -1.3462350     2.2735570    -0.0000030
  H       -3.8517840    -2.0125620    -0.0000060
  H       -3.8118410     2.2900330    -0.0000020
  H       -5.0856930     0.1531320    -0.0000070
units angstrom
no_reorient  #important for SAPT in psi4, default
symmetry c1  #important for SAPT in psi4, default
}

set PROPERTIES_ORIGIN ["COM"]
properties('MP2/aug-cc-pvtz', properties = ['dipole'])
--------------------------------------------------------------------------

    Molecular point group: c1
  Charge       = 0
  Multiplicity = 1
  Basis Set: AUG-CC-PVTZ
    Blend: AUG-CC-PVTZ
  Basis Set: (AUG-CC-PVTZ AUX)
    Blend: AUG-CC-PVTZ-JKFIT

    Orbital Energies [Eh]
    ---------------------

    Doubly Occupied:

       1A   -490.042963     2A   -490.038408     3A   -490.038408
       4A    -65.182631     5A    -65.178096     6A    -65.178095
       7A    -58.538074     8A    -58.536368     9A    -58.536355
      10A    -58.533526    11A    -58.533526    12A    -58.531823
      13A    -58.531823    14A    -58.531802    15A    -58.531801
      16A    -11.427372    17A    -11.274799    18A    -11.260413
      19A    -11.259624    20A    -11.257620    21A    -11.254168
      22A    -11.253567    23A     -9.855179    24A     -9.850651
      25A     -9.850646    26A     -7.467210    27A     -7.462668
      28A     -7.462664    29A     -7.459414    30A     -7.459401
      31A     -7.454895    32A     -7.454893    33A     -7.454792
      34A     -7.454790    35A     -3.211200    36A     -3.207213
      37A     -3.207178    38A     -3.206621    39A     -3.206603
      40A     -3.202705    41A     -3.202702    42A     -3.202567
      43A     -3.202566    44A     -3.197020    45A     -3.197011
      46A     -3.192482    47A     -3.192479    48A     -3.192478
      49A     -3.192475    50A     -1.197657    51A     -1.136478
      52A     -1.039502    53A     -1.035000    54A     -1.011647
      55A     -1.011556    56A     -0.892705    57A     -0.848038
      58A     -0.784386    59A     -0.712194    60A     -0.655031
      61A     -0.651358    62A     -0.613786    63A     -0.606902
      64A     -0.583056    65A     -0.545675    66A     -0.527358
      67A     -0.511303    68A     -0.510626    69A     -0.454105
      70A     -0.446895    71A     -0.439785    72A     -0.407560
      73A     -0.406089    74A     -0.398194    75A     -0.356295
      76A     -0.346082

  @DF-RHF Final Energy: -7985.42662668341745

   => Energetics <=

    Nuclear Repulsion Energy =           1586.5618365665468446
    One-Electron Energy =              -14275.4148684024457907
    Two-Electron Energy =                4703.4264051524814931
    Total Energy =                      -7985.4266266834174530
  Basis Set: (AUG-CC-PVTZ AUX)
    Blend: AUG-CC-PVTZ-RI
    Molecular point group: c1

    Geometry (in Angstrom), charge = 0, multiplicity = 1:

       Center              X                  Y                   Z               Mass
    ------------   -----------------  -----------------  -----------------  -----------------
         BR           0.788588914498    -0.950836035005     1.592084702553    78.918337600000
         BR           0.788597914498    -0.950875035005    -1.592058297447    78.918337600000
         BR           1.097444914498     1.763441964995    -0.000021297447    78.918337600000
         C           -1.325710085502     0.125429964995    -0.000006297447    12.000000000000
         C           -2.044692085502    -1.082217035005    -0.000004297447    12.000000000000
         C           -2.016546085502     1.340577964995    -0.000002297447    12.000000000000
         C            0.128385214498     0.038389564995    -0.000000497447    12.000000000000
         C           -3.435344085502    -1.066048035005    -0.000008297447    12.000000000000
         C           -3.413911085502     1.345479964995    -0.000005297447    12.000000000000
         C           -4.127834085502     0.148935964995    -0.000004297447    12.000000000000
         H           -1.511475085502    -2.029141035005    -0.000008297447     1.007825032230
         H           -1.475352085502     2.279779964995    -0.000003297447     1.007825032230
         H           -3.980901085502    -2.006339035005    -0.000006297447     1.007825032230
         H           -3.940958085502     2.296255964995    -0.000002297447     1.007825032230
         H           -5.214810085502     0.159354964995    -0.000007297447     1.007825032230

  Basis Set: AUG-CC-PVTZ
    Blend: AUG-CC-PVTZ
  Basis Set: (AUG-CC-PVTZ AUX)
    Blend: AUG-CC-PVTZ-JKFIT
	 Reference Energy          =   -7985.4266266834174530 [Eh]
	 Singles Energy            =      -0.0000000000000000 [Eh]
	 Same-Spin Energy          =      -0.5855937406831555 [Eh]
	 Opposite-Spin Energy      =      -1.5634767659683346 [Eh]
	 Correlation Energy        =      -2.1490705066514901 [Eh]
	 Total Energy              =   -7987.5756971900691497 [Eh]

	 ================> DF-SCS-MP2 Energies <==================
	-----------------------------------------------------------
	 SCS Same-Spin Scale       =       0.3333333333333333 [-]
	 SCS Opposite-Spin Scale   =       1.2000000000000000 [-]
	 SCS Same-Spin Energy      =      -0.1951979135610518 [Eh]
	 SCS Opposite-Spin Energy  =      -1.8761721191620016 [Eh]
	 SCS Correlation Energy    =      -2.0713700327230535 [Eh]
	 SCS Total Energy          =   -7987.4979967161407330 [Eh]
	-----------------------------------------------------------

  Dipole Moment: [D]
     X:    -2.4200      Y:     0.1699      Z:    -0.0000     Total:     2.4259

*** Psi4 exiting successfully. Buy a developer a beer!
