                               Psi4 1.3.2 release

  ==> Input File <==

--------------------------------------------------------------------------
#psi4
#
memory 32 gb

molecule  {
0 1
 Br        0.9177060    -0.9570590     1.5920850
 Br        0.9177150    -0.9570980    -1.5920580
 Br        1.2265620     1.7572190    -0.0000210
  C       -1.1965930     0.1192070    -0.0000060
  C       -2.0378698    -1.0066703    -0.0000048
  C       -1.8874290     1.3343550    -0.0000020
  C        0.3074130     0.0291790     0.0000000
  C       -3.3062270    -1.0722710    -0.0000080
  C       -3.2847940     1.3392570    -0.0000050
  C       -3.9987170     0.1427130    -0.0000040
  H       -1.3823580    -2.0353640    -0.0000080
  H       -1.3462350     2.2735570    -0.0000030
  H       -3.8517840    -2.0125620    -0.0000060
  H       -3.8118410     2.2900330    -0.0000020
  H       -5.0856930     0.1531320    -0.0000070
units angstrom
no_reorient  #important for SAPT in psi4, default
symmetry c1  #important for SAPT in psi4, default
}

set PROPERTIES_ORIGIN ["COM"]
properties('MP2/aug-cc-pvtz', properties = ['dipole'])
--------------------------------------------------------------------------

    Molecular point group: c1
  Charge       = 0
  Multiplicity = 1
  Basis Set: AUG-CC-PVTZ
    Blend: AUG-CC-PVTZ
  Basis Set: (AUG-CC-PVTZ AUX)
    Blend: AUG-CC-PVTZ-JKFIT

    Orbital Energies [Eh]
    ---------------------

    Doubly Occupied:

       1A   -490.046211     2A   -490.039752     3A   -490.039752
       4A    -65.185929     5A    -65.179476     6A    -65.179476
       7A    -58.541371     8A    -58.539660     9A    -58.539648
      10A    -58.534902    11A    -58.534902    12A    -58.533205
      13A    -58.533205    14A    -58.533187    15A    -58.533187
      16A    -11.429907    17A    -11.276456    18A    -11.258762
      19A    -11.255995    20A    -11.252824    21A    -11.249399
      22A    -11.236931    23A     -9.858575    24A     -9.852105
      25A     -9.852101    26A     -7.470672    27A     -7.464153
      28A     -7.464150    29A     -7.462792    30A     -7.462775
      31A     -7.456350    32A     -7.456348    33A     -7.456262
      34A     -7.456260    35A     -3.214703    36A     -3.210629
      37A     -3.210601    38A     -3.208126    39A     -3.208105
      40A     -3.204154    41A     -3.204150    42A     -3.204042
      43A     -3.204040    44A     -3.200364    45A     -3.200356
      46A     -3.193943    47A     -3.193940    48A     -3.193939
      49A     -3.193936    50A     -1.199899    51A     -1.146381
      52A     -1.049660    53A     -1.030139    54A     -1.017125
      55A     -1.014719    56A     -0.888453    57A     -0.834876
      58A     -0.792292    59A     -0.709819    60A     -0.660363
      61A     -0.641705    62A     -0.617844    63A     -0.591154
      64A     -0.583963    65A     -0.547940    66A     -0.533660
      67A     -0.522547    68A     -0.482909    69A     -0.454941
      70A     -0.448001    71A     -0.436643    72A     -0.410821
      73A     -0.408056    74A     -0.399840    75A     -0.369403
      76A     -0.342912

  @DF-RHF Final Energy: -7985.40168846350662

   => Energetics <=

    Nuclear Repulsion Energy =           1586.8726248408481752
    One-Electron Energy =              -14275.8530843279932014
    Two-Electron Energy =                4703.5787710236390922
    Total Energy =                      -7985.4016884635066162
  Basis Set: (AUG-CC-PVTZ AUX)
    Blend: AUG-CC-PVTZ-RI
    Molecular point group: c1

    Geometry (in Angstrom), charge = 0, multiplicity = 1:

       Center              X                  Y                   Z               Mass
    ------------   -----------------  -----------------  -----------------  -----------------
         BR           0.791255043501    -0.953737822023     1.592084724653    78.918337600000
         BR           0.791264043501    -0.953776822023    -1.592058275347    78.918337600000
         BR           1.100111043501     1.760540177977    -0.000021275347    78.918337600000
         C           -1.323043956499     0.122528177977    -0.000006275347    12.000000000000
         C           -2.164320756499    -1.003349122023    -0.000005075347    12.000000000000
         C           -2.013879956499     1.337676177977    -0.000002275347    12.000000000000
         C            0.180962043501     0.032500177977    -0.000000275347    12.000000000000
         C           -3.432677956499    -1.068949822023    -0.000008275347    12.000000000000
         C           -3.411244956499     1.342578177977    -0.000005275347    12.000000000000
         C           -4.125167956499     0.146034177977    -0.000004275347    12.000000000000
         H           -1.508808956499    -2.032042822023    -0.000008275347     1.007825032230
         H           -1.472685956499     2.276878177977    -0.000003275347     1.007825032230
         H           -3.978234956499    -2.009240822023    -0.000006275347     1.007825032230
         H           -3.938291956499     2.293354177977    -0.000002275347     1.007825032230
         H           -5.212143956499     0.156453177977    -0.000007275347     1.007825032230

  Basis Set: AUG-CC-PVTZ
    Blend: AUG-CC-PVTZ
  Basis Set: (AUG-CC-PVTZ AUX)
    Blend: AUG-CC-PVTZ-JKFIT
	 Reference Energy          =   -7985.4016884635066162 [Eh]
	 Singles Energy            =      -0.0000000000000000 [Eh]
	 Same-Spin Energy          =      -0.5852397313447840 [Eh]
	 Opposite-Spin Energy      =      -1.5633173868154366 [Eh]
	 Correlation Energy        =      -2.1485571181602205 [Eh]
	 Total Energy              =   -7987.5502455816667862 [Eh]

	 ================> DF-SCS-MP2 Energies <==================
	-----------------------------------------------------------
	 SCS Same-Spin Scale       =       0.3333333333333333 [-]
	 SCS Opposite-Spin Scale   =       1.2000000000000000 [-]
	 SCS Same-Spin Energy      =      -0.1950799104482613 [Eh]
	 SCS Opposite-Spin Energy  =      -1.8759808641785238 [Eh]
	 SCS Correlation Energy    =      -2.0710607746267851 [Eh]
	 SCS Total Energy          =   -7987.4727492381334741 [Eh]
	-----------------------------------------------------------

  Dipole Moment: [D]
     X:    -2.1438      Y:     0.2561      Z:    -0.0000     Total:     2.1591

*** Psi4 exiting successfully. Buy a developer a beer!
