                               Psi4 1.4a3.dev225

  ==> Input File <==

--------------------------------------------------------------------------
#psi4
#
memory 32 gb

molecule  {
0 1
 Br        0.9177060    -0.9570590     1.5920850
 Br        0.9177150    -0.9570980    -1.5920580
 Br        1.2265620     1.7572190    -0.0000210
  C       -1.1965930     0.1192070    -0.0000060
  C       -1.9155750    -1.0884400    -0.0000040
  C       -1.8874290     1.3343550    -0.0000020
  C        0.2874487     0.0303740    -0.0000001
  C       -3.3062270    -1.0722710    -0.0000080
  C       -3.2847940     1.3392570    -0.0000050
  C       -3.9987170     0.1427130    -0.0000040
  H       -1.3823580    -2.0353640    -0.0000080
  H       -1.3462350     2.2735570    -0.0000030
  H       -3.8517840    -2.0125620    -0.0000060
  H       -3.8118410     2.2900330    -0.0000020
  H       -5.0856930     0.1531320    -0.0000070
units angstrom
no_reorient  #important for SAPT in psi4, default
symmetry c1  #important for SAPT in psi4, default
}

set PROPERTIES_ORIGIN ["COM"]
properties('MP2/aug-cc-pvtz', properties = ['dipole'])
--------------------------------------------------------------------------

    Molecular point group: c1
  Charge       = 0
  Multiplicity = 1
  Basis Set: AUG-CC-PVTZ
    Blend: AUG-CC-PVTZ
  Basis Set: (AUG-CC-PVTZ AUX)
    Blend: AUG-CC-PVTZ-JKFIT

    Orbital Energies [Eh]
    ---------------------

    Doubly Occupied:

       1A   -490.043698     2A   -490.039197     3A   -490.039197
       4A    -65.183420     5A    -65.178919     6A    -65.178918
       7A    -58.538853     8A    -58.537161     9A    -58.537147
      10A    -58.534343    11A    -58.534343    12A    -58.532649
      13A    -58.532649    14A    -58.532627    15A    -58.532627
      16A    -11.427315    17A    -11.276622    18A    -11.258961
      19A    -11.258281    20A    -11.256178    21A    -11.253304
      22A    -11.252742    23A     -9.856047    24A     -9.851528
      25A     -9.851524    26A     -7.468086    27A     -7.463558
      28A     -7.463554    29A     -7.460297    30A     -7.460289
      31A     -7.455788    32A     -7.455786    33A     -7.455679
      34A     -7.455677    35A     -3.212081    36A     -3.208076
      37A     -3.208037    38A     -3.207520    39A     -3.207500
      40A     -3.203585    41A     -3.203582    42A     -3.203444
      43A     -3.203442    44A     -3.197915    45A     -3.197907
      46A     -3.193375    47A     -3.193372    48A     -3.193369
      49A     -3.193367    50A     -1.194755    51A     -1.137268
      52A     -1.038718    53A     -1.033368    54A     -1.013578
      55A     -1.013416    56A     -0.887060    57A     -0.846585
      58A     -0.783756    59A     -0.711926    60A     -0.653083
      61A     -0.650069    62A     -0.612348    63A     -0.605885
      64A     -0.582500    65A     -0.548434    66A     -0.525881
      67A     -0.512347    68A     -0.510709    69A     -0.454397
      70A     -0.447521    71A     -0.437758    72A     -0.409419
      73A     -0.407827    74A     -0.399110    75A     -0.355382
      76A     -0.345597

  @DF-RHF Final Energy: -7985.42883463742419

   => Energetics <=

    Nuclear Repulsion Energy =           1586.9738189070237695
    One-Electron Energy =              -14276.2008462227695418
    Two-Electron Energy =                4703.7981926783222661
    Total Energy =                      -7985.4288346374241883
  Basis Set: (AUG-CC-PVTZ AUX)
    Blend: AUG-CC-PVTZ-RI
    Molecular point group: c1

    Geometry (in Angstrom), charge = 0, multiplicity = 1:

       Center              X                  Y                   Z               Mass
    ------------   -----------------  -----------------  -----------------  -----------------
         BR           0.787485896494    -0.950770008035     1.592084698869    78.918337600000
         BR           0.787494896494    -0.950809008035    -1.592058301131    78.918337600000
         BR           1.096341896494     1.763507991965    -0.000021301131    78.918337600000
         C           -1.326813103506     0.125495991965    -0.000006301131    12.000000000000
         C           -2.045795103506    -1.082151008035    -0.000004301131    12.000000000000
         C           -2.017649103506     1.340643991965    -0.000002301131    12.000000000000
         C            0.157228596494     0.036662991965    -0.000000401131    12.000000000000
         C           -3.436447103506    -1.065982008035    -0.000008301131    12.000000000000
         C           -3.415014103506     1.345545991965    -0.000005301131    12.000000000000
         C           -4.128937103506     0.149001991965    -0.000004301131    12.000000000000
         H           -1.512578103506    -2.029075008035    -0.000008301131     1.007825032230
         H           -1.476455103506     2.279845991965    -0.000003301131     1.007825032230
         H           -3.982004103506    -2.006273008035    -0.000006301131     1.007825032230
         H           -3.942061103506     2.296321991965    -0.000002301131     1.007825032230
         H           -5.215913103506     0.159420991965    -0.000007301131     1.007825032230

  Basis Set: AUG-CC-PVTZ
    Blend: AUG-CC-PVTZ
  Basis Set: (AUG-CC-PVTZ AUX)
    Blend: AUG-CC-PVTZ-JKFIT
	 Reference Energy          =   -7985.4288346374241883 [Eh]
	 Singles Energy            =      -0.0000000000000000 [Eh]
	 Same-Spin Energy          =      -0.5853610646452891 [Eh]
	 Opposite-Spin Energy      =      -1.5630433644558313 [Eh]
	 Correlation Energy        =      -2.1484044291011202 [Eh]
	 Total Energy              =   -7987.5772390665251805 [Eh]

	 ================> DF-SCS-MP2 Energies <==================
	-----------------------------------------------------------
	 SCS Same-Spin Scale       =       0.3333333333333333 [-]
	 SCS Opposite-Spin Scale   =       1.2000000000000000 [-]
	 SCS Same-Spin Energy      =      -0.1951203548817630 [Eh]
	 SCS Opposite-Spin Energy  =      -1.8756520373469974 [Eh]
	 SCS Correlation Energy    =      -2.0707723922287604 [Eh]
	 SCS Total Energy          =   -7987.4996070296529069 [Eh]
	-----------------------------------------------------------

  Dipole Moment: [D]
     X:    -2.2848      Y:     0.1643      Z:    -0.0000     Total:     2.2907

*** Psi4 exiting successfully. Buy a developer a beer!
