                               Psi4 1.3.2 release

  ==> Input File <==

--------------------------------------------------------------------------
#psi4
#
memory 32 gb

molecule  {
0 1
 Br        0.9177060    -0.9570590     1.5920850
 Br        0.9177150    -0.9570980    -1.5920580
 Br        1.2265620     1.7572190    -0.0000210
  C       -1.1965930     0.1192070    -0.0000060
  C       -1.9572833    -1.0626122    -0.0000043
  C       -1.8874290     1.3343550    -0.0000020
  C        0.3074130     0.0291790     0.0000000
  C       -3.3062270    -1.0722710    -0.0000080
  C       -3.2847940     1.3392570    -0.0000050
  C       -3.9987170     0.1427130    -0.0000040
  H       -1.3823580    -2.0353640    -0.0000080
  H       -1.3462350     2.2735570    -0.0000030
  H       -3.8517840    -2.0125620    -0.0000060
  H       -3.8118410     2.2900330    -0.0000020
  H       -5.0856930     0.1531320    -0.0000070
units angstrom
no_reorient  #important for SAPT in psi4, default
symmetry c1  #important for SAPT in psi4, default
}

set PROPERTIES_ORIGIN ["COM"]
properties('MP2/aug-cc-pvtz', properties = ['dipole'])
--------------------------------------------------------------------------

    Molecular point group: c1
  Charge       = 0
  Multiplicity = 1
  Basis Set: AUG-CC-PVTZ
    Blend: AUG-CC-PVTZ
  Basis Set: (AUG-CC-PVTZ AUX)
    Blend: AUG-CC-PVTZ-JKFIT

    Orbital Energies [Eh]
    ---------------------

    Doubly Occupied:

       1A   -490.044862     2A   -490.039738     3A   -490.039738
       4A    -65.184607     5A    -65.179476     6A    -65.179475
       7A    -58.540039     8A    -58.538345     9A    -58.538332
      10A    -58.534898    11A    -58.534898    12A    -58.533207
      13A    -58.533207    14A    -58.533186    15A    -58.533186
      16A    -11.428104    17A    -11.276951    18A    -11.258182
      19A    -11.255700    20A    -11.255309    21A    -11.251201
      22A    -11.247483    23A     -9.857276    24A     -9.852116
      25A     -9.852112    26A     -7.469340    27A     -7.464157
      28A     -7.464153    29A     -7.461522    30A     -7.461512
      31A     -7.456378    32A     -7.456376    33A     -7.456273
      34A     -7.456272    35A     -3.213349    36A     -3.209312
      37A     -3.209276    38A     -3.208125    39A     -3.208105
      40A     -3.204171    41A     -3.204168    42A     -3.204038
      43A     -3.204036    44A     -3.199129    45A     -3.199121
      46A     -3.193968    47A     -3.193965    48A     -3.193963
      49A     -3.193960    50A     -1.194646    51A     -1.140494
      52A     -1.041067    53A     -1.031903    54A     -1.015630
      55A     -1.014857    56A     -0.885056    57A     -0.841748
      58A     -0.786022    59A     -0.710482    60A     -0.654320
      61A     -0.645549    62A     -0.613546    63A     -0.600632
      64A     -0.582717    65A     -0.549654    66A     -0.527681
      67A     -0.515678    68A     -0.504319    69A     -0.454656
      70A     -0.448090    71A     -0.436376    72A     -0.410708
      73A     -0.408862    74A     -0.399769    75A     -0.359255
      76A     -0.344544

  @DF-RHF Final Energy: -7985.42705300245871

   => Energetics <=

    Nuclear Repulsion Energy =           1587.0526109673548945
    One-Electron Energy =              -14276.3102084300408023
    Two-Electron Energy =                4703.8305444602265197
    Total Energy =                      -7985.4270530024587060
  Basis Set: (AUG-CC-PVTZ AUX)
    Blend: AUG-CC-PVTZ-RI
    Molecular point group: c1

    Geometry (in Angstrom), charge = 0, multiplicity = 1:

       Center              X                  Y                   Z               Mass
    ------------   -----------------  -----------------  -----------------  -----------------
         BR           0.788286794882    -0.951677309811     1.592084706236    78.918337600000
         BR           0.788295794882    -0.951716309811    -1.592058293764    78.918337600000
         BR           1.097142794882     1.762600690189    -0.000021293764    78.918337600000
         C           -1.326012205118     0.124588690189    -0.000006293764    12.000000000000
         C           -2.086702505118    -1.057230509811    -0.000004593764    12.000000000000
         C           -2.016848205118     1.339736690189    -0.000002293764    12.000000000000
         C            0.177993794882     0.034560690189    -0.000000293764    12.000000000000
         C           -3.435646205118    -1.066889309811    -0.000008293764    12.000000000000
         C           -3.414213205118     1.344638690189    -0.000005293764    12.000000000000
         C           -4.128136205118     0.148094690189    -0.000004293764    12.000000000000
         H           -1.511777205118    -2.029982309811    -0.000008293764     1.007825032230
         H           -1.475654205118     2.278938690189    -0.000003293764     1.007825032230
         H           -3.981203205118    -2.007180309811    -0.000006293764     1.007825032230
         H           -3.941260205118     2.295414690189    -0.000002293764     1.007825032230
         H           -5.215112205118     0.158513690189    -0.000007293764     1.007825032230

  Basis Set: AUG-CC-PVTZ
    Blend: AUG-CC-PVTZ
  Basis Set: (AUG-CC-PVTZ AUX)
    Blend: AUG-CC-PVTZ-JKFIT
	 Reference Energy          =   -7985.4270530024587060 [Eh]
	 Singles Energy            =      -0.0000000000000000 [Eh]
	 Same-Spin Energy          =      -0.5851303820139291 [Eh]
	 Opposite-Spin Energy      =      -1.5626060670418032 [Eh]
	 Correlation Energy        =      -2.1477364490557322 [Eh]
	 Total Energy              =   -7987.5747894515143344 [Eh]

	 ================> DF-SCS-MP2 Energies <==================
	-----------------------------------------------------------
	 SCS Same-Spin Scale       =       0.3333333333333333 [-]
	 SCS Opposite-Spin Scale   =       1.2000000000000000 [-]
	 SCS Same-Spin Energy      =      -0.1950434606713097 [Eh]
	 SCS Opposite-Spin Energy  =      -1.8751272804501637 [Eh]
	 SCS Correlation Energy    =      -2.0701707411214736 [Eh]
	 SCS Total Energy          =   -7987.4972237435804345 [Eh]
	-----------------------------------------------------------

  Dipole Moment: [D]
     X:    -2.1767      Y:     0.1844      Z:    -0.0000     Total:     2.1845

*** Psi4 exiting successfully. Buy a developer a beer!
