                               Psi4 1.4a3.dev225

  ==> Input File <==

--------------------------------------------------------------------------
#psi4
#
memory 32 gb

molecule  {
0 1
 Br        0.9177060    -0.9570590     1.5920850
 Br        0.9177150    -0.9570980    -1.5920580
 Br        1.2265620     1.7572190    -0.0000210
  C       -1.1965930     0.1192070    -0.0000060
  C       -1.9155750    -1.0884400    -0.0000040
  C       -1.8874290     1.3343550    -0.0000020
  C        0.3573237     0.0261914     0.0000002
  C       -3.3062270    -1.0722710    -0.0000080
  C       -3.2847940     1.3392570    -0.0000050
  C       -3.9987170     0.1427130    -0.0000040
  H       -1.3823580    -2.0353640    -0.0000080
  H       -1.3462350     2.2735570    -0.0000030
  H       -3.8517840    -2.0125620    -0.0000060
  H       -3.8118410     2.2900330    -0.0000020
  H       -5.0856930     0.1531320    -0.0000070
units angstrom
no_reorient  #important for SAPT in psi4, default
symmetry c1  #important for SAPT in psi4, default
}

set PROPERTIES_ORIGIN ["COM"]
properties('MP2/aug-cc-pvtz', properties = ['dipole'])
--------------------------------------------------------------------------

    Molecular point group: c1
  Charge       = 0
  Multiplicity = 1
  Basis Set: AUG-CC-PVTZ
    Blend: AUG-CC-PVTZ
  Basis Set: (AUG-CC-PVTZ AUX)
    Blend: AUG-CC-PVTZ-JKFIT

    Orbital Energies [Eh]
    ---------------------

    Doubly Occupied:

       1A   -490.045119     2A   -490.040638     3A   -490.040638
       4A    -65.184971     5A    -65.180442     6A    -65.180441
       7A    -58.540379     8A    -58.538717     9A    -58.538701
      10A    -58.535853    11A    -58.535853    12A    -58.534178
      13A    -58.534178    14A    -58.534153    15A    -58.534153
      16A    -11.426722    17A    -11.280380    18A    -11.256243
      19A    -11.255800    20A    -11.253497    21A    -11.251662
      22A    -11.251127    23A     -9.857786    24A     -9.853183
      25A     -9.853178    26A     -7.469847    27A     -7.465239
      28A     -7.465236    29A     -7.462074    30A     -7.462071
      31A     -7.457476    32A     -7.457474    33A     -7.457353
      34A     -7.457351    35A     -3.213850    36A     -3.209803
      37A     -3.209758    38A     -3.209219    39A     -3.209197
      40A     -3.205243    41A     -3.205240    42A     -3.205094
      43A     -3.205092    44A     -3.199718    45A     -3.199711
      46A     -3.195064    47A     -3.195061    48A     -3.195057
      49A     -3.195055    50A     -1.189464    51A     -1.139693
      52A     -1.037616    53A     -1.029671    54A     -1.017908
      55A     -1.016996    56A     -0.874492    57A     -0.843725
      58A     -0.782474    59A     -0.711503    60A     -0.649157
      61A     -0.647103    62A     -0.609124    63A     -0.603831
      64A     -0.582182    65A     -0.555363    66A     -0.522980
      67A     -0.514398    68A     -0.510234    69A     -0.454825
      70A     -0.448866    71A     -0.431253    72A     -0.413491
      73A     -0.411606    74A     -0.400915    75A     -0.353600
      76A     -0.344473

  @DF-RHF Final Energy: -7985.42893844237824

   => Energetics <=

    Nuclear Repulsion Energy =           1587.9016775133436568
    One-Electron Energy =              -14277.9788016523725673
    Two-Electron Energy =                4704.6481856966502164
    Total Energy =                      -7985.4289384423782394
  Basis Set: (AUG-CC-PVTZ AUX)
    Blend: AUG-CC-PVTZ-RI
    Molecular point group: c1

    Geometry (in Angstrom), charge = 0, multiplicity = 1:

       Center              X                  Y                   Z               Mass
    ------------   -----------------  -----------------  -----------------  -----------------
         BR           0.784912185361    -0.950615950014     1.592084687820    78.918337600000
         BR           0.784921185361    -0.950654950014    -1.592058312180    78.918337600000
         BR           1.093768185361     1.763662049986    -0.000021312180    78.918337600000
         C           -1.329386814639     0.125650049986    -0.000006312180    12.000000000000
         C           -2.048368814639    -1.081996950014    -0.000004312180    12.000000000000
         C           -2.020222814639     1.340798049986    -0.000002312180    12.000000000000
         C            0.224529885361     0.032634449986    -0.000000112180    12.000000000000
         C           -3.439020814639    -1.065827950014    -0.000008312180    12.000000000000
         C           -3.417587814639     1.345700049986    -0.000005312180    12.000000000000
         C           -4.131510814639     0.149156049986    -0.000004312180    12.000000000000
         H           -1.515151814639    -2.028920950014    -0.000008312180     1.007825032230
         H           -1.479028814639     2.280000049986    -0.000003312180     1.007825032230
         H           -3.984577814639    -2.006118950014    -0.000006312180     1.007825032230
         H           -3.944634814639     2.296476049986    -0.000002312180     1.007825032230
         H           -5.218486814639     0.159575049986    -0.000007312180     1.007825032230

  Basis Set: AUG-CC-PVTZ
    Blend: AUG-CC-PVTZ
  Basis Set: (AUG-CC-PVTZ AUX)
    Blend: AUG-CC-PVTZ-JKFIT
	 Reference Energy          =   -7985.4289384423782394 [Eh]
	 Singles Energy            =      -0.0000000000000000 [Eh]
	 Same-Spin Energy          =      -0.5851341370820067 [Eh]
	 Opposite-Spin Energy      =      -1.5624996860422300 [Eh]
	 Correlation Energy        =      -2.1476338231242367 [Eh]
	 Total Energy              =   -7987.5765722655023637 [Eh]

	 ================> DF-SCS-MP2 Energies <==================
	-----------------------------------------------------------
	 SCS Same-Spin Scale       =       0.3333333333333333 [-]
	 SCS Opposite-Spin Scale   =       1.2000000000000000 [-]
	 SCS Same-Spin Energy      =      -0.1950447123606689 [Eh]
	 SCS Opposite-Spin Energy  =      -1.8749996232506758 [Eh]
	 SCS Correlation Energy    =      -2.0700443356113447 [Eh]
	 SCS Total Energy          =   -7987.4989827779900224 [Eh]
	-----------------------------------------------------------

  Dipole Moment: [D]
     X:    -2.0295      Y:     0.1578      Z:    -0.0000     Total:     2.0357

*** Psi4 exiting successfully. Buy a developer a beer!
