                               Psi4 1.3.2 release

  ==> Input File <==

--------------------------------------------------------------------------
#psi4
#
memory 32 gb

molecule  {
0 1
 Br        0.9177060    -0.9570590     1.5920850
 Br        0.9177150    -0.9570980    -1.5920580
 Br        1.2265620     1.7572190    -0.0000210
  C       -1.1965930     0.1192070    -0.0000060
  C       -1.7854029    -1.1569785    -0.0000032
  C       -1.8874290     1.3343550    -0.0000020
  C        0.3074130     0.0291790     0.0000000
  C       -3.3062270    -1.0722710    -0.0000080
  C       -3.2847940     1.3392570    -0.0000050
  C       -3.9987170     0.1427130    -0.0000040
  H       -1.3823580    -2.0353640    -0.0000080
  H       -1.3462350     2.2735570    -0.0000030
  H       -3.8517840    -2.0125620    -0.0000060
  H       -3.8118410     2.2900330    -0.0000020
  H       -5.0856930     0.1531320    -0.0000070
units angstrom
no_reorient  #important for SAPT in psi4, default
symmetry c1  #important for SAPT in psi4, default
}

set PROPERTIES_ORIGIN ["COM"]
properties('MP2/aug-cc-pvtz', properties = ['dipole'])
--------------------------------------------------------------------------

    Molecular point group: c1
  Charge       = 0
  Multiplicity = 1
  Basis Set: AUG-CC-PVTZ
    Blend: AUG-CC-PVTZ
  Basis Set: (AUG-CC-PVTZ AUX)
    Blend: AUG-CC-PVTZ-JKFIT

    Orbital Energies [Eh]
    ---------------------

    Doubly Occupied:

       1A   -490.041820     2A   -490.039278     3A   -490.039278
       4A    -65.181617     5A    -65.179047     6A    -65.179047
       7A    -58.537025     8A    -58.535372     9A    -58.535355
      10A    -58.534463    11A    -58.534463    12A    -58.532781
      13A    -58.532781    14A    -58.532753    15A    -58.532753
      16A    -11.424655    17A    -11.282327    18A    -11.267834
      19A    -11.263473    20A    -11.258530    21A    -11.256483
      22A    -11.254871    23A     -9.854325    24A     -9.851715
      25A     -9.851711    26A     -7.466310    27A     -7.463745
      28A     -7.463741    29A     -7.458642    30A     -7.458637
      31A     -7.456004    32A     -7.456002    33A     -7.455868
      34A     -7.455866    35A     -3.210268    36A     -3.207710
      37A     -3.207691    38A     -3.206314    39A     -3.206264
      40A     -3.203785    41A     -3.203782    42A     -3.203608
      43A     -3.203606    44A     -3.196324    45A     -3.196317
      46A     -3.193581    47A     -3.193578    48A     -3.193575
      49A     -3.193572    50A     -1.191004    51A     -1.131977
      52A     -1.039251    53A     -1.028763    54A     -1.014822
      55A     -1.010062    56A     -0.880833    57A     -0.857963
      58A     -0.778348    59A     -0.720275    60A     -0.668099
      61A     -0.647386    62A     -0.614254    63A     -0.601592
      64A     -0.581551    65A     -0.552090    66A     -0.530793
      67A     -0.507306    68A     -0.499798    69A     -0.454555
      70A     -0.447210    71A     -0.435027    72A     -0.410299
      73A     -0.408536    74A     -0.399233    75A     -0.352100
      76A     -0.339303

  @DF-RHF Final Energy: -7985.39742869863585

   => Energetics <=

    Nuclear Repulsion Energy =           1588.2503882567300479
    One-Electron Energy =              -14278.7136708901307429
    Two-Electron Energy =                4705.0658539347641636
    Total Energy =                      -7985.3974286986358493
  Basis Set: (AUG-CC-PVTZ AUX)
    Blend: AUG-CC-PVTZ-RI
    Molecular point group: c1

    Geometry (in Angstrom), charge = 0, multiplicity = 1:

       Center              X                  Y                   Z               Mass
    ------------   -----------------  -----------------  -----------------  -----------------
         BR           0.781955911175    -0.948201508782     1.592084665720    78.918337600000
         BR           0.781964911175    -0.948240508782    -1.592058334280    78.918337600000
         BR           1.090811911175     1.766076491218    -0.000021334280    78.918337600000
         C           -1.332343088825     0.128064491218    -0.000006334280    12.000000000000
         C           -1.921152988825    -1.148121008782    -0.000003534280    12.000000000000
         C           -2.023179088825     1.343212491218    -0.000002334280    12.000000000000
         C            0.171662911175     0.038036491218    -0.000000334280    12.000000000000
         C           -3.441977088825    -1.063413508782    -0.000008334280    12.000000000000
         C           -3.420544088825     1.348114491218    -0.000005334280    12.000000000000
         C           -4.134467088825     0.151570491218    -0.000004334280    12.000000000000
         H           -1.518108088825    -2.026506508782    -0.000008334280     1.007825032230
         H           -1.481985088825     2.282414491218    -0.000003334280     1.007825032230
         H           -3.987534088825    -2.003704508782    -0.000006334280     1.007825032230
         H           -3.947591088825     2.298890491218    -0.000002334280     1.007825032230
         H           -5.221443088825     0.161989491218    -0.000007334280     1.007825032230

  Basis Set: AUG-CC-PVTZ
    Blend: AUG-CC-PVTZ
  Basis Set: (AUG-CC-PVTZ AUX)
    Blend: AUG-CC-PVTZ-JKFIT
	 Reference Energy          =   -7985.3974286986358493 [Eh]
	 Singles Energy            =      -0.0000000000000000 [Eh]
	 Same-Spin Energy          =      -0.5863147825745664 [Eh]
	 Opposite-Spin Energy      =      -1.5659396565793346 [Eh]
	 Correlation Energy        =      -2.1522544391539009 [Eh]
	 Total Energy              =   -7987.5496831377895433 [Eh]

	 ================> DF-SCS-MP2 Energies <==================
	-----------------------------------------------------------
	 SCS Same-Spin Scale       =       0.3333333333333333 [-]
	 SCS Opposite-Spin Scale   =       1.2000000000000000 [-]
	 SCS Same-Spin Energy      =      -0.1954382608581888 [Eh]
	 SCS Opposite-Spin Energy  =      -1.8791275878952014 [Eh]
	 SCS Correlation Energy    =      -2.0745658487533900 [Eh]
	 SCS Total Energy          =   -7987.4719945473889311 [Eh]
	-----------------------------------------------------------

  Dipole Moment: [D]
     X:    -2.3066      Y:     0.1318      Z:    -0.0000     Total:     2.3104

*** Psi4 exiting successfully. Buy a developer a beer!
