                               Psi4 1.3.2 release

  ==> Input File <==

--------------------------------------------------------------------------
#psi4
#
memory 32 gb

molecule  {
0 1
 Br        0.9177060    -0.9570590     1.5920850
 Br        0.9177150    -0.9570980    -1.5920580
 Br        1.2265620     1.7572190    -0.0000210
  C       -1.1965930     0.1192070    -0.0000060
  C       -1.8729907    -1.1127964    -0.0000037
  C       -1.8874290     1.3343550    -0.0000020
  C        0.3074130     0.0291790     0.0000000
  C       -3.3062270    -1.0722710    -0.0000080
  C       -3.2847940     1.3392570    -0.0000050
  C       -3.9987170     0.1427130    -0.0000040
  H       -1.3823580    -2.0353640    -0.0000080
  H       -1.3462350     2.2735570    -0.0000030
  H       -3.8517840    -2.0125620    -0.0000060
  H       -3.8118410     2.2900330    -0.0000020
  H       -5.0856930     0.1531320    -0.0000070
units angstrom
no_reorient  #important for SAPT in psi4, default
symmetry c1  #important for SAPT in psi4, default
}

set PROPERTIES_ORIGIN ["COM"]
properties('MP2/aug-cc-pvtz', properties = ['dipole'])
--------------------------------------------------------------------------

    Molecular point group: c1
  Charge       = 0
  Multiplicity = 1
  Basis Set: AUG-CC-PVTZ
    Blend: AUG-CC-PVTZ
  Basis Set: (AUG-CC-PVTZ AUX)
    Blend: AUG-CC-PVTZ-JKFIT

    Orbital Energies [Eh]
    ---------------------

    Doubly Occupied:

       1A   -490.043393     2A   -490.039549     3A   -490.039549
       4A    -65.183165     5A    -65.179302     6A    -65.179301
       7A    -58.538585     8A    -58.536911     9A    -58.536896
      10A    -58.534721    11A    -58.534721    12A    -58.533035
      13A    -58.533035    14A    -58.533010    15A    -58.533010
      16A    -11.426320    17A    -11.278944    18A    -11.259522
      19A    -11.258135    20A    -11.258104    21A    -11.255153
      22A    -11.253385    23A     -9.855855    24A     -9.851955
      25A     -9.851950    26A     -7.467881    27A     -7.463989
      28A     -7.463986    29A     -7.460132    30A     -7.460130
      31A     -7.456231    32A     -7.456229    33A     -7.456110
      34A     -7.456109    35A     -3.211866    36A     -3.207957
      37A     -3.207939    38A     -3.207866    39A     -3.207824
      40A     -3.204017    41A     -3.204014    42A     -3.203862
      43A     -3.203860    44A     -3.197777    45A     -3.197770
      46A     -3.193815    47A     -3.193812    48A     -3.193809
      49A     -3.193807    50A     -1.191960    51A     -1.135600
      52A     -1.037463    53A     -1.031523    54A     -1.014856
      55A     -1.013169    56A     -0.881892    57A     -0.849867
      58A     -0.781154    59A     -0.713800    60A     -0.654593
      61A     -0.649805    62A     -0.611268    63A     -0.606675
      64A     -0.581942    65A     -0.551001    66A     -0.525075
      67A     -0.511347    68A     -0.510730    69A     -0.454496
      70A     -0.447724    71A     -0.435831    72A     -0.410514
      73A     -0.408896    74A     -0.399538    75A     -0.351744
      76A     -0.345056

  @DF-RHF Final Energy: -7985.42534049228743

   => Energetics <=

    Nuclear Repulsion Energy =           1587.5071956391248023
    One-Electron Energy =              -14277.2534349231882516
    Two-Electron Energy =                4704.3208987917769264
    Total Energy =                      -7985.4253404922874324
  Basis Set: (AUG-CC-PVTZ AUX)
    Blend: AUG-CC-PVTZ-RI
    Molecular point group: c1

    Geometry (in Angstrom), charge = 0, multiplicity = 1:

       Center              X                  Y                   Z               Mass
    ------------   -----------------  -----------------  -----------------  -----------------
         BR           0.785182039203    -0.949828871396     1.592084684136    78.918337600000
         BR           0.785191039203    -0.949867871396    -1.592058315864    78.918337600000
         BR           1.094038039203     1.764449128604    -0.000021315864    78.918337600000
         C           -1.329116960797     0.126437128604    -0.000006315864    12.000000000000
         C           -2.005514660797    -1.105566271396    -0.000004015864    12.000000000000
         C           -2.019952960797     1.341585128604    -0.000002315864    12.000000000000
         C            0.174889039203     0.036409128604    -0.000000315864    12.000000000000
         C           -3.438750960797    -1.065040871396    -0.000008315864    12.000000000000
         C           -3.417317960797     1.346487128604    -0.000005315864    12.000000000000
         C           -4.131240960797     0.149943128604    -0.000004315864    12.000000000000
         H           -1.514881960797    -2.028133871396    -0.000008315864     1.007825032230
         H           -1.478758960797     2.280787128604    -0.000003315864     1.007825032230
         H           -3.984307960797    -2.005331871396    -0.000006315864     1.007825032230
         H           -3.944364960797     2.297263128604    -0.000002315864     1.007825032230
         H           -5.218216960797     0.160362128604    -0.000007315864     1.007825032230

  Basis Set: AUG-CC-PVTZ
    Blend: AUG-CC-PVTZ
  Basis Set: (AUG-CC-PVTZ AUX)
    Blend: AUG-CC-PVTZ-JKFIT
	 Reference Energy          =   -7985.4253404922874324 [Eh]
	 Singles Energy            =      -0.0000000000000000 [Eh]
	 Same-Spin Energy          =      -0.5854884211949878 [Eh]
	 Opposite-Spin Energy      =      -1.5634491103608181 [Eh]
	 Correlation Energy        =      -2.1489375315558057 [Eh]
	 Total Energy              =   -7987.5742780238433625 [Eh]

	 ================> DF-SCS-MP2 Energies <==================
	-----------------------------------------------------------
	 SCS Same-Spin Scale       =       0.3333333333333333 [-]
	 SCS Opposite-Spin Scale   =       1.2000000000000000 [-]
	 SCS Same-Spin Energy      =      -0.1951628070649959 [Eh]
	 SCS Opposite-Spin Energy  =      -1.8761389324329816 [Eh]
	 SCS Correlation Energy    =      -2.0713017394979776 [Eh]
	 SCS Total Energy          =   -7987.4966422317856996 [Eh]
	-----------------------------------------------------------

  Dipole Moment: [D]
     X:    -2.2355      Y:     0.1459      Z:    -0.0000     Total:     2.2402

*** Psi4 exiting successfully. Buy a developer a beer!
