                               Psi4 1.4a3.dev225

  ==> Input File <==

--------------------------------------------------------------------------
#psi4
#
memory 32 gb

molecule  {
0 1
 Br        0.9177060    -0.9570590     1.5920850
 Br        0.9177150    -0.9570980    -1.5920580
 Br        1.2265620     1.7572190    -0.0000210
  C       -1.1965930     0.1192070    -0.0000060
  C       -1.9155750    -1.0884400    -0.0000040
  C       -1.8874290     1.3343550    -0.0000020
  C        0.3273773     0.0279840     0.0000001
  C       -3.3062270    -1.0722710    -0.0000080
  C       -3.2847940     1.3392570    -0.0000050
  C       -3.9987170     0.1427130    -0.0000040
  H       -1.3823580    -2.0353640    -0.0000080
  H       -1.3462350     2.2735570    -0.0000030
  H       -3.8517840    -2.0125620    -0.0000060
  H       -3.8118410     2.2900330    -0.0000020
  H       -5.0856930     0.1531320    -0.0000070
units angstrom
no_reorient  #important for SAPT in psi4, default
symmetry c1  #important for SAPT in psi4, default
}

set PROPERTIES_ORIGIN ["COM"]
properties('MP2/aug-cc-pvtz', properties = ['dipole'])
--------------------------------------------------------------------------

    Molecular point group: c1
  Charge       = 0
  Multiplicity = 1
  Basis Set: AUG-CC-PVTZ
    Blend: AUG-CC-PVTZ
  Basis Set: (AUG-CC-PVTZ AUX)
    Blend: AUG-CC-PVTZ-JKFIT

    Orbital Energies [Eh]
    ---------------------

    Doubly Occupied:

       1A   -490.044553     2A   -490.040079     3A   -490.040079
       4A    -65.184349     5A    -65.179848     6A    -65.179847
       7A    -58.539768     8A    -58.538093     9A    -58.538078
      10A    -58.535265    11A    -58.535265    12A    -58.533582
      13A    -58.533582    14A    -58.533558    15A    -58.533558
      16A    -11.427043    17A    -11.278859    18A    -11.257306
      19A    -11.256764    20A    -11.254540    21A    -11.252307
      22A    -11.251776    23A     -9.857082    24A     -9.852532
      25A     -9.852528    26A     -7.469134    27A     -7.464577
      28A     -7.464574    29A     -7.461353    30A     -7.461351
      31A     -7.456811    32A     -7.456809    33A     -7.456694
      34A     -7.456693    35A     -3.213133    36A     -3.209104
      37A     -3.209062    38A     -3.208550    39A     -3.208529
      40A     -3.204591    41A     -3.204588    42A     -3.204445
      43A     -3.204443    44A     -3.198987    45A     -3.198981
      46A     -3.194399    47A     -3.194396    48A     -3.194393
      49A     -3.194390    50A     -1.191499    51A     -1.138581
      52A     -1.037965    53A     -1.031217    54A     -1.016114
      55A     -1.015561    56A     -0.879755    57A     -0.844869
      58A     -0.782999    59A     -0.711659    60A     -0.650744
      61A     -0.648356    62A     -0.610480    63A     -0.604668
      64A     -0.582167    65A     -0.552356    66A     -0.524134
      67A     -0.513586    68A     -0.510513    69A     -0.454683
      70A     -0.448330    71A     -0.434316    72A     -0.411788
      73A     -0.410028    74A     -0.400191    75A     -0.354311
      76A     -0.344951

  @DF-RHF Final Energy: -7985.42969230472590

   => Energetics <=

    Nuclear Repulsion Energy =           1587.5109006957609381
    One-Electron Energy =              -14277.2290924150929641
    Two-Electron Energy =                4704.2884994146061217
    Total Energy =                      -7985.4296923047259043
  Basis Set: (AUG-CC-PVTZ AUX)
    Blend: AUG-CC-PVTZ-RI
    Molecular point group: c1

    Geometry (in Angstrom), charge = 0, multiplicity = 1:

       Center              X                  Y                   Z               Mass
    ------------   -----------------  -----------------  -----------------  -----------------
         BR           0.786015203365    -0.950681976985     1.592084691503    78.918337600000
         BR           0.786024203365    -0.950720976985    -1.592058308497    78.918337600000
         BR           1.094871203365     1.763596023015    -0.000021308497    78.918337600000
         C           -1.328283796635     0.125584023015    -0.000006308497    12.000000000000
         C           -2.047265796635    -1.082062976985    -0.000004308497    12.000000000000
         C           -2.019119796635     1.340732023015    -0.000002308497    12.000000000000
         C            0.195686503365     0.034361023015    -0.000000208497    12.000000000000
         C           -3.437917796635    -1.065893976985    -0.000008308497    12.000000000000
         C           -3.416484796635     1.345634023015    -0.000005308497    12.000000000000
         C           -4.130407796635     0.149090023015    -0.000004308497    12.000000000000
         H           -1.514048796635    -2.028986976985    -0.000008308497     1.007825032230
         H           -1.477925796635     2.279934023015    -0.000003308497     1.007825032230
         H           -3.983474796635    -2.006184976985    -0.000006308497     1.007825032230
         H           -3.943531796635     2.296410023015    -0.000002308497     1.007825032230
         H           -5.217383796635     0.159509023015    -0.000007308497     1.007825032230

  Basis Set: AUG-CC-PVTZ
    Blend: AUG-CC-PVTZ
  Basis Set: (AUG-CC-PVTZ AUX)
    Blend: AUG-CC-PVTZ-JKFIT
	 Reference Energy          =   -7985.4296923047259043 [Eh]
	 Singles Energy            =      -0.0000000000000000 [Eh]
	 Same-Spin Energy          =      -0.5851791325473156 [Eh]
	 Opposite-Spin Energy      =      -1.5626528703116342 [Eh]
	 Correlation Energy        =      -2.1478320028589497 [Eh]
	 Total Energy              =   -7987.5775243075850085 [Eh]

	 ================> DF-SCS-MP2 Energies <==================
	-----------------------------------------------------------
	 SCS Same-Spin Scale       =       0.3333333333333333 [-]
	 SCS Opposite-Spin Scale   =       1.2000000000000000 [-]
	 SCS Same-Spin Energy      =      -0.1950597108491052 [Eh]
	 SCS Opposite-Spin Energy  =      -1.8751834443739610 [Eh]
	 SCS Correlation Energy    =      -2.0702431552230660 [Eh]
	 SCS Total Energy          =   -7987.4999354599485741 [Eh]
	-----------------------------------------------------------

  Dipole Moment: [D]
     X:    -2.1295      Y:     0.1596      Z:    -0.0000     Total:     2.1355

*** Psi4 exiting successfully. Buy a developer a beer!
