                               Psi4 1.3.2 release

  ==> Input File <==

--------------------------------------------------------------------------
#psi4
#
memory 32 gb

molecule  {
0 1
 Br        0.9177060    -0.9570590     1.5920850
 Br        0.9177150    -0.9570980    -1.5920580
 Br        1.2265620     1.7572190    -0.0000210
  C       -1.1965930     0.1192070    -0.0000060
  C       -1.9980648    -1.0353446    -0.0000045
  C       -1.8874290     1.3343550    -0.0000020
  C        0.3074130     0.0291790     0.0000000
  C       -3.3062270    -1.0722710    -0.0000080
  C       -3.2847940     1.3392570    -0.0000050
  C       -3.9987170     0.1427130    -0.0000040
  H       -1.3823580    -2.0353640    -0.0000080
  H       -1.3462350     2.2735570    -0.0000030
  H       -3.8517840    -2.0125620    -0.0000060
  H       -3.8118410     2.2900330    -0.0000020
  H       -5.0856930     0.1531320    -0.0000070
units angstrom
no_reorient  #important for SAPT in psi4, default
symmetry c1  #important for SAPT in psi4, default
}

set PROPERTIES_ORIGIN ["COM"]
properties('MP2/aug-cc-pvtz', properties = ['dipole'])
--------------------------------------------------------------------------

    Molecular point group: c1
  Charge       = 0
  Multiplicity = 1
  Basis Set: AUG-CC-PVTZ
    Blend: AUG-CC-PVTZ
  Basis Set: (AUG-CC-PVTZ AUX)
    Blend: AUG-CC-PVTZ-JKFIT

    Orbital Energies [Eh]
    ---------------------

    Doubly Occupied:

       1A   -490.045552     2A   -490.039772     3A   -490.039772
       4A    -65.185284     5A    -65.179503     6A    -65.179503
       7A    -58.540721     8A    -58.539018     9A    -58.539005
      10A    -58.534927    11A    -58.534927    12A    -58.533233
      13A    -58.533233    14A    -58.533213    15A    -58.533213
      16A    -11.429009    17A    -11.276506    18A    -11.258399
      19A    -11.255549    20A    -11.254109    21A    -11.250228
      22A    -11.242132    23A     -9.857941    24A     -9.852138
      25A     -9.852133    26A     -7.470022    27A     -7.464181
      28A     -7.464178    29A     -7.462172    30A     -7.462159
      31A     -7.456391    32A     -7.456390    33A     -7.456295
      34A     -7.456293    35A     -3.214042    36A     -3.209987
      37A     -3.209954    38A     -3.208152    39A     -3.208131
      40A     -3.204189    41A     -3.204186    42A     -3.204066
      43A     -3.204065    44A     -3.199761    45A     -3.199753
      46A     -3.193983    47A     -3.193980    48A     -3.193978
      49A     -3.193976    50A     -1.196883    51A     -1.143352
      52A     -1.045023    53A     -1.031056    54A     -1.016490
      55A     -1.014812    56A     -0.886784    57A     -0.838118
      58A     -0.789030    59A     -0.709836    60A     -0.657194
      61A     -0.643192    62A     -0.615770    63A     -0.595590
      64A     -0.583268    65A     -0.548838    66A     -0.530809
      67A     -0.518850    68A     -0.494724    69A     -0.454789
      70A     -0.448144    71A     -0.436551    72A     -0.410778
      73A     -0.408600    74A     -0.399830    75A     -0.364202
      76A     -0.343677

  @DF-RHF Final Energy: -7985.41777798752810

   => Energetics <=

    Nuclear Repulsion Energy =           1586.9297147023833077
    One-Electron Energy =              -14276.0239964408756350
    Two-Electron Energy =                4703.6765037509649119
    Total Energy =                      -7985.4177779875280976
  Basis Set: (AUG-CC-PVTZ AUX)
    Blend: AUG-CC-PVTZ-RI
    Molecular point group: c1

    Geometry (in Angstrom), charge = 0, multiplicity = 1:

       Center              X                  Y                   Z               Mass
    ------------   -----------------  -----------------  -----------------  -----------------
         BR           0.789788902940    -0.952681659373     1.592084713603    78.918337600000
         BR           0.789797902940    -0.952720659373    -1.592058286397    78.918337600000
         BR           1.098644902940     1.761596340627    -0.000021286397    78.918337600000
         C           -1.324510097060     0.123584340627    -0.000006286397    12.000000000000
         C           -2.125981897060    -1.030967259373    -0.000004786397    12.000000000000
         C           -2.015346097060     1.338732340627    -0.000002286397    12.000000000000
         C            0.179495902940     0.033556340627    -0.000000286397    12.000000000000
         C           -3.434144097060    -1.067893659373    -0.000008286397    12.000000000000
         C           -3.412711097060     1.343634340627    -0.000005286397    12.000000000000
         C           -4.126634097060     0.147090340627    -0.000004286397    12.000000000000
         H           -1.510275097060    -2.030986659373    -0.000008286397     1.007825032230
         H           -1.474152097060     2.277934340627    -0.000003286397     1.007825032230
         H           -3.979701097060    -2.008184659373    -0.000006286397     1.007825032230
         H           -3.939758097060     2.294410340627    -0.000002286397     1.007825032230
         H           -5.213610097060     0.157509340627    -0.000007286397     1.007825032230

  Basis Set: AUG-CC-PVTZ
    Blend: AUG-CC-PVTZ
  Basis Set: (AUG-CC-PVTZ AUX)
    Blend: AUG-CC-PVTZ-JKFIT
	 Reference Energy          =   -7985.4177779875280976 [Eh]
	 Singles Energy            =      -0.0000000000000000 [Eh]
	 Same-Spin Energy          =      -0.5851247449853425 [Eh]
	 Opposite-Spin Energy      =      -1.5627823713690800 [Eh]
	 Correlation Energy        =      -2.1479071163544226 [Eh]
	 Total Energy              =   -7987.5656851038829700 [Eh]

	 ================> DF-SCS-MP2 Energies <==================
	-----------------------------------------------------------
	 SCS Same-Spin Scale       =       0.3333333333333333 [-]
	 SCS Opposite-Spin Scale   =       1.2000000000000000 [-]
	 SCS Same-Spin Energy      =      -0.1950415816617808 [Eh]
	 SCS Opposite-Spin Energy  =      -1.8753388456428959 [Eh]
	 SCS Correlation Energy    =      -2.0703804273046766 [Eh]
	 SCS Total Energy          =   -7987.4881584148324691 [Eh]
	-----------------------------------------------------------

  Dipole Moment: [D]
     X:    -2.1561      Y:     0.2155      Z:    -0.0000     Total:     2.1668

*** Psi4 exiting successfully. Buy a developer a beer!
