                               Psi4 1.3.2 release

  ==> Input File <==

--------------------------------------------------------------------------
#psi4
#
memory 32 gb

molecule  {
0 1
 Br        0.9177060    -0.9570590     1.5920850
 Br        0.9177150    -0.9570980    -1.5920580
 Br        1.2265620     1.7572190    -0.0000210
  C       -1.1965930     0.1192070    -0.0000060
  C       -1.8943891    -1.1008040    -0.0000039
  C       -1.8874290     1.3343550    -0.0000020
  C        0.3074130     0.0291790     0.0000000
  C       -3.3062270    -1.0722710    -0.0000080
  C       -3.2847940     1.3392570    -0.0000050
  C       -3.9987170     0.1427130    -0.0000040
  H       -1.3823580    -2.0353640    -0.0000080
  H       -1.3462350     2.2735570    -0.0000030
  H       -3.8517840    -2.0125620    -0.0000060
  H       -3.8118410     2.2900330    -0.0000020
  H       -5.0856930     0.1531320    -0.0000070
units angstrom
no_reorient  #important for SAPT in psi4, default
symmetry c1  #important for SAPT in psi4, default
}

set PROPERTIES_ORIGIN ["COM"]
properties('MP2/aug-cc-pvtz', properties = ['dipole'])
--------------------------------------------------------------------------

    Molecular point group: c1
  Charge       = 0
  Multiplicity = 1
  Basis Set: AUG-CC-PVTZ
    Blend: AUG-CC-PVTZ
  Basis Set: (AUG-CC-PVTZ AUX)
    Blend: AUG-CC-PVTZ-JKFIT

    Orbital Energies [Eh]
    ---------------------

    Doubly Occupied:

       1A   -490.043771     2A   -490.039608     3A   -490.039608
       4A    -65.183536     5A    -65.179357     6A    -65.179356
       7A    -58.538959     8A    -58.537280     9A    -58.537265
      10A    -58.534777    11A    -58.534777    12A    -58.533090
      13A    -58.533089    14A    -58.533065    15A    -58.533065
      16A    -11.426759    17A    -11.278313    18A    -11.258458
      19A    -11.258096    20A    -11.255942    21A    -11.254771
      22A    -11.252824    23A     -9.856221    24A     -9.852006
      25A     -9.852002    26A     -7.468257    27A     -7.464042
      28A     -7.464039    29A     -7.460490    30A     -7.460486
      31A     -7.456279    32A     -7.456278    33A     -7.456163
      34A     -7.456161    35A     -3.212248    36A     -3.208242
      37A     -3.208199    38A     -3.208009    39A     -3.207989
      40A     -3.204067    41A     -3.204063    42A     -3.203917
      43A     -3.203916    44A     -3.198126    45A     -3.198118
      46A     -3.193865    47A     -3.193862    48A     -3.193859
      49A     -3.193857    50A     -1.192444    51A     -1.136707
      52A     -1.037625    53A     -1.032059    54A     -1.014864
      55A     -1.013872    56A     -0.882592    57A     -0.847763
      58A     -0.782200    59A     -0.712696    60A     -0.651847
      61A     -0.650634    62A     -0.610836    63A     -0.606661
      64A     -0.582099    65A     -0.550697    66A     -0.524522
      67A     -0.511840    68A     -0.511809    69A     -0.454519
      70A     -0.447836    71A     -0.435990    72A     -0.410567
      73A     -0.408933    74A     -0.399607    75A     -0.353022
      76A     -0.345378

  @DF-RHF Final Energy: -7985.42827253490213

   => Energetics <=

    Nuclear Repulsion Energy =           1587.3668072744123947
    One-Electron Energy =              -14276.9698623643344035
    Two-Electron Energy =                4704.1747825550191919
    Total Energy =                      -7985.4282725349021348
  Basis Set: (AUG-CC-PVTZ AUX)
    Blend: AUG-CC-PVTZ-RI
    Molecular point group: c1

    Geometry (in Angstrom), charge = 0, multiplicity = 1:

       Center              X                  Y                   Z               Mass
    ------------   -----------------  -----------------  -----------------  -----------------
         BR           0.785970208081    -0.950270588367     1.592084691503    78.918337600000
         BR           0.785979208081    -0.950309588367    -1.592058308497    78.918337600000
         BR           1.094826208081     1.764007411633    -0.000021308497    78.918337600000
         C           -1.328328791919     0.125995411633    -0.000006308497    12.000000000000
         C           -2.026124891919    -1.094015588367    -0.000004208497    12.000000000000
         C           -2.019164791919     1.341143411633    -0.000002308497    12.000000000000
         C            0.175677208081     0.035967411633    -0.000000308497    12.000000000000
         C           -3.437962791919    -1.065482588367    -0.000008308497    12.000000000000
         C           -3.416529791919     1.346045411633    -0.000005308497    12.000000000000
         C           -4.130452791919     0.149501411633    -0.000004308497    12.000000000000
         H           -1.514093791919    -2.028575588367    -0.000008308497     1.007825032230
         H           -1.477970791919     2.280345411633    -0.000003308497     1.007825032230
         H           -3.983519791919    -2.005773588367    -0.000006308497     1.007825032230
         H           -3.943576791919     2.296821411633    -0.000002308497     1.007825032230
         H           -5.217428791919     0.159920411633    -0.000007308497     1.007825032230

  Basis Set: AUG-CC-PVTZ
    Blend: AUG-CC-PVTZ
  Basis Set: (AUG-CC-PVTZ AUX)
    Blend: AUG-CC-PVTZ-JKFIT
	 Reference Energy          =   -7985.4282725349021348 [Eh]
	 Singles Energy            =      -0.0000000000000000 [Eh]
	 Same-Spin Energy          =      -0.5853559931625726 [Eh]
	 Opposite-Spin Energy      =      -1.5630830857666957 [Eh]
	 Correlation Energy        =      -2.1484390789292682 [Eh]
	 Total Energy              =   -7987.5767116138313213 [Eh]

	 ================> DF-SCS-MP2 Energies <==================
	-----------------------------------------------------------
	 SCS Same-Spin Scale       =       0.3333333333333333 [-]
	 SCS Opposite-Spin Scale   =       1.2000000000000000 [-]
	 SCS Same-Spin Energy      =      -0.1951186643875242 [Eh]
	 SCS Opposite-Spin Energy  =      -1.8756997029200349 [Eh]
	 SCS Correlation Energy    =      -2.0708183673075591 [Eh]
	 SCS Total Energy          =   -7987.4990909022099004 [Eh]
	-----------------------------------------------------------

  Dipole Moment: [D]
     X:    -2.2192      Y:     0.1529      Z:    -0.0000     Total:     2.2244

*** Psi4 exiting successfully. Buy a developer a beer!
