                               Psi4 1.3.2 release

  ==> Input File <==

--------------------------------------------------------------------------
#psi4
#
memory 32 gb

molecule  {
0 1
 Br        0.9177060    -0.9570590     1.5920850
 Br        0.9177150    -0.9570980    -1.5920580
 Br        1.2265620     1.7572190    -0.0000210
  C       -1.1965930     0.1192070    -0.0000060
  C       -1.8295824    -1.1356519    -0.0000035
  C       -1.8874290     1.3343550    -0.0000020
  C        0.3074130     0.0291790     0.0000000
  C       -3.3062270    -1.0722710    -0.0000080
  C       -3.2847940     1.3392570    -0.0000050
  C       -3.9987170     0.1427130    -0.0000040
  H       -1.3823580    -2.0353640    -0.0000080
  H       -1.3462350     2.2735570    -0.0000030
  H       -3.8517840    -2.0125620    -0.0000060
  H       -3.8118410     2.2900330    -0.0000020
  H       -5.0856930     0.1531320    -0.0000070
units angstrom
no_reorient  #important for SAPT in psi4, default
symmetry c1  #important for SAPT in psi4, default
}

set PROPERTIES_ORIGIN ["COM"]
properties('MP2/aug-cc-pvtz', properties = ['dipole'])
--------------------------------------------------------------------------

    Molecular point group: c1
  Charge       = 0
  Multiplicity = 1
  Basis Set: AUG-CC-PVTZ
    Blend: AUG-CC-PVTZ
  Basis Set: (AUG-CC-PVTZ AUX)
    Blend: AUG-CC-PVTZ-JKFIT

    Orbital Energies [Eh]
    ---------------------

    Doubly Occupied:

       1A   -490.042619     2A   -490.039417     3A   -490.039417
       4A    -65.182403     5A    -65.179178     6A    -65.179177
       7A    -58.537817     8A    -58.536154     9A    -58.536137
      10A    -58.534596    11A    -58.534596    12A    -58.532912
      13A    -58.532912    14A    -58.532885    15A    -58.532885
      16A    -11.425465    17A    -11.280465    18A    -11.263315
      19A    -11.261246    20A    -11.258271    21A    -11.255574
      22A    -11.254364    23A     -9.855102    24A     -9.851838
      25A     -9.851834    26A     -7.467108    27A     -7.463870
      28A     -7.463867    29A     -7.459398    30A     -7.459396
      31A     -7.456121    32A     -7.456119    33A     -7.455992
      34A     -7.455991    35A     -3.211080    36A     -3.207836
      37A     -3.207816    38A     -3.207104    39A     -3.207057
      40A     -3.203904    41A     -3.203901    42A     -3.203738
      43A     -3.203736    44A     -3.197062    45A     -3.197055
      46A     -3.193702    47A     -3.193699    48A     -3.193695
      49A     -3.193693    50A     -1.191301    51A     -1.133629
      52A     -1.038091    53A     -1.030069    54A     -1.014836
      55A     -1.011644    56A     -0.880896    57A     -0.854074
      58A     -0.779461    59A     -0.716618    60A     -0.661146
      61A     -0.648354    62A     -0.613155    63A     -0.604443
      64A     -0.581699    65A     -0.551563    66A     -0.527848
      67A     -0.508852    68A     -0.506793    69A     -0.454493
      70A     -0.447476    71A     -0.435465    72A     -0.410405
      73A     -0.408754    74A     -0.399389    75A     -0.351182
      76A     -0.342722

  @DF-RHF Final Energy: -7985.41457160853588

   => Energetics <=

    Nuclear Repulsion Energy =           1587.8423642248308170
    One-Electron Energy =              -14277.9181215006847196
    Two-Electron Energy =                4704.6611856673180228
    Total Energy =                      -7985.4145716085358799
  Basis Set: (AUG-CC-PVTZ AUX)
    Blend: AUG-CC-PVTZ-RI
    Molecular point group: c1

    Geometry (in Angstrom), charge = 0, multiplicity = 1:

       Center              X                  Y                   Z               Mass
    ------------   -----------------  -----------------  -----------------  -----------------
         BR           0.783583178023    -0.948987033044     1.592084676770    78.918337600000
         BR           0.783592178023    -0.949026033044    -1.592058323230    78.918337600000
         BR           1.092439178023     1.765290966956    -0.000021323230    78.918337600000
         C           -1.330715821977     0.127278966956    -0.000006323230    12.000000000000
         C           -1.963705221977    -1.127579933044    -0.000003823230    12.000000000000
         C           -2.021551821977     1.342426966956    -0.000002323230    12.000000000000
         C            0.173290178023     0.037250966956    -0.000000323230    12.000000000000
         C           -3.440349821977    -1.064199033044    -0.000008323230    12.000000000000
         C           -3.418916821977     1.347328966956    -0.000005323230    12.000000000000
         C           -4.132839821977     0.150784966956    -0.000004323230    12.000000000000
         H           -1.516480821977    -2.027292033044    -0.000008323230     1.007825032230
         H           -1.480357821977     2.281628966956    -0.000003323230     1.007825032230
         H           -3.985906821977    -2.004490033044    -0.000006323230     1.007825032230
         H           -3.945963821977     2.298104966956    -0.000002323230     1.007825032230
         H           -5.219815821977     0.161203966956    -0.000007323230     1.007825032230

  Basis Set: AUG-CC-PVTZ
    Blend: AUG-CC-PVTZ
  Basis Set: (AUG-CC-PVTZ AUX)
    Blend: AUG-CC-PVTZ-JKFIT
	 Reference Energy          =   -7985.4145716085358799 [Eh]
	 Singles Energy            =      -0.0000000000000000 [Eh]
	 Same-Spin Energy          =      -0.5858407831775767 [Eh]
	 Opposite-Spin Energy      =      -1.5644925790343907 [Eh]
	 Correlation Energy        =      -2.1503333622119674 [Eh]
	 Total Energy              =   -7987.5649049707481026 [Eh]

	 ================> DF-SCS-MP2 Energies <==================
	-----------------------------------------------------------
	 SCS Same-Spin Scale       =       0.3333333333333333 [-]
	 SCS Opposite-Spin Scale   =       1.2000000000000000 [-]
	 SCS Same-Spin Energy      =      -0.1952802610591922 [Eh]
	 SCS Opposite-Spin Energy  =      -1.8773910948412686 [Eh]
	 SCS Correlation Energy    =      -2.0726713559004608 [Eh]
	 SCS Total Energy          =   -7987.4872429644365184 [Eh]
	-----------------------------------------------------------

  Dipole Moment: [D]
     X:    -2.2702      Y:     0.1364      Z:    -0.0000     Total:     2.2743

*** Psi4 exiting successfully. Buy a developer a beer!
