                               Psi4 1.3.2 release

  ==> Input File <==

--------------------------------------------------------------------------
#psi4
#
memory 32 gb

molecule  {
0 1
 Br        0.9177060    -0.9570590     1.5920850
 Br        0.9177150    -0.9570980    -1.5920580
 Br        1.2265620     1.7572190    -0.0000210
  C       -1.1965930     0.1192070    -0.0000060
  C       -1.9365418    -1.0757081    -0.0000041
  C       -1.8874290     1.3343550    -0.0000020
  C        0.3074130     0.0291790     0.0000000
  C       -3.3062270    -1.0722710    -0.0000080
  C       -3.2847940     1.3392570    -0.0000050
  C       -3.9987170     0.1427130    -0.0000040
  H       -1.3823580    -2.0353640    -0.0000080
  H       -1.3462350     2.2735570    -0.0000030
  H       -3.8517840    -2.0125620    -0.0000060
  H       -3.8118410     2.2900330    -0.0000020
  H       -5.0856930     0.1531320    -0.0000070
units angstrom
no_reorient  #important for SAPT in psi4, default
symmetry c1  #important for SAPT in psi4, default
}

set PROPERTIES_ORIGIN ["COM"]
properties('MP2/aug-cc-pvtz', properties = ['dipole'])
--------------------------------------------------------------------------

    Molecular point group: c1
  Charge       = 0
  Multiplicity = 1
  Basis Set: AUG-CC-PVTZ
    Blend: AUG-CC-PVTZ
  Basis Set: (AUG-CC-PVTZ AUX)
    Blend: AUG-CC-PVTZ-JKFIT

    Orbital Energies [Eh]
    ---------------------

    Doubly Occupied:

       1A   -490.044506     2A   -490.039704     3A   -490.039704
       4A    -65.184258     5A    -65.179445     6A    -65.179445
       7A    -58.539687     8A    -58.537998     9A    -58.537984
      10A    -58.534867    11A    -58.534867    12A    -58.533177
      13A    -58.533177    14A    -58.533155    15A    -58.533155
      16A    -11.427653    17A    -11.277315    18A    -11.258124
      19A    -11.256569    20A    -11.255275    21A    -11.251733
      22A    -11.250147    23A     -9.856932    24A     -9.852089
      25A     -9.852084    26A     -7.468987    27A     -7.464127
      28A     -7.464124    29A     -7.461185    30A     -7.461178
      31A     -7.456355    32A     -7.456353    33A     -7.456246
      34A     -7.456244    35A     -3.212990    36A     -3.208963
      37A     -3.208924    38A     -3.208096    39A     -3.208075
      40A     -3.204145    41A     -3.204142    42A     -3.204007
      43A     -3.204005    44A     -3.198801    45A     -3.198794
      46A     -3.193943    47A     -3.193940    48A     -3.193938
      49A     -3.193935    50A     -1.193774    51A     -1.139158
      52A     -1.039485    53A     -1.032196    54A     -1.015107
      55A     -1.014866    56A     -0.884200    57A     -0.843688
      58A     -0.784645    59A     -0.711047    60A     -0.653032
      61A     -0.647196    62A     -0.612424    63A     -0.603098
      64A     -0.582485    65A     -0.550025    66A     -0.526171
      67A     -0.514276    68A     -0.508000    69A     -0.454600
      70A     -0.448022    71A     -0.436263    72A     -0.410665
      73A     -0.408921    74A     -0.399723    75A     -0.356947
      76A     -0.344953

  @DF-RHF Final Energy: -7985.42914243276391

   => Energetics <=

    Nuclear Repulsion Energy =           1587.1397315017341043
    One-Electron Energy =              -14276.4987263757120672
    Two-Electron Energy =                4703.9298524412133702
    Total Energy =                      -7985.4291424327639106
  Basis Set: (AUG-CC-PVTZ AUX)
    Blend: AUG-CC-PVTZ-RI
    Molecular point group: c1

    Geometry (in Angstrom), charge = 0, multiplicity = 1:

       Center              X                  Y                   Z               Mass
    ------------   -----------------  -----------------  -----------------  -----------------
         BR           0.787522821652    -0.951194947540     1.592084698869    78.918337600000
         BR           0.787531821652    -0.951233947540    -1.592058301131    78.918337600000
         BR           1.096378821652     1.763083052460    -0.000021301131    78.918337600000
         C           -1.326776178348     0.125071052460    -0.000006301131    12.000000000000
         C           -2.066724978348    -1.069844047540    -0.000004401131    12.000000000000
         C           -2.017612178348     1.340219052460    -0.000002301131    12.000000000000
         C            0.177229821652     0.035043052460    -0.000000301131    12.000000000000
         C           -3.436410178348    -1.066406947540    -0.000008301131    12.000000000000
         C           -3.414977178348     1.345121052460    -0.000005301131    12.000000000000
         C           -4.128900178348     0.148577052460    -0.000004301131    12.000000000000
         H           -1.512541178348    -2.029499947540    -0.000008301131     1.007825032230
         H           -1.476418178348     2.279421052460    -0.000003301131     1.007825032230
         H           -3.981967178348    -2.006697947540    -0.000006301131     1.007825032230
         H           -3.942024178348     2.295897052460    -0.000002301131     1.007825032230
         H           -5.215876178348     0.158996052460    -0.000007301131     1.007825032230

  Basis Set: AUG-CC-PVTZ
    Blend: AUG-CC-PVTZ
  Basis Set: (AUG-CC-PVTZ AUX)
    Blend: AUG-CC-PVTZ-JKFIT
	 Reference Energy          =   -7985.4291424327639106 [Eh]
	 Singles Energy            =      -0.0000000000000000 [Eh]
	 Same-Spin Energy          =      -0.5851769553109860 [Eh]
	 Opposite-Spin Energy      =      -1.5626631081756635 [Eh]
	 Correlation Energy        =      -2.1478400634866492 [Eh]
	 Total Energy              =   -7987.5769824962508210 [Eh]

	 ================> DF-SCS-MP2 Energies <==================
	-----------------------------------------------------------
	 SCS Same-Spin Scale       =       0.3333333333333333 [-]
	 SCS Opposite-Spin Scale   =       1.2000000000000000 [-]
	 SCS Same-Spin Energy      =      -0.1950589851036620 [Eh]
	 SCS Opposite-Spin Energy  =      -1.8751957298107960 [Eh]
	 SCS Correlation Energy    =      -2.0702547149144581 [Eh]
	 SCS Total Energy          =   -7987.4993971476787920 [Eh]
	-----------------------------------------------------------

  Dipole Moment: [D]
     X:    -2.1896      Y:     0.1720      Z:    -0.0000     Total:     2.1963

*** Psi4 exiting successfully. Buy a developer a beer!
