                               Psi4 1.4a3.dev225

  ==> Input File <==

--------------------------------------------------------------------------
#psi4
#
memory 32 gb

molecule  {
0 1
  O        1.4609920    -0.9816210     0.0001000
  O       -1.4609920     0.9816210     0.0000780
  O        1.2129570     1.2831620    -0.0000550
  O       -1.2129570    -1.2831620    -0.0001280
  C        0.7553512     0.1786640     0.0000040
  C       -0.7476960    -0.1601870    -0.0000240
  H        2.4018370    -0.7064870     0.0001070
  H       -2.4018370     0.7064860     0.0000460
units angstrom
no_reorient  #important for SAPT in psi4, default
symmetry c1  #important for SAPT in psi4, default
}

set PROPERTIES_ORIGIN ["COM"]
properties('MP2/aug-cc-pvtz', properties = ['dipole'])
--------------------------------------------------------------------------

    Molecular point group: c1
  Charge       = 0
  Multiplicity = 1
  Basis Set: AUG-CC-PVTZ
    Blend: AUG-CC-PVTZ
  Basis Set: (AUG-CC-PVTZ AUX)
    Blend: AUG-CC-PVTZ-JKFIT

    Orbital Energies [Eh]
    ---------------------

    Doubly Occupied:

       1A    -20.645301     2A    -20.642415     3A    -20.596385
       4A    -20.592378     5A    -11.430507     6A    -11.429669
       7A     -1.508415     8A     -1.479082     9A     -1.407283
      10A     -1.387503    11A     -0.983211    12A     -0.841486
      13A     -0.747751    14A     -0.738161    15A     -0.716368
      16A     -0.682629    17A     -0.659203    18A     -0.630857
      19A     -0.613239    20A     -0.543675    21A     -0.517161
      22A     -0.509971    23A     -0.468743

  @DF-RHF Final Energy:  -376.51704464076147

   => Energetics <=

    Nuclear Repulsion Energy =            230.6392640797234890
    One-Electron Energy =                -974.7698294695703680
    Two-Electron Energy =                 367.6135207490854100
    Total Energy =                       -376.5170446407614691
  Basis Set: (AUG-CC-PVTZ AUX)
    Blend: AUG-CC-PVTZ-RI
    Molecular point group: c1

    Geometry (in Angstrom), charge = 0, multiplicity = 1:

       Center              X                  Y                   Z               Mass
    ------------   -----------------  -----------------  -----------------  -----------------
         O            1.459971253458    -0.984084717229     0.000101842067    15.994914619570
         O           -1.462012746542     0.979157282771     0.000079842067    15.994914619570
         O            1.211936253458     1.280698282771    -0.000053157933    15.994914619570
         O           -1.213977746542    -1.285625717229    -0.000126157933    15.994914619570
         C            0.754330453458     0.176200282771     0.000005842067    12.000000000000
         C           -0.748716746542    -0.162650717229    -0.000022157933    12.000000000000
         H            2.400816253458    -0.708950717229     0.000108842067     1.007825032230
         H           -2.402857746542     0.704022282771     0.000047842067     1.007825032230

  Basis Set: AUG-CC-PVTZ
    Blend: AUG-CC-PVTZ
  Basis Set: (AUG-CC-PVTZ AUX)
    Blend: AUG-CC-PVTZ-JKFIT
	 Reference Energy          =    -376.5170446407614691 [Eh]
	 Singles Energy            =      -0.0000000000000000 [Eh]
	 Same-Spin Energy          =      -0.3511235596438494 [Eh]
	 Opposite-Spin Energy      =      -1.0137215312301786 [Eh]
	 Correlation Energy        =      -1.3648450908740282 [Eh]
	 Total Energy              =    -377.8818897316355105 [Eh]

	 ================> DF-SCS-MP2 Energies <==================
	-----------------------------------------------------------
	 SCS Same-Spin Scale       =       0.3333333333333333 [-]
	 SCS Opposite-Spin Scale   =       1.2000000000000000 [-]
	 SCS Same-Spin Energy      =      -0.1170411865479498 [Eh]
	 SCS Opposite-Spin Energy  =      -1.2164658374762143 [Eh]
	 SCS Correlation Energy    =      -1.3335070240241640 [Eh]
	 SCS Total Energy          =    -377.8505516647856552 [Eh]
	-----------------------------------------------------------

  Dipole Moment: [D]
     X:     0.0082      Y:     0.1311      Z:     0.0002     Total:     0.1313

*** Psi4 exiting successfully. Buy a developer a beer!
