                               Psi4 1.3.2 release

  ==> Input File <==

--------------------------------------------------------------------------
#psi4
#
memory 32 gb

molecule  {
0 1
  O        1.4608160    -0.9817270     0.0002400
  O       -1.4608130     0.9817270     0.0002230
  O        1.2132250     1.2829860    -0.0000330
  O       -1.2132270    -1.2829860    -0.0001300
  C        0.7879775     0.1843191    -0.0003129
  C       -0.7476940    -0.1601270    -0.0002390
  H        2.4016800    -0.7069230     0.0005270
  H       -2.4016780     0.7069260     0.0004400
units angstrom
no_reorient  #important for SAPT in psi4, default
symmetry c1  #important for SAPT in psi4, default
}

set PROPERTIES_ORIGIN ["COM"]
properties('MP2/aug-cc-pvtz', properties = ['dipole'])
--------------------------------------------------------------------------

    Molecular point group: c1
  Charge       = 0
  Multiplicity = 1
  Basis Set: AUG-CC-PVTZ
    Blend: AUG-CC-PVTZ
  Basis Set: (AUG-CC-PVTZ AUX)
    Blend: AUG-CC-PVTZ-JKFIT

    Orbital Energies [Eh]
    ---------------------

    Doubly Occupied:

       1A    -20.645610     2A    -20.642851     3A    -20.596379
       4A    -20.588424     5A    -11.428105     6A    -11.426882
       7A     -1.512335     8A     -1.480762     9A     -1.416080
      10A     -1.386759    11A     -0.971469    12A     -0.841046
      13A     -0.749912    14A     -0.737891    15A     -0.716231
      16A     -0.683640    17A     -0.661206    18A     -0.633358
      19A     -0.610886    20A     -0.545649    21A     -0.523199
      22A     -0.507420    23A     -0.462970

  @DF-RHF Final Energy:  -376.51719561776713

   => Energetics <=

    Nuclear Repulsion Energy =            230.6211936395127395
    One-Electron Energy =                -974.7386471737461306
    Two-Electron Energy =                 367.6002579164662620
    Total Energy =                       -376.5171956177671291
  Basis Set: (AUG-CC-PVTZ AUX)
    Blend: AUG-CC-PVTZ-RI
    Molecular point group: c1

    Geometry (in Angstrom), charge = 0, multiplicity = 1:

       Center              X                  Y                   Z               Mass
    ------------   -----------------  -----------------  -----------------  -----------------
         O            1.455444386542    -0.984952815081     0.000249442257    15.994914619570
         O           -1.466184613458     0.978501184919     0.000232442257    15.994914619570
         O            1.207853386542     1.279760184919    -0.000023557743    15.994914619570
         O           -1.218598613458    -1.286211815081    -0.000120557743    15.994914619570
         C            0.782605886542     0.181093284919    -0.000303457743    12.000000000000
         C           -0.753065613458    -0.163352815081    -0.000229557743    12.000000000000
         H            2.396308386542    -0.710148815081     0.000536442257     1.007825032230
         H           -2.407049613458     0.703700184919     0.000449442257     1.007825032230

  Basis Set: AUG-CC-PVTZ
    Blend: AUG-CC-PVTZ
  Basis Set: (AUG-CC-PVTZ AUX)
    Blend: AUG-CC-PVTZ-JKFIT
	 Reference Energy          =    -376.5171956177671291 [Eh]
	 Singles Energy            =      -0.0000000000000000 [Eh]
	 Same-Spin Energy          =      -0.3506027729443276 [Eh]
	 Opposite-Spin Energy      =      -1.0123502541120286 [Eh]
	 Correlation Energy        =      -1.3629530270563563 [Eh]
	 Total Energy              =    -377.8801486448234641 [Eh]

	 ================> DF-SCS-MP2 Energies <==================
	-----------------------------------------------------------
	 SCS Same-Spin Scale       =       0.3333333333333333 [-]
	 SCS Opposite-Spin Scale   =       1.2000000000000000 [-]
	 SCS Same-Spin Energy      =      -0.1168675909814425 [Eh]
	 SCS Opposite-Spin Energy  =      -1.2148203049344344 [Eh]
	 SCS Correlation Energy    =      -1.3316878959158769 [Eh]
	 SCS Total Energy          =    -377.8488835136830062 [Eh]
	-----------------------------------------------------------

  Dipole Moment: [D]
     X:     0.1794      Y:     0.1449      Z:     0.0002     Total:     0.2306

*** Psi4 exiting successfully. Buy a developer a beer!
