                               Psi4 1.4a3.dev225

  ==> Input File <==

--------------------------------------------------------------------------
#psi4
#
memory 32 gb

molecule  {
0 1
  O        1.4609920    -0.9816210     0.0001000
  O       -1.4609920     0.9816210     0.0000780
  O        1.2129570     1.2831620    -0.0000550
  O       -1.2129570    -1.2831620    -0.0001280
  C        0.7476960     0.1601870     0.0000050
  C       -0.7672522    -0.1643767    -0.0000244
  H        2.4018370    -0.7064870     0.0001070
  H       -2.4018370     0.7064860     0.0000460
units angstrom
no_reorient  #important for SAPT in psi4, default
symmetry c1  #important for SAPT in psi4, default
}

set PROPERTIES_ORIGIN ["COM"]
properties('MP2/aug-cc-pvtz', properties = ['dipole'])
--------------------------------------------------------------------------

    Molecular point group: c1
  Charge       = 0
  Multiplicity = 1
  Basis Set: AUG-CC-PVTZ
    Blend: AUG-CC-PVTZ
  Basis Set: (AUG-CC-PVTZ AUX)
    Blend: AUG-CC-PVTZ-JKFIT

    Orbital Energies [Eh]
    ---------------------

    Doubly Occupied:

       1A    -20.647638     2A    -20.644563     3A    -20.593355
       4A    -20.591106     5A    -11.430248     6A    -11.429373
       7A     -1.509842     8A     -1.480752     9A     -1.406164
      10A     -1.387138    11A     -0.980633    12A     -0.844989
      13A     -0.748998    14A     -0.737168    15A     -0.717883
      16A     -0.683426    17A     -0.659677    18A     -0.633011
      19A     -0.610668    20A     -0.542513    21A     -0.514972
      22A     -0.509343    23A     -0.467062

  @DF-RHF Final Energy:  -376.51737692151625

   => Energetics <=

    Nuclear Repulsion Energy =            230.6070442457919114
    One-Electron Energy =                -974.7077934268857007
    Two-Electron Energy =                 367.5833722595775157
    Total Energy =                       -376.5173769215162451
  Basis Set: (AUG-CC-PVTZ AUX)
    Blend: AUG-CC-PVTZ-RI
    Molecular point group: c1

    Geometry (in Angstrom), charge = 0, multiplicity = 1:

       Center              X                  Y                   Z               Mass
    ------------   -----------------  -----------------  -----------------  -----------------
         O            1.463599629262    -0.981062333013     0.000101762062    15.994914619570
         O           -1.458384370738     0.982179666987     0.000079762062    15.994914619570
         O            1.215564629262     1.283720666987    -0.000053237938    15.994914619570
         O           -1.210349370738    -1.282603333013    -0.000126237938    15.994914619570
         C            0.750303629262     0.160745666987     0.000006762062    12.000000000000
         C           -0.764644570738    -0.163818033013    -0.000022637938    12.000000000000
         H            2.404444629262    -0.705928333013     0.000108762062     1.007825032230
         H           -2.399229370738     0.707044666987     0.000047762062     1.007825032230

  Basis Set: AUG-CC-PVTZ
    Blend: AUG-CC-PVTZ
  Basis Set: (AUG-CC-PVTZ AUX)
    Blend: AUG-CC-PVTZ-JKFIT
	 Reference Energy          =    -376.5173769215162451 [Eh]
	 Singles Energy            =      -0.0000000000000000 [Eh]
	 Same-Spin Energy          =      -0.3511328696072992 [Eh]
	 Opposite-Spin Energy      =      -1.0135668229222579 [Eh]
	 Correlation Energy        =      -1.3646996925295571 [Eh]
	 Total Energy              =    -377.8820766140457863 [Eh]

	 ================> DF-SCS-MP2 Energies <==================
	-----------------------------------------------------------
	 SCS Same-Spin Scale       =       0.3333333333333333 [-]
	 SCS Opposite-Spin Scale   =       1.2000000000000000 [-]
	 SCS Same-Spin Energy      =      -0.1170442898690997 [Eh]
	 SCS Opposite-Spin Energy  =      -1.2162801875067093 [Eh]
	 SCS Correlation Energy    =      -1.3333244773758091 [Eh]
	 SCS Total Energy          =    -377.8507013988920562 [Eh]
	-----------------------------------------------------------

  Dipole Moment: [D]
     X:    -0.0947      Y:    -0.0091      Z:     0.0002     Total:     0.0951

*** Psi4 exiting successfully. Buy a developer a beer!
