                               Psi4 1.4a3.dev225

  ==> Input File <==

--------------------------------------------------------------------------
#psi4
#
memory 32 gb

molecule  {
0 1
  O        1.4609920    -0.9816210     0.0001000
  O       -1.4609920     0.9816210     0.0000780
  O        1.2129570     1.2831620    -0.0000550
  O       -1.2129570    -1.2831620    -0.0001280
  C        0.7741870     0.1177815     0.0000085
  C       -0.7476960    -0.1601870    -0.0000240
  H        2.4018370    -0.7064870     0.0001070
  H       -2.4018370     0.7064860     0.0000460
units angstrom
no_reorient  #important for SAPT in psi4, default
symmetry c1  #important for SAPT in psi4, default
}

set PROPERTIES_ORIGIN ["COM"]
properties('MP2/aug-cc-pvtz', properties = ['dipole'])
--------------------------------------------------------------------------

    Molecular point group: c1
  Charge       = 0
  Multiplicity = 1
  Basis Set: AUG-CC-PVTZ
    Blend: AUG-CC-PVTZ
  Basis Set: (AUG-CC-PVTZ AUX)
    Blend: AUG-CC-PVTZ-JKFIT

    Orbital Energies [Eh]
    ---------------------

    Doubly Occupied:

       1A    -20.659991     2A    -20.644498     3A    -20.590753
       4A    -20.584261     5A    -11.432594     6A    -11.429632
       7A     -1.520000     8A     -1.485899     9A     -1.395373
      10A     -1.377939    11A     -0.983933    12A     -0.856204
      13A     -0.754106    14A     -0.735564    15A     -0.722344
      16A     -0.687924    17A     -0.658009    18A     -0.637956
      19A     -0.603690    20A     -0.536146    21A     -0.509595
      22A     -0.501366    23A     -0.465607

  @DF-RHF Final Energy:  -376.51246136511929

   => Energetics <=

    Nuclear Repulsion Energy =            230.5760323737937085
    One-Electron Energy =                -974.6302213279017224
    Two-Electron Energy =                 367.5417275889886923
    Total Energy =                       -376.5124613651192931
  Basis Set: (AUG-CC-PVTZ AUX)
    Blend: AUG-CC-PVTZ-RI
    Molecular point group: c1

    Geometry (in Angstrom), charge = 0, multiplicity = 1:

       Center              X                  Y                   Z               Mass
    ------------   -----------------  -----------------  -----------------  -----------------
         O            1.457459682536    -0.975966627388     0.000101242035    15.994914619570
         O           -1.464524317464     0.987275372612     0.000079242035    15.994914619570
         O            1.209424682536     1.288816372612    -0.000053757965    15.994914619570
         O           -1.216489317464    -1.277507627388    -0.000126757965    15.994914619570
         C            0.770654682536     0.123435872612     0.000009742035    12.000000000000
         C           -0.751228317464    -0.154532627388    -0.000022757965    12.000000000000
         H            2.398304682536    -0.700832627388     0.000108242035     1.007825032230
         H           -2.405369317464     0.712140372612     0.000047242035     1.007825032230

  Basis Set: AUG-CC-PVTZ
    Blend: AUG-CC-PVTZ
  Basis Set: (AUG-CC-PVTZ AUX)
    Blend: AUG-CC-PVTZ-JKFIT
	 Reference Energy          =    -376.5124613651192931 [Eh]
	 Singles Energy            =      -0.0000000000000000 [Eh]
	 Same-Spin Energy          =      -0.3516926841674325 [Eh]
	 Opposite-Spin Energy      =      -1.0144464819084036 [Eh]
	 Correlation Energy        =      -1.3661391660758362 [Eh]
	 Total Energy              =    -377.8786005311951044 [Eh]

	 ================> DF-SCS-MP2 Energies <==================
	-----------------------------------------------------------
	 SCS Same-Spin Scale       =       0.3333333333333333 [-]
	 SCS Opposite-Spin Scale   =       1.2000000000000000 [-]
	 SCS Same-Spin Energy      =      -0.1172308947224775 [Eh]
	 SCS Opposite-Spin Energy  =      -1.2173357782900842 [Eh]
	 SCS Correlation Energy    =      -1.3345666730125616 [Eh]
	 SCS Total Energy          =    -377.8470280381318389 [Eh]
	-----------------------------------------------------------

  Dipole Moment: [D]
     X:     0.2012      Y:    -0.3468      Z:     0.0002     Total:     0.4009

*** Psi4 exiting successfully. Buy a developer a beer!
