                               Psi4 1.4a3.dev225

  ==> Input File <==

--------------------------------------------------------------------------
#psi4
#
memory 32 gb

molecule  {
0 1
  O        1.4609920    -0.9816210     0.0001000
  O       -1.4609920     0.9816210     0.0000780
  O        1.2129570     1.2831620    -0.0000550
  O       -1.2129570    -1.2831620    -0.0001280
  C        0.7476960     0.1601870     0.0000050
  C       -0.7476960    -0.1601870    -0.0000240
  H        2.4498271    -0.6924531     0.0001074
  H       -2.4018370     0.7064860     0.0000460
units angstrom
no_reorient  #important for SAPT in psi4, default
symmetry c1  #important for SAPT in psi4, default
}

set PROPERTIES_ORIGIN ["COM"]
properties('MP2/aug-cc-pvtz', properties = ['dipole'])
--------------------------------------------------------------------------

    Molecular point group: c1
  Charge       = 0
  Multiplicity = 1
  Basis Set: AUG-CC-PVTZ
    Blend: AUG-CC-PVTZ
  Basis Set: (AUG-CC-PVTZ AUX)
    Blend: AUG-CC-PVTZ-JKFIT

    Orbital Energies [Eh]
    ---------------------

    Doubly Occupied:

       1A    -20.648612     2A    -20.645586     3A    -20.592944
       4A    -20.592191     5A    -11.431040     6A    -11.430064
       7A     -1.505499     8A     -1.475041     9A     -1.400567
      10A     -1.382245    11A     -0.984217    12A     -0.838467
      13A     -0.747136    14A     -0.735513    15A     -0.713521
      16A     -0.682086    17A     -0.655926    18A     -0.630042
      19A     -0.608780    20A     -0.540244    21A     -0.510934
      22A     -0.508982    23A     -0.469381

  @DF-RHF Final Energy:  -376.51106138555809

   => Energetics <=

    Nuclear Repulsion Energy =            230.3332480988487703
    One-Electron Energy =                -974.2305882524348135
    Two-Electron Energy =                 367.3862787680279212
    Total Energy =                       -376.5110613855580937
  Basis Set: (AUG-CC-PVTZ AUX)
    Blend: AUG-CC-PVTZ-RI
    Molecular point group: c1

    Geometry (in Angstrom), charge = 0, multiplicity = 1:

       Center              X                  Y                   Z               Mass
    ------------   -----------------  -----------------  -----------------  -----------------
         O            1.460454576162    -0.981778149391     0.000101704247    15.994914619570
         O           -1.461529423838     0.981463850609     0.000079704247    15.994914619570
         O            1.212419576162     1.283004850609    -0.000053295753    15.994914619570
         O           -1.213494423838    -1.283319149391    -0.000126295753    15.994914619570
         C            0.747158576162     0.160029850609     0.000006704247    12.000000000000
         C           -0.748233423838    -0.160344149391    -0.000022295753    12.000000000000
         H            2.449289676162    -0.692610249391     0.000109104247     1.007825032230
         H           -2.402374423838     0.706328850609     0.000047704247     1.007825032230

  Basis Set: AUG-CC-PVTZ
    Blend: AUG-CC-PVTZ
  Basis Set: (AUG-CC-PVTZ AUX)
    Blend: AUG-CC-PVTZ-JKFIT
	 Reference Energy          =    -376.5110613855580937 [Eh]
	 Singles Energy            =      -0.0000000000000000 [Eh]
	 Same-Spin Energy          =      -0.3521210236917910 [Eh]
	 Opposite-Spin Energy      =      -1.0159747655884592 [Eh]
	 Correlation Energy        =      -1.3680957892802503 [Eh]
	 Total Energy              =    -377.8791571748383262 [Eh]

	 ================> DF-SCS-MP2 Energies <==================
	-----------------------------------------------------------
	 SCS Same-Spin Scale       =       0.3333333333333333 [-]
	 SCS Opposite-Spin Scale   =       1.2000000000000000 [-]
	 SCS Same-Spin Energy      =      -0.1173736745639303 [Eh]
	 SCS Opposite-Spin Energy  =      -1.2191697187061510 [Eh]
	 SCS Correlation Energy    =      -1.3365433932700812 [Eh]
	 SCS Total Energy          =    -377.8476047788281562 [Eh]
	-----------------------------------------------------------

  Dipole Moment: [D]
     X:     0.0710      Y:    -0.0036      Z:     0.0002     Total:     0.0710

*** Psi4 exiting successfully. Buy a developer a beer!
