                               Psi4 1.3.2 release

  ==> Input File <==

--------------------------------------------------------------------------
#psi4
#
memory 32 gb

molecule  {
0 1
  O        1.4608160    -0.9817270     0.0002400
  O       -1.4608130     0.9817270     0.0002230
  O        1.2132250     1.2829860    -0.0000330
  O       -1.2132270    -1.2829860    -0.0001300
  C        0.7093946     0.0677515    -0.0003458
  C       -0.7476940    -0.1601270    -0.0002390
  H        2.4016800    -0.7069230     0.0005270
  H       -2.4016780     0.7069260     0.0004400
units angstrom
no_reorient  #important for SAPT in psi4, default
symmetry c1  #important for SAPT in psi4, default
}

set PROPERTIES_ORIGIN ["COM"]
properties('MP2/aug-cc-pvtz', properties = ['dipole'])
--------------------------------------------------------------------------

    Molecular point group: c1
  Charge       = 0
  Multiplicity = 1
  Basis Set: AUG-CC-PVTZ
    Blend: AUG-CC-PVTZ
  Basis Set: (AUG-CC-PVTZ AUX)
    Blend: AUG-CC-PVTZ-JKFIT

    Orbital Energies [Eh]
    ---------------------

    Doubly Occupied:

       1A    -20.662788     2A    -20.648822     3A    -20.598265
       4A    -20.578203     5A    -11.437524     6A    -11.434571
       7A     -1.520786     8A     -1.490453     9A     -1.399688
      10A     -1.338467    11A     -1.010870    12A     -0.866121
      13A     -0.759481    14A     -0.738329    15A     -0.726158
      16A     -0.690581    17A     -0.653096    18A     -0.638438
      19A     -0.597969    20A     -0.527486    21A     -0.514717
      22A     -0.477773    23A     -0.471374

  @DF-RHF Final Energy:  -376.49286908792226

   => Energetics <=

    Nuclear Repulsion Energy =            230.7086564302287570
    One-Electron Energy =                -974.8391307938529735
    Two-Electron Energy =                 367.6376052757019579
    Total Energy =                       -376.4928690879222586
  Basis Set: (AUG-CC-PVTZ AUX)
    Blend: AUG-CC-PVTZ-RI
    Molecular point group: c1

    Geometry (in Angstrom), charge = 0, multiplicity = 1:

       Center              X                  Y                   Z               Mass
    ------------   -----------------  -----------------  -----------------  -----------------
         O            1.465922652745    -0.969409658191     0.000253829152    15.994914619570
         O           -1.455706347255     0.994044341809     0.000236829152    15.994914619570
         O            1.218331652745     1.295303341809    -0.000019170848    15.994914619570
         O           -1.208120347255    -1.270668658191    -0.000116170848    15.994914619570
         C            0.714501252745     0.080068841809    -0.000331970848    12.000000000000
         C           -0.742587347255    -0.147809658191    -0.000225170848    12.000000000000
         H            2.406786652745    -0.694605658191     0.000540829152     1.007825032230
         H           -2.396571347255     0.719243341809     0.000453829152     1.007825032230

  Basis Set: AUG-CC-PVTZ
    Blend: AUG-CC-PVTZ
  Basis Set: (AUG-CC-PVTZ AUX)
    Blend: AUG-CC-PVTZ-JKFIT
	 Reference Energy          =    -376.4928690879222586 [Eh]
	 Singles Energy            =      -0.0000000000000000 [Eh]
	 Same-Spin Energy          =      -0.3537126292449126 [Eh]
	 Opposite-Spin Energy      =      -1.0190673401906969 [Eh]
	 Correlation Energy        =      -1.3727799694356095 [Eh]
	 Total Energy              =    -377.8656490573578708 [Eh]

	 ================> DF-SCS-MP2 Energies <==================
	-----------------------------------------------------------
	 SCS Same-Spin Scale       =       0.3333333333333333 [-]
	 SCS Opposite-Spin Scale   =       1.2000000000000000 [-]
	 SCS Same-Spin Energy      =      -0.1179042097483042 [Eh]
	 SCS Opposite-Spin Energy  =      -1.2228808082288363 [Eh]
	 SCS Correlation Energy    =      -1.3407850179771406 [Eh]
	 SCS Total Energy          =    -377.8336541058994271 [Eh]
	-----------------------------------------------------------

  Dipole Moment: [D]
     X:     0.0013      Y:    -0.5691      Z:     0.0003     Total:     0.5691

*** Psi4 exiting successfully. Buy a developer a beer!
