                               Psi4 1.3.2 release

  ==> Input File <==

--------------------------------------------------------------------------
#psi4
#
memory 32 gb

molecule  {
0 1
  O        1.5387306    -0.9292005     0.0002940
  O       -1.4608130     0.9817270     0.0002230
  O        1.2132250     1.2829860    -0.0000330
  O       -1.2132270    -1.2829860    -0.0001300
  C        0.7476930     0.1601270    -0.0003220
  C       -0.7476940    -0.1601270    -0.0002390
  H        2.4016800    -0.7069230     0.0005270
  H       -2.4016780     0.7069260     0.0004400
units angstrom
no_reorient  #important for SAPT in psi4, default
symmetry c1  #important for SAPT in psi4, default
}

set PROPERTIES_ORIGIN ["COM"]
properties('MP2/aug-cc-pvtz', properties = ['dipole'])
--------------------------------------------------------------------------

    Molecular point group: c1
  Charge       = 0
  Multiplicity = 1
  Basis Set: AUG-CC-PVTZ
    Blend: AUG-CC-PVTZ
  Basis Set: (AUG-CC-PVTZ AUX)
    Blend: AUG-CC-PVTZ-JKFIT

    Orbital Energies [Eh]
    ---------------------

    Doubly Occupied:

       1A    -20.649132     2A    -20.632870     3A    -20.596918
       4A    -20.590465     5A    -11.436795     6A    -11.432082
       7A     -1.513866     8A     -1.487261     9A     -1.403630
      10A     -1.389187    11A     -0.996742    12A     -0.866030
      13A     -0.753167    14A     -0.737115    15A     -0.727536
      16A     -0.684178    17A     -0.658574    18A     -0.633685
      19A     -0.614177    20A     -0.539200    21A     -0.513994
      22A     -0.508423    23A     -0.472530

  @DF-RHF Final Energy:  -376.51286860539312

   => Energetics <=

    Nuclear Repulsion Energy =            230.6010897573174248
    One-Electron Energy =                -974.5528054861783858
    Two-Electron Energy =                 367.4388471234678946
    Total Energy =                       -376.5128686053931233
  Basis Set: (AUG-CC-PVTZ AUX)
    Blend: AUG-CC-PVTZ-RI
    Molecular point group: c1

    Geometry (in Angstrom), charge = 0, multiplicity = 1:

       Center              X                  Y                   Z               Mass
    ------------   -----------------  -----------------  -----------------  -----------------
         O            1.524882729424    -0.938536096709     0.000295058204    15.994914619570
         O           -1.474660870576     0.972391403291     0.000224058204    15.994914619570
         O            1.199377129424     1.273650403291    -0.000031941796    15.994914619570
         O           -1.227074870576    -1.292321596709    -0.000128941796    15.994914619570
         C            0.733845129424     0.150791403291    -0.000320941796    12.000000000000
         C           -0.761541870576    -0.169462596709    -0.000237941796    12.000000000000
         H            2.387832129424    -0.716258596709     0.000528058204     1.007825032230
         H           -2.415525870576     0.697590403291     0.000441058204     1.007825032230

  Basis Set: AUG-CC-PVTZ
    Blend: AUG-CC-PVTZ
  Basis Set: (AUG-CC-PVTZ AUX)
    Blend: AUG-CC-PVTZ-JKFIT
	 Reference Energy          =    -376.5128686053931233 [Eh]
	 Singles Energy            =      -0.0000000000000000 [Eh]
	 Same-Spin Energy          =      -0.3498332943635767 [Eh]
	 Opposite-Spin Energy      =      -1.0111515810430145 [Eh]
	 Correlation Energy        =      -1.3609848754065912 [Eh]
	 Total Energy              =    -377.8738534807997098 [Eh]

	 ================> DF-SCS-MP2 Energies <==================
	-----------------------------------------------------------
	 SCS Same-Spin Scale       =       0.3333333333333333 [-]
	 SCS Opposite-Spin Scale   =       1.2000000000000000 [-]
	 SCS Same-Spin Energy      =      -0.1166110981211922 [Eh]
	 SCS Opposite-Spin Energy  =      -1.2133818972516173 [Eh]
	 SCS Correlation Energy    =      -1.3299929953728096 [Eh]
	 SCS Total Energy          =    -377.8428616007659571 [Eh]
	-----------------------------------------------------------

  Dipole Moment: [D]
     X:    -0.2095      Y:     0.0004      Z:     0.0001     Total:     0.2095

*** Psi4 exiting successfully. Buy a developer a beer!
