                               Psi4 1.3.2 release

  ==> Input File <==

--------------------------------------------------------------------------
#psi4
#
memory 32 gb

molecule  {
0 1
  O        1.4608160    -0.9817270     0.0002400
  O       -1.4608130     0.9817270     0.0002230
  O        1.2132250     1.2829860    -0.0000330
  O       -1.2132270    -1.2829860    -0.0001300
  C        0.6697784     0.1076005    -0.0003382
  C       -0.7476940    -0.1601270    -0.0002390
  H        2.4016800    -0.7069230     0.0005270
  H       -2.4016780     0.7069260     0.0004400
units angstrom
no_reorient  #important for SAPT in psi4, default
symmetry c1  #important for SAPT in psi4, default
}

set PROPERTIES_ORIGIN ["COM"]
properties('MP2/aug-cc-pvtz', properties = ['dipole'])
--------------------------------------------------------------------------

    Molecular point group: c1
  Charge       = 0
  Multiplicity = 1
  Basis Set: AUG-CC-PVTZ
    Blend: AUG-CC-PVTZ
  Basis Set: (AUG-CC-PVTZ AUX)
    Blend: AUG-CC-PVTZ-JKFIT

    Orbital Energies [Eh]
    ---------------------

    Doubly Occupied:

       1A    -20.650791     2A    -20.648134     3A    -20.602385
       4A    -20.589100     5A    -11.438260     6A    -11.435915
       7A     -1.510729     8A     -1.474279     9A     -1.403059
      10A     -1.350149    11A     -1.022837    12A     -0.854099
      13A     -0.753307    14A     -0.739579    15A     -0.717997
      16A     -0.687082    17A     -0.653141    18A     -0.626764
      19A     -0.608451    20A     -0.532454    21A     -0.516660
      22A     -0.486245    23A     -0.478240

  @DF-RHF Final Energy:  -376.49286786318066

   => Energetics <=

    Nuclear Repulsion Energy =            230.7453521244191279
    One-Electron Energy =                -974.9171265912691524
    Two-Electron Energy =                 367.6789066036693612
    Total Energy =                       -376.4928678631806633
  Basis Set: (AUG-CC-PVTZ AUX)
    Blend: AUG-CC-PVTZ-RI
    Molecular point group: c1

    Geometry (in Angstrom), charge = 0, multiplicity = 1:

       Center              X                  Y                   Z               Mass
    ------------   -----------------  -----------------  -----------------  -----------------
         O            1.471205088104    -0.974723135168     0.000252815766    15.994914619570
         O           -1.450423911896     0.988730864832     0.000235815766    15.994914619570
         O            1.223614088104     1.289989864832    -0.000020184234    15.994914619570
         O           -1.202837911896    -1.275982135168    -0.000117184234    15.994914619570
         C            0.680167488104     0.114604364832    -0.000325384234    12.000000000000
         C           -0.737304911896    -0.153123135168    -0.000226184234    12.000000000000
         H            2.412069088104    -0.699919135168     0.000539815766     1.007825032230
         H           -2.391288911896     0.713929864832     0.000452815766     1.007825032230

  Basis Set: AUG-CC-PVTZ
    Blend: AUG-CC-PVTZ
  Basis Set: (AUG-CC-PVTZ AUX)
    Blend: AUG-CC-PVTZ-JKFIT
	 Reference Energy          =    -376.4928678631806633 [Eh]
	 Singles Energy            =      -0.0000000000000000 [Eh]
	 Same-Spin Energy          =      -0.3540711605558411 [Eh]
	 Opposite-Spin Energy      =      -1.0205008796138921 [Eh]
	 Correlation Energy        =      -1.3745720401697332 [Eh]
	 Total Energy              =    -377.8674399033503732 [Eh]

	 ================> DF-SCS-MP2 Energies <==================
	-----------------------------------------------------------
	 SCS Same-Spin Scale       =       0.3333333333333333 [-]
	 SCS Opposite-Spin Scale   =       1.2000000000000000 [-]
	 SCS Same-Spin Energy      =      -0.1180237201852804 [Eh]
	 SCS Opposite-Spin Energy  =      -1.2246010555366704 [Eh]
	 SCS Correlation Energy    =      -1.3426247757219507 [Eh]
	 SCS Total Energy          =    -377.8354926389026218 [Eh]
	-----------------------------------------------------------

  Dipole Moment: [D]
     X:    -0.2406      Y:    -0.2329      Z:     0.0002     Total:     0.3348

*** Psi4 exiting successfully. Buy a developer a beer!
