                               Psi4 1.3.2 release

  ==> Input File <==

--------------------------------------------------------------------------
#psi4
#
memory 32 gb

molecule  {
0 1
  O        1.5762657    -0.9009302     0.0002075
  O       -1.4608130     0.9817270     0.0002230
  O        1.2132250     1.2829860    -0.0000330
  O       -1.2132270    -1.2829860    -0.0001300
  C        0.7476930     0.1601270    -0.0003220
  C       -0.7476940    -0.1601270    -0.0002390
  H        2.4016800    -0.7069230     0.0005270
  H       -2.4016780     0.7069260     0.0004400
units angstrom
no_reorient  #important for SAPT in psi4, default
symmetry c1  #important for SAPT in psi4, default
}

set PROPERTIES_ORIGIN ["COM"]
properties('MP2/aug-cc-pvtz', properties = ['dipole'])
--------------------------------------------------------------------------

    Molecular point group: c1
  Charge       = 0
  Multiplicity = 1
  Basis Set: AUG-CC-PVTZ
    Blend: AUG-CC-PVTZ
  Basis Set: (AUG-CC-PVTZ AUX)
    Blend: AUG-CC-PVTZ-JKFIT

    Orbital Energies [Eh]
    ---------------------

    Doubly Occupied:

       1A    -20.650759     2A    -20.625521     3A    -20.598668
       4A    -20.589057     5A    -11.439603     6A    -11.432915
       7A     -1.517828     8A     -1.491290     9A     -1.404534
      10A     -1.391150    11A     -1.001855    12A     -0.877791
      13A     -0.757294    14A     -0.737383    15A     -0.729380
      16A     -0.684819    17A     -0.658337    18A     -0.634766
      19A     -0.614314    20A     -0.538060    21A     -0.515557
      22A     -0.507060    23A     -0.473478

  @DF-RHF Final Energy:  -376.50132585575460

   => Energetics <=

    Nuclear Repulsion Energy =            230.6509190166081282
    One-Electron Energy =                -974.5616533364889165
    Two-Electron Energy =                 367.4094084641262157
    Total Energy =                       -376.5013258557546010
  Basis Set: (AUG-CC-PVTZ AUX)
    Blend: AUG-CC-PVTZ-RI
    Molecular point group: c1

    Geometry (in Angstrom), charge = 0, multiplicity = 1:

       Center              X                  Y                   Z               Mass
    ------------   -----------------  -----------------  -----------------  -----------------
         O            1.555746695901    -0.915290292342     0.000223931896    15.994914619570
         O           -1.481332004099     0.967366907658     0.000239431896    15.994914619570
         O            1.192705995901     1.268625907658    -0.000016568104    15.994914619570
         O           -1.233746004099    -1.297346092342    -0.000113568104    15.994914619570
         C            0.727173995901     0.145766907658    -0.000305568104    12.000000000000
         C           -0.768213004099    -0.174487092342    -0.000222568104    12.000000000000
         H            2.381160995901    -0.721283092342     0.000543431896     1.007825032230
         H           -2.422197004099     0.692565907658     0.000456431896     1.007825032230

  Basis Set: AUG-CC-PVTZ
    Blend: AUG-CC-PVTZ
  Basis Set: (AUG-CC-PVTZ AUX)
    Blend: AUG-CC-PVTZ-JKFIT
	 Reference Energy          =    -376.5013258557546010 [Eh]
	 Singles Energy            =      -0.0000000000000000 [Eh]
	 Same-Spin Energy          =      -0.3491443052634431 [Eh]
	 Opposite-Spin Energy      =      -1.0098102238742097 [Eh]
	 Correlation Energy        =      -1.3589545291376528 [Eh]
	 Total Energy              =    -377.8602803848922349 [Eh]

	 ================> DF-SCS-MP2 Energies <==================
	-----------------------------------------------------------
	 SCS Same-Spin Scale       =       0.3333333333333333 [-]
	 SCS Opposite-Spin Scale   =       1.2000000000000000 [-]
	 SCS Same-Spin Energy      =      -0.1163814350878144 [Eh]
	 SCS Opposite-Spin Energy  =      -1.2117722686490515 [Eh]
	 SCS Correlation Energy    =      -1.3281537037368658 [Eh]
	 SCS Total Energy          =    -377.8294795594914603 [Eh]
	-----------------------------------------------------------

  Dipole Moment: [D]
     X:    -0.3220      Y:    -0.0009      Z:     0.0002     Total:     0.3220

*** Psi4 exiting successfully. Buy a developer a beer!
