                               Psi4 1.3.2 release

  ==> Input File <==

--------------------------------------------------------------------------
#psi4
#
memory 32 gb

molecule  {
0 1
  O        1.4608160    -0.9817270     0.0002400
  O       -1.4608130     0.9817270     0.0002230
  O        1.1737542     1.2985488    -0.0000234
  O       -1.2132270    -1.2829860    -0.0001300
  C        0.7476930     0.1601270    -0.0003220
  C       -0.7476940    -0.1601270    -0.0002390
  H        2.4016800    -0.7069230     0.0005270
  H       -2.4016780     0.7069260     0.0004400
units angstrom
no_reorient  #important for SAPT in psi4, default
symmetry c1  #important for SAPT in psi4, default
}

set PROPERTIES_ORIGIN ["COM"]
properties('MP2/aug-cc-pvtz', properties = ['dipole'])
--------------------------------------------------------------------------

    Molecular point group: c1
  Charge       = 0
  Multiplicity = 1
  Basis Set: AUG-CC-PVTZ
    Blend: AUG-CC-PVTZ
  Basis Set: (AUG-CC-PVTZ AUX)
    Blend: AUG-CC-PVTZ-JKFIT

    Orbital Energies [Eh]
    ---------------------

    Doubly Occupied:

       1A    -20.649035     2A    -20.644162     3A    -20.594018
       4A    -20.591451     5A    -11.431499     6A    -11.428666
       7A     -1.507766     8A     -1.478225     9A     -1.403511
      10A     -1.385778    11A     -0.986313    12A     -0.845635
      13A     -0.748053    14A     -0.736677    15A     -0.718397
      16A     -0.682982    17A     -0.657977    18A     -0.631033
      19A     -0.610836    20A     -0.541561    21A     -0.512678
      22A     -0.509375    23A     -0.468646

  @DF-RHF Final Energy:  -376.51577480379501

   => Energetics <=

    Nuclear Repulsion Energy =            230.8007693558818971
    One-Electron Energy =                -975.1045393223554356
    Two-Electron Energy =                 367.7879951626784987
    Total Energy =                       -376.5157748037950114
  Basis Set: (AUG-CC-PVTZ AUX)
    Blend: AUG-CC-PVTZ-RI
    Molecular point group: c1

    Geometry (in Angstrom), charge = 0, multiplicity = 1:

       Center              X                  Y                   Z               Mass
    ------------   -----------------  -----------------  -----------------  -----------------
         O            1.467831099738    -0.984493018415     0.000248949440    15.994914619570
         O           -1.453797900262     0.978960981585     0.000231949440    15.994914619570
         O            1.180769299738     1.295782781585    -0.000014450560    15.994914619570
         O           -1.206211900262    -1.285752018415    -0.000121050560    15.994914619570
         C            0.754708099738     0.157360981585    -0.000313050560    12.000000000000
         C           -0.740678900262    -0.162893018415    -0.000230050560    12.000000000000
         H            2.408695099738    -0.709689018415     0.000535949440     1.007825032230
         H           -2.394662900262     0.704159981585     0.000448949440     1.007825032230

  Basis Set: AUG-CC-PVTZ
    Blend: AUG-CC-PVTZ
  Basis Set: (AUG-CC-PVTZ AUX)
    Blend: AUG-CC-PVTZ-JKFIT
	 Reference Energy          =    -376.5157748037950114 [Eh]
	 Singles Energy            =      -0.0000000000000000 [Eh]
	 Same-Spin Energy          =      -0.3515297847876927 [Eh]
	 Opposite-Spin Energy      =      -1.0145470726774448 [Eh]
	 Correlation Energy        =      -1.3660768574651376 [Eh]
	 Total Energy              =    -377.8818516612601570 [Eh]

	 ================> DF-SCS-MP2 Energies <==================
	-----------------------------------------------------------
	 SCS Same-Spin Scale       =       0.3333333333333333 [-]
	 SCS Opposite-Spin Scale   =       1.2000000000000000 [-]
	 SCS Same-Spin Energy      =      -0.1171765949292309 [Eh]
	 SCS Opposite-Spin Energy  =      -1.2174564872129336 [Eh]
	 SCS Correlation Energy    =      -1.3346330821421646 [Eh]
	 SCS Total Energy          =    -377.8504078859371589 [Eh]
	-----------------------------------------------------------

  Dipole Moment: [D]
     X:     0.1226      Y:    -0.0183      Z:     0.0002     Total:     0.1239

*** Psi4 exiting successfully. Buy a developer a beer!
