                               Psi4 1.3.2 release

  ==> Input File <==

--------------------------------------------------------------------------
#psi4
#
memory 32 gb

molecule  {
0 1
  O        1.4608160    -0.9817270     0.0002400
  O       -1.4608130     0.9817270     0.0002230
  O        1.0933040     1.3254962    -0.0000054
  O       -1.2132270    -1.2829860    -0.0001300
  C        0.7476930     0.1601270    -0.0003220
  C       -0.7476940    -0.1601270    -0.0002390
  H        2.4016800    -0.7069230     0.0005270
  H       -2.4016780     0.7069260     0.0004400
units angstrom
no_reorient  #important for SAPT in psi4, default
symmetry c1  #important for SAPT in psi4, default
}

set PROPERTIES_ORIGIN ["COM"]
properties('MP2/aug-cc-pvtz', properties = ['dipole'])
--------------------------------------------------------------------------

    Molecular point group: c1
  Charge       = 0
  Multiplicity = 1
  Basis Set: AUG-CC-PVTZ
    Blend: AUG-CC-PVTZ
  Basis Set: (AUG-CC-PVTZ AUX)
    Blend: AUG-CC-PVTZ-JKFIT

    Orbital Energies [Eh]
    ---------------------

    Doubly Occupied:

       1A    -20.654973     2A    -20.640495     3A    -20.595027
       4A    -20.587435     5A    -11.431889     6A    -11.423411
       7A     -1.507031     8A     -1.476014     9A     -1.406695
      10A     -1.384402    11A     -0.982988    12A     -0.846057
      13A     -0.747703    14A     -0.735838    15A     -0.718196
      16A     -0.682841    17A     -0.657615    18A     -0.630055
      19A     -0.608148    20A     -0.541999    21A     -0.515490
      22A     -0.506299    23A     -0.464879

  @DF-RHF Final Energy:  -376.51310631759821

   => Energetics <=

    Nuclear Repulsion Energy =            231.2169963391659167
    One-Electron Energy =                -975.9692447904693609
    Two-Electron Energy =                 368.2391421337052293
    Total Energy =                       -376.5131063175982149
  Basis Set: (AUG-CC-PVTZ AUX)
    Blend: AUG-CC-PVTZ-RI
    Molecular point group: c1

    Geometry (in Angstrom), charge = 0, multiplicity = 1:

       Center              X                  Y                   Z               Mass
    ------------   -----------------  -----------------  -----------------  -----------------
         O            1.482129557080    -0.989282394319     0.000245750290    15.994914619570
         O           -1.439499442920     0.974171605681     0.000228750290    15.994914619570
         O            1.114617557080     1.317940805681     0.000000350290    15.994914619570
         O           -1.191913442920    -1.290541394319    -0.000124249710    15.994914619570
         C            0.769006557080     0.152571605681    -0.000316249710    12.000000000000
         C           -0.726380442920    -0.167682394319    -0.000233249710    12.000000000000
         H            2.422993557080    -0.714478394319     0.000532750290     1.007825032230
         H           -2.380364442920     0.699370605681     0.000445750290     1.007825032230

  Basis Set: AUG-CC-PVTZ
    Blend: AUG-CC-PVTZ
  Basis Set: (AUG-CC-PVTZ AUX)
    Blend: AUG-CC-PVTZ-JKFIT
	 Reference Energy          =    -376.5131063175982149 [Eh]
	 Singles Energy            =      -0.0000000000000000 [Eh]
	 Same-Spin Energy          =      -0.3516822428472763 [Eh]
	 Opposite-Spin Energy      =      -1.0148049353501174 [Eh]
	 Correlation Energy        =      -1.3664871781973937 [Eh]
	 Total Energy              =    -377.8795934957956320 [Eh]

	 ================> DF-SCS-MP2 Energies <==================
	-----------------------------------------------------------
	 SCS Same-Spin Scale       =       0.3333333333333333 [-]
	 SCS Opposite-Spin Scale   =       1.2000000000000000 [-]
	 SCS Same-Spin Energy      =      -0.1172274142824254 [Eh]
	 SCS Opposite-Spin Energy  =      -1.2177659224201409 [Eh]
	 SCS Correlation Energy    =      -1.3349933367025664 [Eh]
	 SCS Total Energy          =    -377.8480996543007677 [Eh]
	-----------------------------------------------------------

  Dipole Moment: [D]
     X:     0.3690      Y:    -0.0447      Z:     0.0002     Total:     0.3717

*** Psi4 exiting successfully. Buy a developer a beer!
