                               Psi4 1.4a3.dev225

  ==> Input File <==

--------------------------------------------------------------------------
#psi4
#
memory 32 gb

molecule  {
0 1
  O        1.4609920    -0.9816210     0.0001000
  O       -1.4609920     0.9816210     0.0000780
  O        1.2129570     1.2831620    -0.0000550
  O       -1.2129570    -1.2831620    -0.0001280
  C        0.7582924     0.1432248     0.0000064
  C       -0.7476960    -0.1601870    -0.0000240
  H        2.4018370    -0.7064870     0.0001070
  H       -2.4018370     0.7064860     0.0000460
units angstrom
no_reorient  #important for SAPT in psi4, default
symmetry c1  #important for SAPT in psi4, default
}

set PROPERTIES_ORIGIN ["COM"]
properties('MP2/aug-cc-pvtz', properties = ['dipole'])
--------------------------------------------------------------------------

    Molecular point group: c1
  Charge       = 0
  Multiplicity = 1
  Basis Set: AUG-CC-PVTZ
    Blend: AUG-CC-PVTZ
  Basis Set: (AUG-CC-PVTZ AUX)
    Blend: AUG-CC-PVTZ-JKFIT

    Orbital Energies [Eh]
    ---------------------

    Doubly Occupied:

       1A    -20.651572     2A    -20.645349     3A    -20.592330
       4A    -20.589818     5A    -11.431858     6A    -11.430535
       7A     -1.510979     8A     -1.482386     9A     -1.399599
      10A     -1.383749    11A     -0.986052    12A     -0.849590
      13A     -0.750064    14A     -0.736466    15A     -0.719912
      16A     -0.684421    17A     -0.658411    18A     -0.634087
      19A     -0.608911    20A     -0.539366    21A     -0.510401
      22A     -0.507507    23A     -0.468576

  @DF-RHF Final Energy:  -376.51549210563746

   => Energetics <=

    Nuclear Repulsion Energy =            230.5992326904755600
    One-Electron Energy =                -974.6855718362002108
    Two-Electron Energy =                 367.5708470400871875
    Total Energy =                       -376.5154921056374633
  Basis Set: (AUG-CC-PVTZ AUX)
    Blend: AUG-CC-PVTZ-RI
    Molecular point group: c1

    Geometry (in Angstrom), charge = 0, multiplicity = 1:

       Center              X                  Y                   Z               Mass
    ------------   -----------------  -----------------  -----------------  -----------------
         O            1.459579073015    -0.979359244236     0.000101522050    15.994914619570
         O           -1.462404926985     0.983882755764     0.000079522050    15.994914619570
         O            1.211544073015     1.285423755764    -0.000053477950    15.994914619570
         O           -1.214369926985    -1.280900244236    -0.000126477950    15.994914619570
         C            0.756879473015     0.145486555764     0.000007922050    12.000000000000
         C           -0.749108926985    -0.157925244236    -0.000022477950    12.000000000000
         H            2.400424073015    -0.704225244236     0.000108522050     1.007825032230
         H           -2.403249926985     0.708747755764     0.000047522050     1.007825032230

  Basis Set: AUG-CC-PVTZ
    Blend: AUG-CC-PVTZ
  Basis Set: (AUG-CC-PVTZ AUX)
    Blend: AUG-CC-PVTZ-JKFIT
	 Reference Energy          =    -376.5154921056374633 [Eh]
	 Singles Energy            =      -0.0000000000000000 [Eh]
	 Same-Spin Energy          =      -0.3515599768872484 [Eh]
	 Opposite-Spin Energy      =      -1.0144510181749711 [Eh]
	 Correlation Energy        =      -1.3660109950622195 [Eh]
	 Total Energy              =    -377.8815031006996605 [Eh]

	 ================> DF-SCS-MP2 Energies <==================
	-----------------------------------------------------------
	 SCS Same-Spin Scale       =       0.3333333333333333 [-]
	 SCS Opposite-Spin Scale   =       1.2000000000000000 [-]
	 SCS Same-Spin Energy      =      -0.1171866589624161 [Eh]
	 SCS Opposite-Spin Energy  =      -1.2173412218099653 [Eh]
	 SCS Correlation Energy    =      -1.3345278807723815 [Eh]
	 SCS Total Energy          =    -377.8500199864098477 [Eh]
	-----------------------------------------------------------

  Dipole Moment: [D]
     X:     0.0821      Y:    -0.1389      Z:     0.0002     Total:     0.1613

*** Psi4 exiting successfully. Buy a developer a beer!
