                               Psi4 1.3.2 release

  ==> Input File <==

--------------------------------------------------------------------------
#psi4
#
memory 32 gb

molecule  {
0 1
  O        1.4608160    -0.9817270     0.0002400
  O       -1.4608130     0.9817270     0.0002230
  O        1.2132250     1.2829860    -0.0000330
  O       -1.2132270    -1.2829860    -0.0001300
  C        0.6417505     0.3297624    -0.0004055
  C       -0.7476940    -0.1601270    -0.0002390
  H        2.4016800    -0.7069230     0.0005270
  H       -2.4016780     0.7069260     0.0004400
units angstrom
no_reorient  #important for SAPT in psi4, default
symmetry c1  #important for SAPT in psi4, default
}

set PROPERTIES_ORIGIN ["COM"]
properties('MP2/aug-cc-pvtz', properties = ['dipole'])
--------------------------------------------------------------------------

    Molecular point group: c1
  Charge       = 0
  Multiplicity = 1
  Basis Set: AUG-CC-PVTZ
    Blend: AUG-CC-PVTZ
  Basis Set: (AUG-CC-PVTZ AUX)
    Blend: AUG-CC-PVTZ-JKFIT

    Orbital Energies [Eh]
    ---------------------

    Doubly Occupied:

       1A    -20.654424     2A    -20.627577     3A    -20.606017
       4A    -20.585143     5A    -11.442799     6A    -11.430260
       7A     -1.542509     8A     -1.501507     9A     -1.405212
      10A     -1.338249    11A     -1.016098    12A     -0.818796
      13A     -0.760521    14A     -0.754378    15A     -0.699518
      16A     -0.696196    17A     -0.656862    18A     -0.631855
      19A     -0.618789    20A     -0.541825    21A     -0.522467
      22A     -0.501224    23A     -0.467777

  @DF-RHF Final Energy:  -376.47122986200191

   => Energetics <=

    Nuclear Repulsion Energy =            231.1764536753905759
    One-Electron Energy =                -975.6553630389221325
    Two-Electron Energy =                 368.0076795015296511
    Total Energy =                       -376.4712298620019055
  Basis Set: (AUG-CC-PVTZ AUX)
    Blend: AUG-CC-PVTZ-RI
    Molecular point group: c1

    Geometry (in Angstrom), charge = 0, multiplicity = 1:

       Center              X                  Y                   Z               Mass
    ------------   -----------------  -----------------  -----------------  -----------------
         O            1.474942336250    -1.004346266009     0.000261789567    15.994914619570
         O           -1.446686663750     0.959107733991     0.000244789567    15.994914619570
         O            1.227351336250     1.260366733991    -0.000011210433    15.994914619570
         O           -1.199100663750    -1.305605266009    -0.000108210433    15.994914619570
         C            0.655876836250     0.307143133991    -0.000383710433    12.000000000000
         C           -0.733567663750    -0.182746266009    -0.000217210433    12.000000000000
         H            2.415806336250    -0.729542266009     0.000548789567     1.007825032230
         H           -2.387551663750     0.684306733991     0.000461789567     1.007825032230

  Basis Set: AUG-CC-PVTZ
    Blend: AUG-CC-PVTZ
  Basis Set: (AUG-CC-PVTZ AUX)
    Blend: AUG-CC-PVTZ-JKFIT
	 Reference Energy          =    -376.4712298620019055 [Eh]
	 Singles Energy            =      -0.0000000000000000 [Eh]
	 Same-Spin Energy          =      -0.3522333147282128 [Eh]
	 Opposite-Spin Energy      =      -1.0173838911616488 [Eh]
	 Correlation Energy        =      -1.3696172058898617 [Eh]
	 Total Energy              =    -377.8408470678917865 [Eh]

	 ================> DF-SCS-MP2 Energies <==================
	-----------------------------------------------------------
	 SCS Same-Spin Scale       =       0.3333333333333333 [-]
	 SCS Opposite-Spin Scale   =       1.2000000000000000 [-]
	 SCS Same-Spin Energy      =      -0.1174111049094043 [Eh]
	 SCS Opposite-Spin Energy  =      -1.2208606693939785 [Eh]
	 SCS Correlation Energy    =      -1.3382717743033827 [Eh]
	 SCS Total Energy          =    -377.8095016363052991 [Eh]
	-----------------------------------------------------------

  Dipole Moment: [D]
     X:    -0.9514      Y:     1.4604      Z:    -0.0003     Total:     1.7430

*** Psi4 exiting successfully. Buy a developer a beer!
