                               Psi4 1.3.2 release

  ==> Input File <==

--------------------------------------------------------------------------
#psi4
#
memory 32 gb

molecule  {
0 1
  O        1.4608160    -0.9817270     0.0002400
  O       -1.4608130     0.9817270     0.0002230
  O        1.1935575     1.2909396    -0.0000282
  O       -1.2132270    -1.2829860    -0.0001300
  C        0.7476930     0.1601270    -0.0003220
  C       -0.7476940    -0.1601270    -0.0002390
  H        2.4016800    -0.7069230     0.0005270
  H       -2.4016780     0.7069260     0.0004400
units angstrom
no_reorient  #important for SAPT in psi4, default
symmetry c1  #important for SAPT in psi4, default
}

set PROPERTIES_ORIGIN ["COM"]
properties('MP2/aug-cc-pvtz', properties = ['dipole'])
--------------------------------------------------------------------------

    Molecular point group: c1
  Charge       = 0
  Multiplicity = 1
  Basis Set: AUG-CC-PVTZ
    Blend: AUG-CC-PVTZ
  Basis Set: (AUG-CC-PVTZ AUX)
    Blend: AUG-CC-PVTZ-JKFIT

    Orbital Energies [Eh]
    ---------------------

    Doubly Occupied:

       1A    -20.647494     2A    -20.645051     3A    -20.593719
       4A    -20.592431     5A    -11.431432     6A    -11.429935
       7A     -1.508018     8A     -1.478775     9A     -1.402938
      10A     -1.385777    11A     -0.987131    12A     -0.845527
      13A     -0.748178    14A     -0.736940    15A     -0.718271
      16A     -0.683067    17A     -0.658126    18A     -0.631230
      19A     -0.611431    20A     -0.541373    21A     -0.511992
      22A     -0.510047    23A     -0.469458

  @DF-RHF Final Energy:  -376.51602521443959

   => Energetics <=

    Nuclear Repulsion Energy =            230.7117913208511482
    One-Electron Energy =                -974.9189484068477896
    Two-Electron Energy =                 367.6911318715570474
    Total Energy =                       -376.5160252144395940
  Basis Set: (AUG-CC-PVTZ AUX)
    Blend: AUG-CC-PVTZ-RI
    Molecular point group: c1

    Geometry (in Angstrom), charge = 0, multiplicity = 1:

       Center              X                  Y                   Z               Mass
    ------------   -----------------  -----------------  -----------------  -----------------
         O            1.464311448572    -0.983140631204     0.000249802547    15.994914619570
         O           -1.457317551428     0.980313368796     0.000232802547    15.994914619570
         O            1.197052948572     1.289525968796    -0.000018397453    15.994914619570
         O           -1.209731551428    -1.284399631204    -0.000120197453    15.994914619570
         C            0.751188448572     0.158713368796    -0.000312197453    12.000000000000
         C           -0.744198551428    -0.161540631204    -0.000229197453    12.000000000000
         H            2.405175448572    -0.708336631204     0.000536802547     1.007825032230
         H           -2.398182551428     0.705512368796     0.000449802547     1.007825032230

  Basis Set: AUG-CC-PVTZ
    Blend: AUG-CC-PVTZ
  Basis Set: (AUG-CC-PVTZ AUX)
    Blend: AUG-CC-PVTZ-JKFIT
	 Reference Energy          =    -376.5160252144395940 [Eh]
	 Singles Energy            =      -0.0000000000000000 [Eh]
	 Same-Spin Energy          =      -0.3515074534773903 [Eh]
	 Opposite-Spin Energy      =      -1.0145104282811679 [Eh]
	 Correlation Energy        =      -1.3660178817585582 [Eh]
	 Total Energy              =    -377.8820430961981742 [Eh]

	 ================> DF-SCS-MP2 Energies <==================
	-----------------------------------------------------------
	 SCS Same-Spin Scale       =       0.3333333333333333 [-]
	 SCS Opposite-Spin Scale   =       1.2000000000000000 [-]
	 SCS Same-Spin Energy      =      -0.1171691511591301 [Eh]
	 SCS Opposite-Spin Energy  =      -1.2174125139374015 [Eh]
	 SCS Correlation Energy    =      -1.3345816650965316 [Eh]
	 SCS Total Energy          =    -377.8506068795361443 [Eh]
	-----------------------------------------------------------

  Dipole Moment: [D]
     X:     0.0612      Y:    -0.0096      Z:     0.0002     Total:     0.0620

*** Psi4 exiting successfully. Buy a developer a beer!
