                               Psi4 1.3.2 release

  ==> Input File <==

--------------------------------------------------------------------------
#psi4
#
memory 32 gb

molecule  {
0 1
  O        1.4608160    -0.9817270     0.0002400
  O       -1.4608130     0.9817270     0.0002230
  O        1.2132250     1.2829860    -0.0000330
  O       -1.2132270    -1.2829860    -0.0001300
  C        0.7476930     0.1601270    -0.0003220
  C       -0.7476940    -0.1601270    -0.0002390
  H        2.3056906    -0.7349592     0.0004977
  H       -2.4016780     0.7069260     0.0004400
units angstrom
no_reorient  #important for SAPT in psi4, default
symmetry c1  #important for SAPT in psi4, default
}

set PROPERTIES_ORIGIN ["COM"]
properties('MP2/aug-cc-pvtz', properties = ['dipole'])
--------------------------------------------------------------------------

    Molecular point group: c1
  Charge       = 0
  Multiplicity = 1
  Basis Set: AUG-CC-PVTZ
    Blend: AUG-CC-PVTZ
  Basis Set: (AUG-CC-PVTZ AUX)
    Blend: AUG-CC-PVTZ-JKFIT

    Orbital Energies [Eh]
    ---------------------

    Doubly Occupied:

       1A    -20.646673     2A    -20.638871     3A    -20.595940
       4A    -20.594358     5A    -11.433635     6A    -11.431969
       7A     -1.518925     8A     -1.487643     9A     -1.408289
      10A     -1.390831    11A     -0.997306    12A     -0.861026
      13A     -0.750736    14A     -0.741922    15A     -0.725209
      16A     -0.685499    17A     -0.662796    18A     -0.634211
      19A     -0.617138    20A     -0.542975    21A     -0.514536
      22A     -0.511810    23A     -0.471903

  @DF-RHF Final Energy:  -376.51149217921375

   => Energetics <=

    Nuclear Repulsion Energy =            231.2858274822968099
    One-Electron Energy =                -975.8662353733269583
    Two-Electron Energy =                 368.0689157118164303
    Total Energy =                       -376.5114921792137466
  Basis Set: (AUG-CC-PVTZ AUX)
    Blend: AUG-CC-PVTZ-RI
    Molecular point group: c1

    Geometry (in Angstrom), charge = 0, multiplicity = 1:

       Center              X                  Y                   Z               Mass
    ------------   -----------------  -----------------  -----------------  -----------------
         O            1.461890883915    -0.981413066294     0.000250983773    15.994914619570
         O           -1.459738116085     0.982040933706     0.000233983773    15.994914619570
         O            1.214299883915     1.283299933706    -0.000022016227    15.994914619570
         O           -1.212152116085    -1.282672066294    -0.000119016227    15.994914619570
         C            0.748767883915     0.160440933706    -0.000311016227    12.000000000000
         C           -0.746619116085    -0.159813066294    -0.000228016227    12.000000000000
         H            2.306765483915    -0.734645266294     0.000508683773     1.007825032230
         H           -2.400603116085     0.707239933706     0.000450983773     1.007825032230

  Basis Set: AUG-CC-PVTZ
    Blend: AUG-CC-PVTZ
  Basis Set: (AUG-CC-PVTZ AUX)
    Blend: AUG-CC-PVTZ-JKFIT
	 Reference Energy          =    -376.5114921792137466 [Eh]
	 Singles Energy            =      -0.0000000000000000 [Eh]
	 Same-Spin Energy          =      -0.3502507032056491 [Eh]
	 Opposite-Spin Energy      =      -1.0117553667454071 [Eh]
	 Correlation Energy        =      -1.3620060699510561 [Eh]
	 Total Energy              =    -377.8734982491648111 [Eh]

	 ================> DF-SCS-MP2 Energies <==================
	-----------------------------------------------------------
	 SCS Same-Spin Scale       =       0.3333333333333333 [-]
	 SCS Opposite-Spin Scale   =       1.2000000000000000 [-]
	 SCS Same-Spin Energy      =      -0.1167502344018830 [Eh]
	 SCS Opposite-Spin Energy  =      -1.2141064400944885 [Eh]
	 SCS Correlation Energy    =      -1.3308566744963715 [Eh]
	 SCS Total Energy          =    -377.8423488537101207 [Eh]
	-----------------------------------------------------------

  Dipole Moment: [D]
     X:    -0.1434      Y:     0.0140      Z:     0.0001     Total:     0.1440

*** Psi4 exiting successfully. Buy a developer a beer!
