                               Psi4 1.3.2 release

  ==> Input File <==

--------------------------------------------------------------------------
#psi4
#
memory 32 gb

molecule  {
0 1
  O        1.4608160    -0.9817270     0.0002400
  O       -1.4608130     0.9817270     0.0002230
  O        1.2132250     1.2829860    -0.0000330
  O       -1.2132270    -1.2829860    -0.0001300
  C        0.7859914     0.2525025    -0.0002982
  C       -0.7476940    -0.1601270    -0.0002390
  H        2.4016800    -0.7069230     0.0005270
  H       -2.4016780     0.7069260     0.0004400
units angstrom
no_reorient  #important for SAPT in psi4, default
symmetry c1  #important for SAPT in psi4, default
}

set PROPERTIES_ORIGIN ["COM"]
properties('MP2/aug-cc-pvtz', properties = ['dipole'])
--------------------------------------------------------------------------

    Molecular point group: c1
  Charge       = 0
  Multiplicity = 1
  Basis Set: AUG-CC-PVTZ
    Blend: AUG-CC-PVTZ
  Basis Set: (AUG-CC-PVTZ AUX)
    Blend: AUG-CC-PVTZ-JKFIT

    Orbital Energies [Eh]
    ---------------------

    Doubly Occupied:

       1A    -20.642490     2A    -20.627581     3A    -20.608499
       4A    -20.587941     5A    -11.426072     6A    -11.422870
       7A     -1.532992     8A     -1.485167     9A     -1.410294
      10A     -1.384814    11A     -0.964617    12A     -0.826708
      13A     -0.754765    14A     -0.742607    15A     -0.712569
      16A     -0.686839    17A     -0.659552    18A     -0.633727
      19A     -0.615641    20A     -0.550080    21A     -0.533820
      22A     -0.506353    23A     -0.459392

  @DF-RHF Final Energy:  -376.50423351948263

   => Energetics <=

    Nuclear Repulsion Energy =            230.8287089564035739
    One-Electron Energy =                -975.1151008583830162
    Two-Electron Energy =                 367.7821583824967888
    Total Energy =                       -376.5042335194826251
  Basis Set: (AUG-CC-PVTZ AUX)
    Blend: AUG-CC-PVTZ-RI
    Molecular point group: c1

    Geometry (in Angstrom), charge = 0, multiplicity = 1:

       Center              X                  Y                   Z               Mass
    ------------   -----------------  -----------------  -----------------  -----------------
         O            1.455709213680    -0.994044409001     0.000247482155    15.994914619570
         O           -1.465919786320     0.969409590999     0.000230482155    15.994914619570
         O            1.208118213680     1.270668590999    -0.000025517845    15.994914619570
         O           -1.218333786320    -1.295303409001    -0.000122517845    15.994914619570
         C            0.780884613680     0.240185090999    -0.000290717845    12.000000000000
         C           -0.752800786320    -0.172444409001    -0.000231517845    12.000000000000
         H            2.396573213680    -0.719240409001     0.000534482155     1.007825032230
         H           -2.406784786320     0.694608590999     0.000447482155     1.007825032230

  Basis Set: AUG-CC-PVTZ
    Blend: AUG-CC-PVTZ
  Basis Set: (AUG-CC-PVTZ AUX)
    Blend: AUG-CC-PVTZ-JKFIT
	 Reference Energy          =    -376.5042335194826251 [Eh]
	 Singles Energy            =      -0.0000000000000000 [Eh]
	 Same-Spin Energy          =      -0.3498772967848451 [Eh]
	 Opposite-Spin Energy      =      -1.0111260919077121 [Eh]
	 Correlation Energy        =      -1.3610033886925572 [Eh]
	 Total Energy              =    -377.8652369081751772 [Eh]

	 ================> DF-SCS-MP2 Energies <==================
	-----------------------------------------------------------
	 SCS Same-Spin Scale       =       0.3333333333333333 [-]
	 SCS Opposite-Spin Scale   =       1.2000000000000000 [-]
	 SCS Same-Spin Energy      =      -0.1166257655949484 [Eh]
	 SCS Opposite-Spin Energy  =      -1.2133513102892544 [Eh]
	 SCS Correlation Energy    =      -1.3299770758842027 [Eh]
	 SCS Total Energy          =    -377.8342105953668124 [Eh]
	-----------------------------------------------------------

  Dipole Moment: [D]
     X:     0.0664      Y:     0.7083      Z:     0.0001     Total:     0.7114

*** Psi4 exiting successfully. Buy a developer a beer!
