                               Psi4 1.3.2 release

  ==> Input File <==

--------------------------------------------------------------------------
#psi4
#
memory 32 gb

molecule  {
0 1
  O        1.4608160    -0.9817270     0.0002400
  O       -1.4608130     0.9817270     0.0002230
  O        1.2132250     1.2829860    -0.0000330
  O       -1.2132270    -1.2829860    -0.0001300
  C        0.6322433     0.0793301    -0.0003452
  C       -0.7476940    -0.1601270    -0.0002390
  H        2.4016800    -0.7069230     0.0005270
  H       -2.4016780     0.7069260     0.0004400
units angstrom
no_reorient  #important for SAPT in psi4, default
symmetry c1  #important for SAPT in psi4, default
}

set PROPERTIES_ORIGIN ["COM"]
properties('MP2/aug-cc-pvtz', properties = ['dipole'])
--------------------------------------------------------------------------

    Molecular point group: c1
  Charge       = 0
  Multiplicity = 1
  Basis Set: AUG-CC-PVTZ
    Blend: AUG-CC-PVTZ
  Basis Set: (AUG-CC-PVTZ AUX)
    Blend: AUG-CC-PVTZ-JKFIT

    Orbital Energies [Eh]
    ---------------------

    Doubly Occupied:

       1A    -20.652690     2A    -20.649690     3A    -20.606675
       4A    -20.587395     5A    -11.441357     6A    -11.436618
       7A     -1.513658     8A     -1.472278     9A     -1.406135
      10A     -1.329424    11A     -1.040714    12A     -0.858357
      13A     -0.758146    14A     -0.743555    15A     -0.715317
      16A     -0.690275    17A     -0.652778    18A     -0.624710
      19A     -0.601823    20A     -0.529579    21A     -0.519145
      22A     -0.479038    23A     -0.473915

  @DF-RHF Final Energy:  -376.47137942019822

   => Energetics <=

    Nuclear Repulsion Energy =            230.8583721168519958
    One-Electron Energy =                -975.0929620318132720
    Two-Electron Energy =                 367.7632104947630296
    Total Energy =                       -376.4713794201982182
  Basis Set: (AUG-CC-PVTZ AUX)
    Blend: AUG-CC-PVTZ-RI
    Molecular point group: c1

    Geometry (in Angstrom), charge = 0, multiplicity = 1:

       Center              X                  Y                   Z               Mass
    ------------   -----------------  -----------------  -----------------  -----------------
         O            1.476210028998    -0.970953552003     0.000253749148    15.994914619570
         O           -1.445418971002     0.992500447997     0.000236749148    15.994914619570
         O            1.228619028998     1.293759447997    -0.000019250852    15.994914619570
         O           -1.197832971002    -1.272212552003    -0.000116250852    15.994914619570
         C            0.647637328998     0.090103547997    -0.000331450852    12.000000000000
         C           -0.732299971002    -0.149353552003    -0.000225250852    12.000000000000
         H            2.417074028998    -0.696149552003     0.000540749148     1.007825032230
         H           -2.386283971002     0.717699447997     0.000453749148     1.007825032230

  Basis Set: AUG-CC-PVTZ
    Blend: AUG-CC-PVTZ
  Basis Set: (AUG-CC-PVTZ AUX)
    Blend: AUG-CC-PVTZ-JKFIT
	 Reference Energy          =    -376.4713794201982182 [Eh]
	 Singles Energy            =      -0.0000000000000000 [Eh]
	 Same-Spin Energy          =      -0.3557916118870862 [Eh]
	 Opposite-Spin Energy      =      -1.0244483743103263 [Eh]
	 Correlation Energy        =      -1.3802399861974126 [Eh]
	 Total Energy              =    -377.8516194063956277 [Eh]

	 ================> DF-SCS-MP2 Energies <==================
	-----------------------------------------------------------
	 SCS Same-Spin Scale       =       0.3333333333333333 [-]
	 SCS Opposite-Spin Scale   =       1.2000000000000000 [-]
	 SCS Same-Spin Energy      =      -0.1185972039623621 [Eh]
	 SCS Opposite-Spin Energy  =      -1.2293380491723915 [Eh]
	 SCS Correlation Energy    =      -1.3479352531347537 [Eh]
	 SCS Total Energy          =    -377.8193146733329968 [Eh]
	-----------------------------------------------------------

  Dipole Moment: [D]
     X:    -0.3036      Y:    -0.3101      Z:     0.0003     Total:     0.4340

*** Psi4 exiting successfully. Buy a developer a beer!
