                               Psi4 1.3.2 release

  ==> Input File <==

--------------------------------------------------------------------------
#psi4
#
memory 32 gb

molecule  {
0 1
  O        1.4608160    -0.9817270     0.0002400
  O       -1.4608130     0.9817270     0.0002230
  O        1.2327507     1.2746903    -0.0000379
  O       -1.2132270    -1.2829860    -0.0001300
  C        0.7476930     0.1601270    -0.0003220
  C       -0.7476940    -0.1601270    -0.0002390
  H        2.4016800    -0.7069230     0.0005270
  H       -2.4016780     0.7069260     0.0004400
units angstrom
no_reorient  #important for SAPT in psi4, default
symmetry c1  #important for SAPT in psi4, default
}

set PROPERTIES_ORIGIN ["COM"]
properties('MP2/aug-cc-pvtz', properties = ['dipole'])
--------------------------------------------------------------------------

    Molecular point group: c1
  Charge       = 0
  Multiplicity = 1
  Basis Set: AUG-CC-PVTZ
    Blend: AUG-CC-PVTZ
  Basis Set: (AUG-CC-PVTZ AUX)
    Blend: AUG-CC-PVTZ-JKFIT

    Orbital Energies [Eh]
    ---------------------

    Doubly Occupied:

       1A    -20.646797     2A    -20.644340     3A    -20.594363
       4A    -20.593066     5A    -11.432622     6A    -11.431136
       7A     -1.508599     8A     -1.479875     9A     -1.402197
      10A     -1.385217    11A     -0.988750    12A     -0.845308
      13A     -0.748466    14A     -0.737526    15A     -0.717805
      16A     -0.683295    17A     -0.658493    18A     -0.631569
      19A     -0.612544    20A     -0.540915    21A     -0.511975
      22A     -0.509937    23A     -0.470913

  @DF-RHF Final Energy:  -376.51602770087464

   => Energetics <=

    Nuclear Repulsion Energy =            230.5516766707067120
    One-Electron Energy =                -974.5839934253664296
    Two-Electron Energy =                 367.5162890537851013
    Total Energy =                       -376.5160277008746448
  Basis Set: (AUG-CC-PVTZ AUX)
    Blend: AUG-CC-PVTZ-RI
    Molecular point group: c1

    Geometry (in Angstrom), charge = 0, multiplicity = 1:

       Center              X                  Y                   Z               Mass
    ------------   -----------------  -----------------  -----------------  -----------------
         O            1.457345620043    -0.980252634370     0.000251526533    15.994914619570
         O           -1.464283379957     0.983201365630     0.000234526533    15.994914619570
         O            1.229280320043     1.276164665630    -0.000026373467    15.994914619570
         O           -1.216697379957    -1.281511634370    -0.000118473467    15.994914619570
         C            0.744222620043     0.161601365630    -0.000310473467    12.000000000000
         C           -0.751164379957    -0.158652634370    -0.000227473467    12.000000000000
         H            2.398209620043    -0.705448634370     0.000538526533     1.007825032230
         H           -2.405148379957     0.708400365630     0.000451526533     1.007825032230

  Basis Set: AUG-CC-PVTZ
    Blend: AUG-CC-PVTZ
  Basis Set: (AUG-CC-PVTZ AUX)
    Blend: AUG-CC-PVTZ-JKFIT
	 Reference Energy          =    -376.5160277008746448 [Eh]
	 Singles Energy            =      -0.0000000000000000 [Eh]
	 Same-Spin Energy          =      -0.3514810795280291 [Eh]
	 Opposite-Spin Energy      =      -1.0144700825871094 [Eh]
	 Correlation Energy        =      -1.3659511621151386 [Eh]
	 Total Energy              =    -377.8819788629897971 [Eh]

	 ================> DF-SCS-MP2 Energies <==================
	-----------------------------------------------------------
	 SCS Same-Spin Scale       =       0.3333333333333333 [-]
	 SCS Opposite-Spin Scale   =       1.2000000000000000 [-]
	 SCS Same-Spin Energy      =      -0.1171603598426764 [Eh]
	 SCS Opposite-Spin Energy  =      -1.2173640991045311 [Eh]
	 SCS Correlation Energy    =      -1.3345244589472076 [Eh]
	 SCS Total Energy          =    -377.8505521598218593 [Eh]
	-----------------------------------------------------------

  Dipole Moment: [D]
     X:    -0.0611      Y:     0.0105      Z:     0.0002     Total:     0.0620

*** Psi4 exiting successfully. Buy a developer a beer!
