                               Psi4 1.4a3.dev225

  ==> Input File <==

--------------------------------------------------------------------------
#psi4
#
memory 32 gb

molecule  {
0 1
  O        1.4609920    -0.9816210     0.0001000
  O       -1.4609920     0.9816210     0.0000780
  O        1.2129570     1.2831620    -0.0000550
  O       -1.2129570    -1.2831620    -0.0001280
  C        0.7476960     0.1601870     0.0000050
  C       -0.7476960    -0.1601870    -0.0000240
  H        2.3826410    -0.7121006     0.0001069
  H       -2.4018370     0.7064860     0.0000460
units angstrom
no_reorient  #important for SAPT in psi4, default
symmetry c1  #important for SAPT in psi4, default
}

set PROPERTIES_ORIGIN ["COM"]
properties('MP2/aug-cc-pvtz', properties = ['dipole'])
--------------------------------------------------------------------------

    Molecular point group: c1
  Charge       = 0
  Multiplicity = 1
  Basis Set: AUG-CC-PVTZ
    Blend: AUG-CC-PVTZ
  Basis Set: (AUG-CC-PVTZ AUX)
    Blend: AUG-CC-PVTZ-JKFIT

    Orbital Energies [Eh]
    ---------------------

    Doubly Occupied:

       1A    -20.646089     2A    -20.644718     3A    -20.593907
       4A    -20.593598     5A    -11.431914     6A    -11.431256
       7A     -1.509736     8A     -1.481041     9A     -1.403442
      10A     -1.386821    11A     -0.989548    12A     -0.848313
      13A     -0.748779    14A     -0.738018    15A     -0.719724
      16A     -0.683602    17A     -0.659237    18A     -0.631948
      19A     -0.613154    20A     -0.541532    21A     -0.512035
      22A     -0.510822    23A     -0.470542

  @DF-RHF Final Energy:  -376.51698232756542

   => Energetics <=

    Nuclear Repulsion Energy =            230.7476697363483993
    One-Electron Energy =                -974.9497481054816035
    Two-Electron Energy =                 367.6850960415678173
    Total Energy =                       -376.5169823275654153
  Basis Set: (AUG-CC-PVTZ AUX)
    Blend: AUG-CC-PVTZ-RI
    Molecular point group: c1

    Geometry (in Angstrom), charge = 0, multiplicity = 1:

       Center              X                  Y                   Z               Mass
    ------------   -----------------  -----------------  -----------------  -----------------
         O            1.461206969087    -0.981558124118     0.000101709846    15.994914619570
         O           -1.460777030913     0.981683875882     0.000079709846    15.994914619570
         O            1.213171969087     1.283224875882    -0.000053290154    15.994914619570
         O           -1.212742030913    -1.283099124118    -0.000126290154    15.994914619570
         C            0.747910969087     0.160249875882     0.000006709846    12.000000000000
         C           -0.747481030913    -0.160124124118    -0.000022290154    12.000000000000
         H            2.382855969087    -0.712037724118     0.000108609846     1.007825032230
         H           -2.401622030913     0.706548875882     0.000047709846     1.007825032230

  Basis Set: AUG-CC-PVTZ
    Blend: AUG-CC-PVTZ
  Basis Set: (AUG-CC-PVTZ AUX)
    Blend: AUG-CC-PVTZ-JKFIT
	 Reference Energy          =    -376.5169823275654153 [Eh]
	 Singles Energy            =      -0.0000000000000000 [Eh]
	 Same-Spin Energy          =      -0.3512440393647470 [Eh]
	 Opposite-Spin Energy      =      -1.0139232324082432 [Eh]
	 Correlation Energy        =      -1.3651672717729904 [Eh]
	 Total Energy              =    -377.8821495993383905 [Eh]

	 ================> DF-SCS-MP2 Energies <==================
	-----------------------------------------------------------
	 SCS Same-Spin Scale       =       0.3333333333333333 [-]
	 SCS Opposite-Spin Scale   =       1.2000000000000000 [-]
	 SCS Same-Spin Energy      =      -0.1170813464549157 [Eh]
	 SCS Opposite-Spin Energy  =      -1.2167078788898917 [Eh]
	 SCS Correlation Energy    =      -1.3337892253448074 [Eh]
	 SCS Total Energy          =    -377.8507715529102029 [Eh]
	-----------------------------------------------------------

  Dipole Moment: [D]
     X:    -0.0286      Y:     0.0020      Z:     0.0002     Total:     0.0286

*** Psi4 exiting successfully. Buy a developer a beer!
