                               Psi4 1.3.2 release

  ==> Input File <==

--------------------------------------------------------------------------
#psi4
#
memory 32 gb

molecule  {
0 1
  O        1.4608160    -0.9817270     0.0002400
  O       -1.4608130     0.9817270     0.0002230
  O        1.2132250     1.2829860    -0.0000330
  O       -1.2132270    -1.2829860    -0.0001300
  C        0.7476930     0.1601270    -0.0003220
  C       -0.7476940    -0.1601270    -0.0002390
  H        2.2097012    -0.7629955     0.0004684
  H       -2.4016780     0.7069260     0.0004400
units angstrom
no_reorient  #important for SAPT in psi4, default
symmetry c1  #important for SAPT in psi4, default
}

set PROPERTIES_ORIGIN ["COM"]
properties('MP2/aug-cc-pvtz', properties = ['dipole'])
--------------------------------------------------------------------------

    Molecular point group: c1
  Charge       = 0
  Multiplicity = 1
  Basis Set: AUG-CC-PVTZ
    Blend: AUG-CC-PVTZ
  Basis Set: (AUG-CC-PVTZ AUX)
    Blend: AUG-CC-PVTZ-JKFIT

    Orbital Energies [Eh]
    ---------------------

    Doubly Occupied:

       1A    -20.647460     2A    -20.629540     3A    -20.598597
       4A    -20.595349     5A    -11.435966     6A    -11.432817
       7A     -1.541376     8A     -1.493394     9A     -1.415923
      10A     -1.393982    11A     -1.009891    12A     -0.877613
      13A     -0.753241    14A     -0.747845    15A     -0.729486
      16A     -0.688097    17A     -0.666929    18A     -0.637118
      19A     -0.621063    20A     -0.544785    21A     -0.518193
      22A     -0.512725    23A     -0.473642

  @DF-RHF Final Energy:  -376.47218702413903

   => Energetics <=

    Nuclear Repulsion Energy =            232.0718060474823119
    One-Electron Energy =                -977.1579224007335824
    Two-Electron Energy =                 368.6139293291122954
    Total Energy =                       -376.4721870241390320
  Basis Set: (AUG-CC-PVTZ AUX)
    Blend: AUG-CC-PVTZ-RI
    Molecular point group: c1

    Geometry (in Angstrom), charge = 0, multiplicity = 1:

       Center              X                  Y                   Z               Mass
    ------------   -----------------  -----------------  -----------------  -----------------
         O            1.462965834618    -0.981099097873     0.000251311894    15.994914619570
         O           -1.458663165382     0.982354902127     0.000234311894    15.994914619570
         O            1.215374834618     1.283613902127    -0.000021688106    15.994914619570
         O           -1.211077165382    -1.282358097873    -0.000118688106    15.994914619570
         C            0.749842834618     0.160754902127    -0.000310688106    12.000000000000
         C           -0.745544165382    -0.159499097873    -0.000227688106    12.000000000000
         H            2.211851034618    -0.762367597873     0.000479711894     1.007825032230
         H           -2.399528165382     0.707553902127     0.000451311894     1.007825032230

  Basis Set: AUG-CC-PVTZ
    Blend: AUG-CC-PVTZ
  Basis Set: (AUG-CC-PVTZ AUX)
    Blend: AUG-CC-PVTZ-JKFIT
	 Reference Energy          =    -376.4721870241390320 [Eh]
	 Singles Energy            =      -0.0000000000000000 [Eh]
	 Same-Spin Energy          =      -0.3491018395482236 [Eh]
	 Opposite-Spin Energy      =      -1.0094020890162472 [Eh]
	 Correlation Energy        =      -1.3585039285644709 [Eh]
	 Total Energy              =    -377.8306909527034918 [Eh]

	 ================> DF-SCS-MP2 Energies <==================
	-----------------------------------------------------------
	 SCS Same-Spin Scale       =       0.3333333333333333 [-]
	 SCS Opposite-Spin Scale   =       1.2000000000000000 [-]
	 SCS Same-Spin Energy      =      -0.1163672798494079 [Eh]
	 SCS Opposite-Spin Energy  =      -1.2112825068194966 [Eh]
	 SCS Correlation Energy    =      -1.3276497866689043 [Eh]
	 SCS Total Energy          =    -377.7998368108079603 [Eh]
	-----------------------------------------------------------

  Dipole Moment: [D]
     X:    -0.2860      Y:     0.0376      Z:     0.0001     Total:     0.2885

*** Psi4 exiting successfully. Buy a developer a beer!
