                               Psi4 1.3.2 release

  ==> Input File <==

--------------------------------------------------------------------------
#psi4
#
memory 32 gb

molecule  {
0 1
  O        1.4608160    -0.9817270     0.0002400
  O       -1.4608130     0.9817270     0.0002230
  O        1.2132250     1.2829860    -0.0000330
  O       -1.2132270    -1.2829860    -0.0001300
  C        0.8242899     0.3448780    -0.0002744
  C       -0.7476940    -0.1601270    -0.0002390
  H        2.4016800    -0.7069230     0.0005270
  H       -2.4016780     0.7069260     0.0004400
units angstrom
no_reorient  #important for SAPT in psi4, default
symmetry c1  #important for SAPT in psi4, default
}

set PROPERTIES_ORIGIN ["COM"]
properties('MP2/aug-cc-pvtz', properties = ['dipole'])
--------------------------------------------------------------------------

    Molecular point group: c1
  Charge       = 0
  Multiplicity = 1
  Basis Set: AUG-CC-PVTZ
    Blend: AUG-CC-PVTZ
  Basis Set: (AUG-CC-PVTZ AUX)
    Blend: AUG-CC-PVTZ-JKFIT

    Orbital Energies [Eh]
    ---------------------

    Doubly Occupied:

       1A    -20.638641     2A    -20.624990     3A    -20.607146
       4A    -20.581803     5A    -11.419070     6A    -11.413115
       7A     -1.613048     8A     -1.483190     9A     -1.390055
      10A     -1.374085    11A     -0.943165    12A     -0.813026
      13A     -0.774648    14A     -0.757228    15A     -0.720889
      16A     -0.715389    17A     -0.653588    18A     -0.640209
      19A     -0.614777    20A     -0.546994    21A     -0.533574
      22A     -0.501100    23A     -0.440828

  @DF-RHF Final Energy:  -376.43464576050781

   => Energetics <=

    Nuclear Repulsion Energy =            231.4145214800168162
    One-Electron Energy =                -976.0972140519313598
    Two-Electron Energy =                 368.2480468114067662
    Total Energy =                       -376.4346457605078058
  Basis Set: (AUG-CC-PVTZ AUX)
    Blend: AUG-CC-PVTZ-RI
    Molecular point group: c1

    Geometry (in Angstrom), charge = 0, multiplicity = 1:

       Center              X                  Y                   Z               Mass
    ------------   -----------------  -----------------  -----------------  -----------------
         O            1.450602480813    -1.006361784406     0.000244308656    15.994914619570
         O           -1.471026519187     0.957092215594     0.000227308656    15.994914619570
         O            1.203011480813     1.258351215594    -0.000028691344    15.994914619570
         O           -1.223440519187    -1.307620784406    -0.000125691344    15.994914619570
         C            0.814076380813     0.320243215594    -0.000270091344    12.000000000000
         C           -0.757907519187    -0.184761784406    -0.000234691344    12.000000000000
         H            2.391466480813    -0.731557784406     0.000531308656     1.007825032230
         H           -2.411891519187     0.682291215594     0.000444308656     1.007825032230

  Basis Set: AUG-CC-PVTZ
    Blend: AUG-CC-PVTZ
  Basis Set: (AUG-CC-PVTZ AUX)
    Blend: AUG-CC-PVTZ-JKFIT
	 Reference Energy          =    -376.4346457605078058 [Eh]
	 Singles Energy            =      -0.0000000000000000 [Eh]
	 Same-Spin Energy          =      -0.3487669135679070 [Eh]
	 Opposite-Spin Energy      =      -1.0088069254514493 [Eh]
	 Correlation Energy        =      -1.3575738390193564 [Eh]
	 Total Energy              =    -377.7922195995271863 [Eh]

	 ================> DF-SCS-MP2 Energies <==================
	-----------------------------------------------------------
	 SCS Same-Spin Scale       =       0.3333333333333333 [-]
	 SCS Opposite-Spin Scale   =       1.2000000000000000 [-]
	 SCS Same-Spin Energy      =      -0.1162556378559690 [Eh]
	 SCS Opposite-Spin Energy  =      -1.2105683105417391 [Eh]
	 SCS Correlation Energy    =      -1.3268239483977080 [Eh]
	 SCS Total Energy          =    -377.7614697089055085 [Eh]
	-----------------------------------------------------------

  Dipole Moment: [D]
     X:     0.1798      Y:     1.5251      Z:     0.0000     Total:     1.5357

*** Psi4 exiting successfully. Buy a developer a beer!
