                               Psi4 1.4a3.dev225

  ==> Input File <==

--------------------------------------------------------------------------
#psi4
#
memory 32 gb

molecule  {
0 1
  O        1.4609920    -0.9816210     0.0001000
  O       -1.4609920     0.9816210     0.0000780
  O        1.2129570     1.2831620    -0.0000550
  O       -1.2129570    -1.2831620    -0.0001280
  C        0.7476960     0.1601870     0.0000050
  C       -0.7281398    -0.1559973    -0.0000236
  H        2.4018370    -0.7064870     0.0001070
  H       -2.4018370     0.7064860     0.0000460
units angstrom
no_reorient  #important for SAPT in psi4, default
symmetry c1  #important for SAPT in psi4, default
}

set PROPERTIES_ORIGIN ["COM"]
properties('MP2/aug-cc-pvtz', properties = ['dipole'])
--------------------------------------------------------------------------

    Molecular point group: c1
  Charge       = 0
  Multiplicity = 1
  Basis Set: AUG-CC-PVTZ
    Blend: AUG-CC-PVTZ
  Basis Set: (AUG-CC-PVTZ AUX)
    Blend: AUG-CC-PVTZ-JKFIT

    Orbital Energies [Eh]
    ---------------------

    Doubly Occupied:

       1A    -20.647252     2A    -20.644306     3A    -20.595671
       4A    -20.593659     5A    -11.433053     6A    -11.432344
       7A     -1.507608     8A     -1.476926     9A     -1.401186
      10A     -1.381752    11A     -0.995498    12A     -0.845679
      13A     -0.748193    14A     -0.737178    15A     -0.717920
      16A     -0.683294    17A     -0.656909    18A     -0.629419
      19A     -0.613224    20A     -0.539825    21A     -0.512425
      22A     -0.507274    23A     -0.473028

  @DF-RHF Final Energy:  -376.51364251769098

   => Energetics <=

    Nuclear Repulsion Energy =            230.6459029440209179
    One-Electron Energy =                -974.7718406485666947
    Two-Electron Energy =                 367.6122951868547943
    Total Energy =                       -376.5136425176909825
  Basis Set: (AUG-CC-PVTZ AUX)
    Blend: AUG-CC-PVTZ-RI
    Molecular point group: c1

    Geometry (in Angstrom), charge = 0, multiplicity = 1:

       Center              X                  Y                   Z               Mass
    ------------   -----------------  -----------------  -----------------  -----------------
         O            1.458384370738    -0.982179644589     0.000101655390    15.994914619570
         O           -1.463599629262     0.981062355411     0.000079655390    15.994914619570
         O            1.210349370738     1.282603355411    -0.000053344610    15.994914619570
         O           -1.215564629262    -1.283720644589    -0.000126344610    15.994914619570
         C            0.745088370738     0.159628355411     0.000006655390    12.000000000000
         C           -0.730747429262    -0.156555944589    -0.000021944610    12.000000000000
         H            2.399229370738    -0.707045644589     0.000108655390     1.007825032230
         H           -2.404444629262     0.705927355411     0.000047655390     1.007825032230

  Basis Set: AUG-CC-PVTZ
    Blend: AUG-CC-PVTZ
  Basis Set: (AUG-CC-PVTZ AUX)
    Blend: AUG-CC-PVTZ-JKFIT
	 Reference Energy          =    -376.5136425176909825 [Eh]
	 Singles Energy            =      -0.0000000000000000 [Eh]
	 Same-Spin Energy          =      -0.3519094092001215 [Eh]
	 Opposite-Spin Energy      =      -1.0155404283595502 [Eh]
	 Correlation Energy        =      -1.3674498375596718 [Eh]
	 Total Energy              =    -377.8810923552506438 [Eh]

	 ================> DF-SCS-MP2 Energies <==================
	-----------------------------------------------------------
	 SCS Same-Spin Scale       =       0.3333333333333333 [-]
	 SCS Opposite-Spin Scale   =       1.2000000000000000 [-]
	 SCS Same-Spin Energy      =      -0.1173031364000405 [Eh]
	 SCS Opposite-Spin Energy  =      -1.2186485140314602 [Eh]
	 SCS Correlation Energy    =      -1.3359516504315008 [Eh]
	 SCS Total Energy          =    -377.8495941681225077 [Eh]
	-----------------------------------------------------------

  Dipole Moment: [D]
     X:     0.0893      Y:     0.0058      Z:     0.0002     Total:     0.0895

*** Psi4 exiting successfully. Buy a developer a beer!
