                               Psi4 1.4a3.dev225

  ==> Input File <==

--------------------------------------------------------------------------
#psi4
#
memory 32 gb

molecule  {
0 1
  O        1.4609920    -0.9816210     0.0001000
  O       -1.4609920     0.9816210     0.0000780
  O        1.2129570     1.2831620    -0.0000550
  O       -1.2129570    -1.2831620    -0.0001280
  C        0.7476960     0.1601870     0.0000050
  C       -0.7965866    -0.1706614    -0.0000249
  H        2.4018370    -0.7064870     0.0001070
  H       -2.4018370     0.7064860     0.0000460
units angstrom
no_reorient  #important for SAPT in psi4, default
symmetry c1  #important for SAPT in psi4, default
}

set PROPERTIES_ORIGIN ["COM"]
properties('MP2/aug-cc-pvtz', properties = ['dipole'])
--------------------------------------------------------------------------

    Molecular point group: c1
  Charge       = 0
  Multiplicity = 1
  Basis Set: AUG-CC-PVTZ
    Blend: AUG-CC-PVTZ
  Basis Set: (AUG-CC-PVTZ AUX)
    Blend: AUG-CC-PVTZ-JKFIT

    Orbital Energies [Eh]
    ---------------------

    Doubly Occupied:

       1A    -20.650312     2A    -20.642348     3A    -20.593665
       4A    -20.587554     5A    -11.428766     6A    -11.426230
       7A     -1.513887     8A     -1.481230     9A     -1.414861
      10A     -1.386334    11A     -0.970353    12A     -0.844308
      13A     -0.751141    14A     -0.736824    15A     -0.717224
      16A     -0.684696    17A     -0.661503    18A     -0.634647
      19A     -0.608710    20A     -0.544390    21A     -0.520802
      22A     -0.506982    23A     -0.461728

  @DF-RHF Final Energy:  -376.51719164323617

   => Energetics <=

    Nuclear Repulsion Energy =            230.5858438499620888
    One-Electron Energy =                -974.6690764971766612
    Two-Electron Energy =                 367.5660410039783983
    Total Energy =                       -376.5171916432361741
  Basis Set: (AUG-CC-PVTZ AUX)
    Blend: AUG-CC-PVTZ-RI
    Molecular point group: c1

    Geometry (in Angstrom), charge = 0, multiplicity = 1:

       Center              X                  Y                   Z               Mass
    ------------   -----------------  -----------------  -----------------  -----------------
         O            1.467511086489    -0.980224329331     0.000101828732    15.994914619570
         O           -1.454472913511     0.983017670669     0.000079828732    15.994914619570
         O            1.219476086489     1.284558670669    -0.000053171268    15.994914619570
         O           -1.206437913511    -1.281765329331    -0.000126171268    15.994914619570
         C            0.754215086489     0.161583670669     0.000006828732    12.000000000000
         C           -0.790067513511    -0.169264729331    -0.000023071268    12.000000000000
         H            2.408356086489    -0.705090329331     0.000108828732     1.007825032230
         H           -2.395317913511     0.707882670669     0.000047828732     1.007825032230

  Basis Set: AUG-CC-PVTZ
    Blend: AUG-CC-PVTZ
  Basis Set: (AUG-CC-PVTZ AUX)
    Blend: AUG-CC-PVTZ-JKFIT
	 Reference Energy          =    -376.5171916432361741 [Eh]
	 Singles Energy            =      -0.0000000000000000 [Eh]
	 Same-Spin Energy          =      -0.3506852799321674 [Eh]
	 Opposite-Spin Energy      =      -1.0123846833356471 [Eh]
	 Correlation Energy        =      -1.3630699632678145 [Eh]
	 Total Energy              =    -377.8802616065040070 [Eh]

	 ================> DF-SCS-MP2 Energies <==================
	-----------------------------------------------------------
	 SCS Same-Spin Scale       =       0.3333333333333333 [-]
	 SCS Opposite-Spin Scale   =       1.2000000000000000 [-]
	 SCS Same-Spin Energy      =      -0.1168950933107225 [Eh]
	 SCS Opposite-Spin Energy  =      -1.2148616200027764 [Eh]
	 SCS Correlation Energy    =      -1.3317567133134989 [Eh]
	 SCS Total Energy          =    -377.8489483565496698 [Eh]
	-----------------------------------------------------------

  Dipole Moment: [D]
     X:    -0.2472      Y:    -0.0287      Z:     0.0002     Total:     0.2488

*** Psi4 exiting successfully. Buy a developer a beer!
