                               Psi4 1.3.2 release

  ==> Input File <==

--------------------------------------------------------------------------
#psi4
#
memory 32 gb

molecule  {
0 1
  O        1.4608160    -0.9817270     0.0002400
  O       -1.4608130     0.9817270     0.0002230
  O        1.2132250     1.2829860    -0.0000330
  O       -1.2132270    -1.2829860    -0.0001300
  C        0.7677297     0.1723988    -0.0003175
  C       -0.7476940    -0.1601270    -0.0002390
  H        2.4016800    -0.7069230     0.0005270
  H       -2.4016780     0.7069260     0.0004400
units angstrom
no_reorient  #important for SAPT in psi4, default
symmetry c1  #important for SAPT in psi4, default
}

set PROPERTIES_ORIGIN ["COM"]
properties('MP2/aug-cc-pvtz', properties = ['dipole'])
--------------------------------------------------------------------------

    Molecular point group: c1
  Charge       = 0
  Multiplicity = 1
  Basis Set: AUG-CC-PVTZ
    Blend: AUG-CC-PVTZ
  Basis Set: (AUG-CC-PVTZ AUX)
    Blend: AUG-CC-PVTZ-JKFIT

    Orbital Energies [Eh]
    ---------------------

    Doubly Occupied:

       1A    -20.645685     2A    -20.644451     3A    -20.594801
       4A    -20.590968     5A    -11.429764     6A    -11.429142
       7A     -1.509582     8A     -1.480303     9A     -1.408403
      10A     -1.387444    11A     -0.979602    12A     -0.843231
      13A     -0.748647    14A     -0.737604    15A     -0.717148
      16A     -0.683113    17A     -0.659880    18A     -0.632476
      19A     -0.611489    20A     -0.543505    21A     -0.517242
      22A     -0.509174    23A     -0.466857

  @DF-RHF Final Energy:  -376.51756317782548

   => Energetics <=

    Nuclear Repulsion Energy =            230.6211049330834157
    One-Electron Energy =                -974.7363176175624631
    Two-Electron Energy =                 367.5976495066535676
    Total Energy =                       -376.5175631778254797
  Basis Set: (AUG-CC-PVTZ AUX)
    Blend: AUG-CC-PVTZ-RI
    Molecular point group: c1

    Geometry (in Angstrom), charge = 0, multiplicity = 1:

       Center              X                  Y                   Z               Mass
    ------------   -----------------  -----------------  -----------------  -----------------
         O            1.458144233944    -0.983363358893     0.000250055622    15.994914619570
         O           -1.463484766056     0.980090641107     0.000233055622    15.994914619570
         O            1.210553233944     1.281349641107    -0.000022944378    15.994914619570
         O           -1.215898766056    -1.284622358893    -0.000119944378    15.994914619570
         C            0.765057933944     0.170762441107    -0.000307444378    12.000000000000
         C           -0.750365766056    -0.161763358893    -0.000228944378    12.000000000000
         H            2.399008233944    -0.708559358893     0.000537055622     1.007825032230
         H           -2.404349766056     0.705289641107     0.000450055622     1.007825032230

  Basis Set: AUG-CC-PVTZ
    Blend: AUG-CC-PVTZ
  Basis Set: (AUG-CC-PVTZ AUX)
    Blend: AUG-CC-PVTZ-JKFIT
	 Reference Energy          =    -376.5175631778254797 [Eh]
	 Singles Energy            =      -0.0000000000000000 [Eh]
	 Same-Spin Energy          =      -0.3510154591211951 [Eh]
	 Opposite-Spin Energy      =      -1.0133494063090376 [Eh]
	 Correlation Energy        =      -1.3643648654302327 [Eh]
	 Total Energy              =    -377.8819280432556980 [Eh]

	 ================> DF-SCS-MP2 Energies <==================
	-----------------------------------------------------------
	 SCS Same-Spin Scale       =       0.3333333333333333 [-]
	 SCS Opposite-Spin Scale   =       1.2000000000000000 [-]
	 SCS Same-Spin Energy      =      -0.1170051530403984 [Eh]
	 SCS Opposite-Spin Energy  =      -1.2160192875708451 [Eh]
	 SCS Correlation Energy    =      -1.3330244406112435 [Eh]
	 SCS Total Energy          =    -377.8505876184367480 [Eh]
	-----------------------------------------------------------

  Dipole Moment: [D]
     X:     0.0845      Y:     0.0705      Z:     0.0002     Total:     0.1101

*** Psi4 exiting successfully. Buy a developer a beer!
