                               Psi4 1.3.2 release

  ==> Input File <==

--------------------------------------------------------------------------
#psi4
#
memory 32 gb

molecule  {
0 1
  O        1.4608160    -0.9817270     0.0002400
  O       -1.4608130     0.9817270     0.0002230
  O        1.2132250     1.2829860    -0.0000330
  O       -1.2132270    -1.2829860    -0.0001300
  C        0.7476930     0.1601270    -0.0003220
  C       -0.6499113    -0.1391857    -0.0002444
  H        2.4016800    -0.7069230     0.0005270
  H       -2.4016780     0.7069260     0.0004400
units angstrom
no_reorient  #important for SAPT in psi4, default
symmetry c1  #important for SAPT in psi4, default
}

set PROPERTIES_ORIGIN ["COM"]
properties('MP2/aug-cc-pvtz', properties = ['dipole'])
--------------------------------------------------------------------------

    Molecular point group: c1
  Charge       = 0
  Multiplicity = 1
  Basis Set: AUG-CC-PVTZ
    Blend: AUG-CC-PVTZ
  Basis Set: (AUG-CC-PVTZ AUX)
    Blend: AUG-CC-PVTZ-JKFIT

    Orbital Energies [Eh]
    ---------------------

    Doubly Occupied:

       1A    -20.651840     2A    -20.638117     3A    -20.604475
       4A    -20.596388     5A    -11.438334     6A    -11.436698
       7A     -1.510708     8A     -1.461754     9A     -1.405148
      10A     -1.357999    11A     -1.028902    12A     -0.846511
      13A     -0.751129    14A     -0.738391    15A     -0.713299
      16A     -0.686870    17A     -0.652761    18A     -0.619008
      19A     -0.615049    20A     -0.535524    21A     -0.517497
      22A     -0.493010    23A     -0.481129

  @DF-RHF Final Energy:  -376.49164015433701

   => Energetics <=

    Nuclear Repulsion Energy =            230.7808376465859510
    One-Electron Energy =                -974.9838758212108587
    Two-Electron Energy =                 367.7113980202879020
    Total Energy =                       -376.4916401543370057
  Basis Set: (AUG-CC-PVTZ AUX)
    Blend: AUG-CC-PVTZ-RI
    Molecular point group: c1

    Geometry (in Angstrom), charge = 0, multiplicity = 1:

       Center              X                  Y                   Z               Mass
    ------------   -----------------  -----------------  -----------------  -----------------
         O            1.447777560224    -0.984519352485     0.000251375691    15.994914619570
         O           -1.473851439776     0.978934647515     0.000234375691    15.994914619570
         O            1.200186560224     1.280193647515    -0.000021624309    15.994914619570
         O           -1.226265439776    -1.285778352485    -0.000118624309    15.994914619570
         C            0.734654560224     0.157334647515    -0.000310624309    12.000000000000
         C           -0.662949739776    -0.141978052485    -0.000233024309    12.000000000000
         H            2.388641560224    -0.709715352485     0.000538375691     1.007825032230
         H           -2.414716439776     0.704133647515     0.000451375691     1.007825032230

  Basis Set: AUG-CC-PVTZ
    Blend: AUG-CC-PVTZ
  Basis Set: (AUG-CC-PVTZ AUX)
    Blend: AUG-CC-PVTZ-JKFIT
	 Reference Energy          =    -376.4916401543370057 [Eh]
	 Singles Energy            =      -0.0000000000000000 [Eh]
	 Same-Spin Energy          =      -0.3541246576397927 [Eh]
	 Opposite-Spin Energy      =      -1.0209942896943751 [Eh]
	 Correlation Energy        =      -1.3751189473341678 [Eh]
	 Total Energy              =    -377.8667591016711640 [Eh]

	 ================> DF-SCS-MP2 Energies <==================
	-----------------------------------------------------------
	 SCS Same-Spin Scale       =       0.3333333333333333 [-]
	 SCS Opposite-Spin Scale   =       1.2000000000000000 [-]
	 SCS Same-Spin Energy      =      -0.1180415525465976 [Eh]
	 SCS Opposite-Spin Energy  =      -1.2251931476332500 [Eh]
	 SCS Correlation Energy    =      -1.3432347001798477 [Eh]
	 SCS Total Energy          =    -377.8348748545168405 [Eh]
	-----------------------------------------------------------

  Dipole Moment: [D]
     X:     0.3968      Y:    -0.0058      Z:     0.0002     Total:     0.3968

*** Psi4 exiting successfully. Buy a developer a beer!
