                               Psi4 1.3.2 release

  ==> Input File <==

--------------------------------------------------------------------------
#psi4
#
memory 32 gb

molecule  {
0 1
  O        1.4608160    -0.9817270     0.0002400
  O       -1.4608130     0.9817270     0.0002230
  O        1.2132250     1.2829860    -0.0000330
  O       -1.2132270    -1.2829860    -0.0001300
  C        0.7278735     0.1475074    -0.0003263
  C       -0.7476940    -0.1601270    -0.0002390
  H        2.4016800    -0.7069230     0.0005270
  H       -2.4016780     0.7069260     0.0004400
units angstrom
no_reorient  #important for SAPT in psi4, default
symmetry c1  #important for SAPT in psi4, default
}

set PROPERTIES_ORIGIN ["COM"]
properties('MP2/aug-cc-pvtz', properties = ['dipole'])
--------------------------------------------------------------------------

    Molecular point group: c1
  Charge       = 0
  Multiplicity = 1
  Basis Set: AUG-CC-PVTZ
    Blend: AUG-CC-PVTZ
  Basis Set: (AUG-CC-PVTZ AUX)
    Blend: AUG-CC-PVTZ-JKFIT

    Orbital Energies [Eh]
    ---------------------

    Doubly Occupied:

       1A    -20.647294     2A    -20.646318     3A    -20.595744
       4A    -20.592157     5A    -11.433290     6A    -11.432650
       7A     -1.508080     8A     -1.478066     9A     -1.400292
      10A     -1.379474    11A     -0.996468    12A     -0.847602
      13A     -0.748795    14A     -0.736974    15A     -0.718806
      16A     -0.683692    17A     -0.656653    18A     -0.630245
      19A     -0.612155    20A     -0.538765    21A     -0.512495
      22A     -0.504894    23A     -0.473036

  @DF-RHF Final Energy:  -376.51287176808643

   => Energetics <=

    Nuclear Repulsion Energy =            230.6446824932651793
    One-Electron Energy =                -974.7672206857956780
    Two-Electron Energy =                 367.6096664244441286
    Total Energy =                       -376.5128717680864270
  Basis Set: (AUG-CC-PVTZ AUX)
    Blend: AUG-CC-PVTZ-RI
    Molecular point group: c1

    Geometry (in Angstrom), charge = 0, multiplicity = 1:

       Center              X                  Y                   Z               Mass
    ------------   -----------------  -----------------  -----------------  -----------------
         O            1.463458670971    -0.980044332548     0.000251229017    15.994914619570
         O           -1.458170329029     0.983409667452     0.000234229017    15.994914619570
         O            1.215867670971     1.284668667452    -0.000021770983    15.994914619570
         O           -1.210584329029    -1.281303332548    -0.000118770983    15.994914619570
         C            0.730516170971     0.149190067452    -0.000315070983    12.000000000000
         C           -0.745051329029    -0.158444332548    -0.000227770983    12.000000000000
         H            2.404322670971    -0.705240332548     0.000538229017     1.007825032230
         H           -2.399035329029     0.708608667452     0.000451229017     1.007825032230

  Basis Set: AUG-CC-PVTZ
    Blend: AUG-CC-PVTZ
  Basis Set: (AUG-CC-PVTZ AUX)
    Blend: AUG-CC-PVTZ-JKFIT
	 Reference Energy          =    -376.5128717680864270 [Eh]
	 Singles Energy            =      -0.0000000000000000 [Eh]
	 Same-Spin Energy          =      -0.3520326208428344 [Eh]
	 Opposite-Spin Energy      =      -1.0157625970457484 [Eh]
	 Correlation Energy        =      -1.3677952178885828 [Eh]
	 Total Energy              =    -377.8806669859749832 [Eh]

	 ================> DF-SCS-MP2 Energies <==================
	-----------------------------------------------------------
	 SCS Same-Spin Scale       =       0.3333333333333333 [-]
	 SCS Opposite-Spin Scale   =       1.2000000000000000 [-]
	 SCS Same-Spin Energy      =      -0.1173442069476115 [Eh]
	 SCS Opposite-Spin Energy  =      -1.2189151164548981 [Eh]
	 SCS Correlation Energy    =      -1.3362593234025095 [Eh]
	 SCS Total Energy          =    -377.8491310914889141 [Eh]
	-----------------------------------------------------------

  Dipole Moment: [D]
     X:    -0.0746      Y:    -0.0662      Z:     0.0002     Total:     0.0997

*** Psi4 exiting successfully. Buy a developer a beer!
