                               Psi4 1.4a3.dev225

  ==> Input File <==

--------------------------------------------------------------------------
#psi4
#
memory 32 gb

molecule  {
0 1
  O        1.4609920    -0.9816210     0.0001000
  O       -1.4609920     0.9816210     0.0000780
  O        1.2129570     1.2831620    -0.0000550
  O       -1.2129570    -1.2831620    -0.0001280
  C        0.7400408     0.1417100     0.0000060
  C       -0.7476960    -0.1601870    -0.0000240
  H        2.4018370    -0.7064870     0.0001070
  H       -2.4018370     0.7064860     0.0000460
units angstrom
no_reorient  #important for SAPT in psi4, default
symmetry c1  #important for SAPT in psi4, default
}

set PROPERTIES_ORIGIN ["COM"]
properties('MP2/aug-cc-pvtz', properties = ['dipole'])
--------------------------------------------------------------------------

    Molecular point group: c1
  Charge       = 0
  Multiplicity = 1
  Basis Set: AUG-CC-PVTZ
    Blend: AUG-CC-PVTZ
  Basis Set: (AUG-CC-PVTZ AUX)
    Blend: AUG-CC-PVTZ-JKFIT

    Orbital Energies [Eh]
    ---------------------

    Doubly Occupied:

       1A    -20.649413     2A    -20.646563     3A    -20.594416
       4A    -20.590430     5A    -11.432834     6A    -11.431967
       7A     -1.509229     8A     -1.480753     9A     -1.399319
      10A     -1.380190    11A     -0.992578    12A     -0.849312
      13A     -0.749481    14A     -0.736710    15A     -0.719797
      16A     -0.684069    17A     -0.657229    18A     -0.632338
      19A     -0.610328    20A     -0.538474    21A     -0.511719
      22A     -0.504735    23A     -0.471290

  @DF-RHF Final Energy:  -376.51376487486272

   => Energetics <=

    Nuclear Repulsion Energy =            230.6213221399252689
    One-Electron Energy =                -974.7238232751533360
    Two-Electron Energy =                 367.5887362603653514
    Total Energy =                       -376.5137648748627157
  Basis Set: (AUG-CC-PVTZ AUX)
    Blend: AUG-CC-PVTZ-RI
    Molecular point group: c1

    Geometry (in Angstrom), charge = 0, multiplicity = 1:

       Center              X                  Y                   Z               Mass
    ------------   -----------------  -----------------  -----------------  -----------------
         O            1.462012746542    -0.979157260374     0.000101575386    15.994914619570
         O           -1.459971253458     0.984084739626     0.000079575386    15.994914619570
         O            1.213977746542     1.285625739626    -0.000053424614    15.994914619570
         O           -1.211936253458    -1.280698260374    -0.000126424614    15.994914619570
         C            0.741061546542     0.144173739626     0.000007575386    12.000000000000
         C           -0.746675253458    -0.157723260374    -0.000022424614    12.000000000000
         H            2.402857746542    -0.704023260374     0.000108575386     1.007825032230
         H           -2.400816253458     0.708949739626     0.000047575386     1.007825032230

  Basis Set: AUG-CC-PVTZ
    Blend: AUG-CC-PVTZ
  Basis Set: (AUG-CC-PVTZ AUX)
    Blend: AUG-CC-PVTZ-JKFIT
	 Reference Energy          =    -376.5137648748627157 [Eh]
	 Singles Energy            =      -0.0000000000000000 [Eh]
	 Same-Spin Energy          =      -0.3518911599074991 [Eh]
	 Opposite-Spin Energy      =      -1.0153189264267617 [Eh]
	 Correlation Energy        =      -1.3672100863342609 [Eh]
	 Total Energy              =    -377.8809749611969551 [Eh]

	 ================> DF-SCS-MP2 Energies <==================
	-----------------------------------------------------------
	 SCS Same-Spin Scale       =       0.3333333333333333 [-]
	 SCS Opposite-Spin Scale   =       1.2000000000000000 [-]
	 SCS Same-Spin Energy      =      -0.1172970533024997 [Eh]
	 SCS Opposite-Spin Energy  =      -1.2183827117121140 [Eh]
	 SCS Correlation Energy    =      -1.3356797650146137 [Eh]
	 SCS Total Energy          =    -377.8494446398773334 [Eh]
	-----------------------------------------------------------

  Dipole Moment: [D]
     X:    -0.0054      Y:    -0.1254      Z:     0.0002     Total:     0.1255

*** Psi4 exiting successfully. Buy a developer a beer!
