                               Psi4 1.4a3.dev225

  ==> Input File <==

--------------------------------------------------------------------------
#psi4
#
memory 32 gb

molecule  {
0 1
  O        1.4609920    -0.9816210     0.0001000
  O       -1.4609920     0.9816210     0.0000780
  O        1.2129570     1.2831620    -0.0000550
  O       -1.2129570    -1.2831620    -0.0001280
  C        0.7476960     0.1601870     0.0000050
  C       -0.6988054    -0.1497126    -0.0000231
  H        2.4018370    -0.7064870     0.0001070
  H       -2.4018370     0.7064860     0.0000460
units angstrom
no_reorient  #important for SAPT in psi4, default
symmetry c1  #important for SAPT in psi4, default
}

set PROPERTIES_ORIGIN ["COM"]
properties('MP2/aug-cc-pvtz', properties = ['dipole'])
--------------------------------------------------------------------------

    Molecular point group: c1
  Charge       = 0
  Multiplicity = 1
  Basis Set: AUG-CC-PVTZ
    Blend: AUG-CC-PVTZ
  Basis Set: (AUG-CC-PVTZ AUX)
    Blend: AUG-CC-PVTZ-JKFIT

    Orbital Energies [Eh]
    ---------------------

    Doubly Occupied:

       1A    -20.649090     2A    -20.641935     3A    -20.599006
       4A    -20.594375     5A    -11.435050     6A    -11.434304
       7A     -1.507966     8A     -1.472011     9A     -1.401893
      10A     -1.373454    11A     -1.007475    12A     -0.846054
      13A     -0.748855    14A     -0.737241    15A     -0.716952
      16A     -0.684143    17A     -0.654953    18A     -0.625899
      19A     -0.614628    20A     -0.537950    21A     -0.514420
      22A     -0.501829    23A     -0.476654

  @DF-RHF Final Energy:  -376.50772729836694

   => Energetics <=

    Nuclear Repulsion Energy =            230.6854794206489885
    One-Electron Energy =                -974.8341408884020893
    Two-Electron Energy =                 367.6409341693861279
    Total Energy =                       -376.5077272983669445
  Basis Set: (AUG-CC-PVTZ AUX)
    Blend: AUG-CC-PVTZ-RI
    Molecular point group: c1

    Geometry (in Angstrom), charge = 0, multiplicity = 1:

       Center              X                  Y                   Z               Mass
    ------------   -----------------  -----------------  -----------------  -----------------
         O            1.454472913511    -0.983017648272     0.000101588720    15.994914619570
         O           -1.467511086489     0.980224351728     0.000079588720    15.994914619570
         O            1.206437913511     1.281765351728    -0.000053411280    15.994914619570
         O           -1.219476086489    -1.284558648272    -0.000126411280    15.994914619570
         C            0.741176913511     0.158790351728     0.000006588720    12.000000000000
         C           -0.705324486489    -0.151109248272    -0.000021511280    12.000000000000
         H            2.395317913511    -0.707883648272     0.000108588720     1.007825032230
         H           -2.408356086489     0.705089351728     0.000047588720     1.007825032230

  Basis Set: AUG-CC-PVTZ
    Blend: AUG-CC-PVTZ
  Basis Set: (AUG-CC-PVTZ AUX)
    Blend: AUG-CC-PVTZ-JKFIT
	 Reference Energy          =    -376.5077272983669445 [Eh]
	 Singles Energy            =      -0.0000000000000000 [Eh]
	 Same-Spin Energy          =      -0.3526337893619216 [Eh]
	 Opposite-Spin Energy      =      -1.0173410185458114 [Eh]
	 Correlation Energy        =      -1.3699748079077330 [Eh]
	 Total Energy              =    -377.8777021062746826 [Eh]

	 ================> DF-SCS-MP2 Energies <==================
	-----------------------------------------------------------
	 SCS Same-Spin Scale       =       0.3333333333333333 [-]
	 SCS Opposite-Spin Scale   =       1.2000000000000000 [-]
	 SCS Same-Spin Energy      =      -0.1175445964539739 [Eh]
	 SCS Opposite-Spin Energy  =      -1.2208092222549736 [Eh]
	 SCS Correlation Energy    =      -1.3383538187089474 [Eh]
	 SCS Total Energy          =    -377.8460811170758689 [Eh]
	-----------------------------------------------------------

  Dipole Moment: [D]
     X:     0.2137      Y:     0.0081      Z:     0.0002     Total:     0.2138

*** Psi4 exiting successfully. Buy a developer a beer!
