                               Psi4 1.3.2 release

  ==> Input File <==

--------------------------------------------------------------------------
#psi4
#
memory 32 gb

molecule  {
0 1
  O        1.4608160    -0.9817270     0.0002400
  O       -1.4608130     0.9817270     0.0002230
  O        1.2132250     1.2829860    -0.0000330
  O       -1.2132270    -1.2829860    -0.0001300
  C        0.7476930     0.1601270    -0.0003220
  C       -0.7476940    -0.1601270    -0.0002390
  H        2.5936588    -0.6508505     0.0005856
  H       -2.4016780     0.7069260     0.0004400
units angstrom
no_reorient  #important for SAPT in psi4, default
symmetry c1  #important for SAPT in psi4, default
}

set PROPERTIES_ORIGIN ["COM"]
properties('MP2/aug-cc-pvtz', properties = ['dipole'])
--------------------------------------------------------------------------

    Molecular point group: c1
  Charge       = 0
  Multiplicity = 1
  Basis Set: AUG-CC-PVTZ
    Blend: AUG-CC-PVTZ
  Basis Set: (AUG-CC-PVTZ AUX)
    Blend: AUG-CC-PVTZ-JKFIT

    Orbital Energies [Eh]
    ---------------------

    Doubly Occupied:

       1A    -20.653602     2A    -20.644547     3A    -20.591582
       4A    -20.588733     5A    -11.430032     6A    -11.426839
       7A     -1.501025     8A     -1.464514     9A     -1.397109
      10A     -1.371672    11A     -0.976028    12A     -0.822258
      13A     -0.743859    14A     -0.731917    15A     -0.699163
      16A     -0.679208    17A     -0.648630    18A     -0.626192
      19A     -0.595601    20A     -0.537324    21A     -0.509624
      22A     -0.504356    23A     -0.466964

  @DF-RHF Final Energy:  -376.48131148570548

   => Energetics <=

    Nuclear Repulsion Energy =            229.5748578986807331
    One-Electron Energy =                -972.8907788685438618
    Two-Electron Energy =                 366.8346094841576246
    Total Energy =                       -376.4813114857054757
  Basis Set: (AUG-CC-PVTZ AUX)
    Blend: AUG-CC-PVTZ-RI
    Molecular point group: c1

    Geometry (in Angstrom), charge = 0, multiplicity = 1:

       Center              X                  Y                   Z               Mass
    ------------   -----------------  -----------------  -----------------  -----------------
         O            1.458666031807    -0.982354969319     0.000249999413    15.994914619570
         O           -1.462962968193     0.981099030681     0.000232999413    15.994914619570
         O            1.211075031807     1.282358030681    -0.000023000587    15.994914619570
         O           -1.215376968193    -1.283613969319    -0.000120000587    15.994914619570
         C            0.745543031807     0.159499030681    -0.000312000587    12.000000000000
         C           -0.749843968193    -0.160754969319    -0.000229000587    12.000000000000
         H            2.591508831807    -0.651478469319     0.000595599413     1.007825032230
         H           -2.403827968193     0.706298030681     0.000449999413     1.007825032230

  Basis Set: AUG-CC-PVTZ
    Blend: AUG-CC-PVTZ
  Basis Set: (AUG-CC-PVTZ AUX)
    Blend: AUG-CC-PVTZ-JKFIT
	 Reference Energy          =    -376.4813114857054757 [Eh]
	 Singles Energy            =      -0.0000000000000000 [Eh]
	 Same-Spin Energy          =      -0.3539637878886182 [Eh]
	 Opposite-Spin Energy      =      -1.0208082676233849 [Eh]
	 Correlation Energy        =      -1.3747720555120031 [Eh]
	 Total Energy              =    -377.8560835412174583 [Eh]

	 ================> DF-SCS-MP2 Energies <==================
	-----------------------------------------------------------
	 SCS Same-Spin Scale       =       0.3333333333333333 [-]
	 SCS Opposite-Spin Scale   =       1.2000000000000000 [-]
	 SCS Same-Spin Energy      =      -0.1179879292962061 [Eh]
	 SCS Opposite-Spin Energy  =      -1.2249699211480618 [Eh]
	 SCS Correlation Energy    =      -1.3429578504442679 [Eh]
	 SCS Total Energy          =    -377.8242693361497686 [Eh]
	-----------------------------------------------------------

  Dipole Moment: [D]
     X:     0.2759      Y:    -0.0022      Z:     0.0003     Total:     0.2759

*** Psi4 exiting successfully. Buy a developer a beer!
