                               Psi4 1.4a3.dev225

  ==> Input File <==

--------------------------------------------------------------------------
#psi4
#
memory 32 gb

molecule  {
0 1
  O        1.4609920    -0.9816210     0.0001000
  O       -1.4609920     0.9816210     0.0000780
  O        1.2129570     1.2831620    -0.0000550
  O       -1.2129570    -1.2831620    -0.0001280
  C        0.7212050     0.2025925     0.0000015
  C       -0.7476960    -0.1601870    -0.0000240
  H        2.4018370    -0.7064870     0.0001070
  H       -2.4018370     0.7064860     0.0000460
units angstrom
no_reorient  #important for SAPT in psi4, default
symmetry c1  #important for SAPT in psi4, default
}

set PROPERTIES_ORIGIN ["COM"]
properties('MP2/aug-cc-pvtz', properties = ['dipole'])
--------------------------------------------------------------------------

    Molecular point group: c1
  Charge       = 0
  Multiplicity = 1
  Basis Set: AUG-CC-PVTZ
    Blend: AUG-CC-PVTZ
  Basis Set: (AUG-CC-PVTZ AUX)
    Blend: AUG-CC-PVTZ-JKFIT

    Orbital Energies [Eh]
    ---------------------

    Doubly Occupied:

       1A    -20.647568     2A    -20.631698     3A    -20.602074
       4A    -20.596231     5A    -11.433318     6A    -11.430133
       7A     -1.508495     8A     -1.476615     9A     -1.404795
      10A     -1.385123    11A     -0.993652    12A     -0.835837
      13A     -0.746839    14A     -0.740065    15A     -0.712591
      16A     -0.682787    17A     -0.657167    18A     -0.625756
      19A     -0.618221    20A     -0.544240    21A     -0.517996
      22A     -0.511697    23A     -0.473021

  @DF-RHF Final Energy:  -376.51302392168179

   => Energetics <=

    Nuclear Repulsion Energy =            230.7187576065853989
    One-Electron Energy =                -974.9117267439081616
    Two-Electron Energy =                 367.6799452156409416
    Total Energy =                       -376.5130239216817927
  Basis Set: (AUG-CC-PVTZ AUX)
    Blend: AUG-CC-PVTZ-RI
    Molecular point group: c1

    Geometry (in Angstrom), charge = 0, multiplicity = 1:

       Center              X                  Y                   Z               Mass
    ------------   -----------------  -----------------  -----------------  -----------------
         O            1.464524317464    -0.987275350215     0.000102175417    15.994914619570
         O           -1.457459682536     0.975966649785     0.000080175417    15.994914619570
         O            1.216489317464     1.277507649785    -0.000052824583    15.994914619570
         O           -1.209424682536    -1.288816350215    -0.000125824583    15.994914619570
         C            0.724737317464     0.196938149785     0.000003675417    12.000000000000
         C           -0.744163682536    -0.165841350215    -0.000021824583    12.000000000000
         H            2.405369317464    -0.712141350215     0.000109175417     1.007825032230
         H           -2.398304682536     0.700831649785     0.000048175417     1.007825032230

  Basis Set: AUG-CC-PVTZ
    Blend: AUG-CC-PVTZ
  Basis Set: (AUG-CC-PVTZ AUX)
    Blend: AUG-CC-PVTZ-JKFIT
	 Reference Energy          =    -376.5130239216817927 [Eh]
	 Singles Energy            =      -0.0000000000000000 [Eh]
	 Same-Spin Energy          =      -0.3514322813095548 [Eh]
	 Opposite-Spin Energy      =      -1.0147857957152899 [Eh]
	 Correlation Energy        =      -1.3662180770248447 [Eh]
	 Total Energy              =    -377.8792419987066182 [Eh]

	 ================> DF-SCS-MP2 Energies <==================
	-----------------------------------------------------------
	 SCS Same-Spin Scale       =       0.3333333333333333 [-]
	 SCS Opposite-Spin Scale   =       1.2000000000000000 [-]
	 SCS Same-Spin Energy      =      -0.1171440937698516 [Eh]
	 SCS Opposite-Spin Energy  =      -1.2177429548583478 [Eh]
	 SCS Correlation Energy    =      -1.3348870486281994 [Eh]
	 SCS Total Energy          =    -377.8479109703100107 [Eh]
	-----------------------------------------------------------

  Dipole Moment: [D]
     X:    -0.2149      Y:     0.3507      Z:     0.0002     Total:     0.4113

*** Psi4 exiting successfully. Buy a developer a beer!
