                               Psi4 1.4a3.dev225

  ==> Input File <==

--------------------------------------------------------------------------
#psi4
#
memory 32 gb

molecule  {
0 1
  O        1.4609920    -0.9816210     0.0001000
  O       -1.4609920     0.9816210     0.0000780
  O        1.2129570     1.2831620    -0.0000550
  O       -1.2129570    -1.2831620    -0.0001280
  C        0.7476960     0.1601870     0.0000050
  C       -0.7476960    -0.1601870    -0.0000240
  H        2.4210330    -0.7008734     0.0001071
  H       -2.4018370     0.7064860     0.0000460
units angstrom
no_reorient  #important for SAPT in psi4, default
symmetry c1  #important for SAPT in psi4, default
}

set PROPERTIES_ORIGIN ["COM"]
properties('MP2/aug-cc-pvtz', properties = ['dipole'])
--------------------------------------------------------------------------

    Molecular point group: c1
  Charge       = 0
  Multiplicity = 1
  Basis Set: AUG-CC-PVTZ
    Blend: AUG-CC-PVTZ
  Basis Set: (AUG-CC-PVTZ AUX)
    Blend: AUG-CC-PVTZ-JKFIT

    Orbital Energies [Eh]
    ---------------------

    Doubly Occupied:

       1A    -20.647077     2A    -20.645799     3A    -20.593223
       4A    -20.592918     5A    -11.431320     6A    -11.430662
       7A     -1.507031     8A     -1.477566     9A     -1.401656
      10A     -1.384295    11A     -0.986359    12A     -0.842519
      13A     -0.747833    14A     -0.736493    15A     -0.716300
      16A     -0.682721    17A     -0.657364    18A     -0.630851
      19A     -0.610772    20A     -0.540799    21A     -0.511291
      22A     -0.509871    23A     -0.469876

  @DF-RHF Final Energy:  -376.51451545817690

   => Energetics <=

    Nuclear Repulsion Energy =            230.5055114114924493
    One-Electron Energy =                -974.5308659633152502
    Two-Electron Energy =                 367.5108390936459273
    Total Energy =                       -376.5145154581769020
  Basis Set: (AUG-CC-PVTZ AUX)
    Blend: AUG-CC-PVTZ-RI
    Molecular point group: c1

    Geometry (in Angstrom), charge = 0, multiplicity = 1:

       Center              X                  Y                   Z               Mass
    ------------   -----------------  -----------------  -----------------  -----------------
         O            1.460777030913    -0.981683853485     0.000101707606    15.994914619570
         O           -1.461206969087     0.981558146515     0.000079707606    15.994914619570
         O            1.212742030913     1.283099146515    -0.000053292394    15.994914619570
         O           -1.213171969087    -1.283224853485    -0.000126292394    15.994914619570
         C            0.747481030913     0.160124146515     0.000006707606    12.000000000000
         C           -0.747910969087    -0.160249853485    -0.000022292394    12.000000000000
         H            2.420818030913    -0.700936253485     0.000108807606     1.007825032230
         H           -2.402051969087     0.706423146515     0.000047707606     1.007825032230

  Basis Set: AUG-CC-PVTZ
    Blend: AUG-CC-PVTZ
  Basis Set: (AUG-CC-PVTZ AUX)
    Blend: AUG-CC-PVTZ-JKFIT
	 Reference Energy          =    -376.5145154581769020 [Eh]
	 Singles Energy            =      -0.0000000000000000 [Eh]
	 Same-Spin Energy          =      -0.3517455651890818 [Eh]
	 Opposite-Spin Energy      =      -1.0150780842726226 [Eh]
	 Correlation Energy        =      -1.3668236494617045 [Eh]
	 Total Energy              =    -377.8813391076386097 [Eh]

	 ================> DF-SCS-MP2 Energies <==================
	-----------------------------------------------------------
	 SCS Same-Spin Scale       =       0.3333333333333333 [-]
	 SCS Opposite-Spin Scale   =       1.2000000000000000 [-]
	 SCS Same-Spin Energy      =      -0.1172485217296939 [Eh]
	 SCS Opposite-Spin Energy  =      -1.2180937011271471 [Eh]
	 SCS Correlation Energy    =      -1.3353422228568410 [Eh]
	 SCS Total Energy          =    -377.8498576810337681 [Eh]
	-----------------------------------------------------------

  Dipole Moment: [D]
     X:     0.0285      Y:    -0.0017      Z:     0.0002     Total:     0.0285

*** Psi4 exiting successfully. Buy a developer a beer!
