                               Psi4 1.3.2 release

  ==> Input File <==

--------------------------------------------------------------------------
#psi4
#
memory 32 gb

molecule  {
0 1
  O        1.4205315    -1.0059190     0.0002495
  O       -1.4608130     0.9817270     0.0002230
  O        1.2132250     1.2829860    -0.0000330
  O       -1.2132270    -1.2829860    -0.0001300
  C        0.7476930     0.1601270    -0.0003220
  C       -0.7476940    -0.1601270    -0.0002390
  H        2.4016800    -0.7069230     0.0005270
  H       -2.4016780     0.7069260     0.0004400
units angstrom
no_reorient  #important for SAPT in psi4, default
symmetry c1  #important for SAPT in psi4, default
}

set PROPERTIES_ORIGIN ["COM"]
properties('MP2/aug-cc-pvtz', properties = ['dipole'])
--------------------------------------------------------------------------

    Molecular point group: c1
  Charge       = 0
  Multiplicity = 1
  Basis Set: AUG-CC-PVTZ
    Blend: AUG-CC-PVTZ
  Basis Set: (AUG-CC-PVTZ AUX)
    Blend: AUG-CC-PVTZ-JKFIT

    Orbital Energies [Eh]
    ---------------------

    Doubly Occupied:

       1A    -20.651598     2A    -20.644356     3A    -20.594938
       4A    -20.591635     5A    -11.431279     6A    -11.428582
       7A     -1.506315     8A     -1.475709     9A     -1.402313
      10A     -1.383914    11A     -0.984149    12A     -0.836956
      13A     -0.747934    14A     -0.736415    15A     -0.712026
      16A     -0.682822    17A     -0.657331    18A     -0.630229
      19A     -0.609847    20A     -0.541994    21A     -0.512693
      22A     -0.509105    23A     -0.468884

  @DF-RHF Final Energy:  -376.51025507738024

   => Energetics <=

    Nuclear Repulsion Energy =            230.7051116643036721
    One-Electron Energy =                -974.9486860000662318
    Two-Electron Energy =                 367.7333192583823234
    Total Energy =                       -376.5102550773802363
  Basis Set: (AUG-CC-PVTZ AUX)
    Blend: AUG-CC-PVTZ-RI
    Molecular point group: c1

    Geometry (in Angstrom), charge = 0, multiplicity = 1:

       Center              X                  Y                   Z               Mass
    ------------   -----------------  -----------------  -----------------  -----------------
         O            1.427691219077    -1.001619376417     0.000258467213    15.994914619570
         O           -1.453653280923     0.986026623583     0.000231967213    15.994914619570
         O            1.220384719077     1.287285623583    -0.000024032787    15.994914619570
         O           -1.206067280923    -1.278686376417    -0.000121032787    15.994914619570
         C            0.754852719077     0.164426623583    -0.000313032787    12.000000000000
         C           -0.740534280923    -0.155827376417    -0.000230032787    12.000000000000
         H            2.408839719077    -0.702623376417     0.000535967213     1.007825032230
         H           -2.394518280923     0.711225623583     0.000448967213     1.007825032230

  Basis Set: AUG-CC-PVTZ
    Blend: AUG-CC-PVTZ
  Basis Set: (AUG-CC-PVTZ AUX)
    Blend: AUG-CC-PVTZ-JKFIT
	 Reference Energy          =    -376.5102550773802363 [Eh]
	 Singles Energy            =      -0.0000000000000000 [Eh]
	 Same-Spin Energy          =      -0.3524403105990632 [Eh]
	 Opposite-Spin Energy      =      -1.0164572428642487 [Eh]
	 Correlation Energy        =      -1.3688975534633119 [Eh]
	 Total Energy              =    -377.8791526308435209 [Eh]

	 ================> DF-SCS-MP2 Energies <==================
	-----------------------------------------------------------
	 SCS Same-Spin Scale       =       0.3333333333333333 [-]
	 SCS Opposite-Spin Scale   =       1.2000000000000000 [-]
	 SCS Same-Spin Energy      =      -0.1174801035330210 [Eh]
	 SCS Opposite-Spin Energy  =      -1.2197486914370983 [Eh]
	 SCS Correlation Energy    =      -1.3372287949701194 [Eh]
	 SCS Total Energy          =    -377.8474838723503808 [Eh]
	-----------------------------------------------------------

  Dipole Moment: [D]
     X:     0.0963      Y:    -0.0008      Z:     0.0002     Total:     0.0963

*** Psi4 exiting successfully. Buy a developer a beer!
