                               Psi4 1.3.2 release

  ==> Input File <==

--------------------------------------------------------------------------
#psi4
#
memory 32 gb

molecule  {
0 1
  O        1.4407793    -0.9939988     0.0002448
  O       -1.4608130     0.9817270     0.0002230
  O        1.2132250     1.2829860    -0.0000330
  O       -1.2132270    -1.2829860    -0.0001300
  C        0.7476930     0.1601270    -0.0003220
  C       -0.7476940    -0.1601270    -0.0002390
  H        2.4016800    -0.7069230     0.0005270
  H       -2.4016780     0.7069260     0.0004400
units angstrom
no_reorient  #important for SAPT in psi4, default
symmetry c1  #important for SAPT in psi4, default
}

set PROPERTIES_ORIGIN ["COM"]
properties('MP2/aug-cc-pvtz', properties = ['dipole'])
--------------------------------------------------------------------------

    Molecular point group: c1
  Charge       = 0
  Multiplicity = 1
  Basis Set: AUG-CC-PVTZ
    Blend: AUG-CC-PVTZ
  Basis Set: (AUG-CC-PVTZ AUX)
    Blend: AUG-CC-PVTZ-JKFIT

    Orbital Energies [Eh]
    ---------------------

    Doubly Occupied:

       1A    -20.648835     2A    -20.645140     3A    -20.594164
       4A    -20.592519     5A    -11.431298     6A    -11.429879
       7A     -1.507253     8A     -1.477479     9A     -1.402370
      10A     -1.384748    11A     -0.986001    12A     -0.841026
      13A     -0.747987    14A     -0.736891    15A     -0.715074
      16A     -0.682983    17A     -0.657911    18A     -0.630822
      19A     -0.611021    20A     -0.541588    21A     -0.512061
      22A     -0.509831    23A     -0.469562

  @DF-RHF Final Energy:  -376.51369575824543

   => Energetics <=

    Nuclear Repulsion Energy =            230.6617971221063215
    One-Electron Energy =                -974.8380997025047918
    Two-Electron Energy =                 367.6626068221530090
    Total Energy =                       -376.5136957582454329
  Basis Set: (AUG-CC-PVTZ AUX)
    Blend: AUG-CC-PVTZ-RI
    Molecular point group: c1

    Geometry (in Angstrom), charge = 0, multiplicity = 1:

       Center              X                  Y                   Z               Mass
    ------------   -----------------  -----------------  -----------------  -----------------
         O            1.444340366687    -0.991817759978     0.000254602547    15.994914619570
         O           -1.457251933313     0.983908040022     0.000232802547    15.994914619570
         O            1.216786066687     1.285167040022    -0.000023197453    15.994914619570
         O           -1.209665933313    -1.280804959978    -0.000120197453    15.994914619570
         C            0.751254066687     0.162308040022    -0.000312197453    12.000000000000
         C           -0.744132933313    -0.157945959978    -0.000229197453    12.000000000000
         H            2.405241066687    -0.704741959978     0.000536802547     1.007825032230
         H           -2.398116933313     0.709107040022     0.000449802547     1.007825032230

  Basis Set: AUG-CC-PVTZ
    Blend: AUG-CC-PVTZ
  Basis Set: (AUG-CC-PVTZ AUX)
    Blend: AUG-CC-PVTZ-JKFIT
	 Reference Energy          =    -376.5136957582454329 [Eh]
	 Singles Energy            =      -0.0000000000000000 [Eh]
	 Same-Spin Energy          =      -0.3519566067453829 [Eh]
	 Opposite-Spin Energy      =      -1.0154462031025284 [Eh]
	 Correlation Energy        =      -1.3674028098479112 [Eh]
	 Total Energy              =    -377.8810985680933641 [Eh]

	 ================> DF-SCS-MP2 Energies <==================
	-----------------------------------------------------------
	 SCS Same-Spin Scale       =       0.3333333333333333 [-]
	 SCS Opposite-Spin Scale   =       1.2000000000000000 [-]
	 SCS Same-Spin Energy      =      -0.1173188689151276 [Eh]
	 SCS Opposite-Spin Energy  =      -1.2185354437230340 [Eh]
	 SCS Correlation Energy    =      -1.3358543126381617 [Eh]
	 SCS Total Energy          =    -377.8495500708835948 [Eh]
	-----------------------------------------------------------

  Dipole Moment: [D]
     X:     0.0489      Y:    -0.0004      Z:     0.0002     Total:     0.0489

*** Psi4 exiting successfully. Buy a developer a beer!
