                               Psi4 1.3.2 release

  ==> Input File <==

--------------------------------------------------------------------------
#psi4
#
memory 32 gb

molecule  {
0 1
  O        1.4608160    -0.9817270     0.0002400
  O       -1.4608130     0.9817270     0.0002230
  O        1.2132250     1.2829860    -0.0000330
  O       -1.2132270    -1.2829860    -0.0001300
  C        0.7476930     0.1601270    -0.0003220
  C       -0.8454767    -0.1810683    -0.0002336
  H        2.4016800    -0.7069230     0.0005270
  H       -2.4016780     0.7069260     0.0004400
units angstrom
no_reorient  #important for SAPT in psi4, default
symmetry c1  #important for SAPT in psi4, default
}

set PROPERTIES_ORIGIN ["COM"]
properties('MP2/aug-cc-pvtz', properties = ['dipole'])
--------------------------------------------------------------------------

    Molecular point group: c1
  Charge       = 0
  Multiplicity = 1
  Basis Set: AUG-CC-PVTZ
    Blend: AUG-CC-PVTZ
  Basis Set: (AUG-CC-PVTZ AUX)
    Blend: AUG-CC-PVTZ-JKFIT

    Orbital Energies [Eh]
    ---------------------

    Doubly Occupied:

       1A    -20.655190     2A    -20.638213     3A    -20.595322
       4A    -20.581292     5A    -11.427333     6A    -11.419568
       7A     -1.523873     8A     -1.478808     9A     -1.432446
      10A     -1.381974    11A     -0.954960    12A     -0.842876
      13A     -0.756875    14A     -0.736360    15A     -0.715527
      16A     -0.689305    17A     -0.663374    18A     -0.635107
      19A     -0.606503    20A     -0.546412    21A     -0.530969
      22A     -0.502584    23A     -0.451209

  @DF-RHF Final Energy:  -376.51152840105379

   => Energetics <=

    Nuclear Repulsion Energy =            230.5640745724993224
    One-Electron Energy =                -974.6190470761555389
    Two-Electron Energy =                 367.5434441026024501
    Total Energy =                       -376.5115284010537948
  Basis Set: (AUG-CC-PVTZ AUX)
    Blend: AUG-CC-PVTZ-RI
    Molecular point group: c1

    Geometry (in Angstrom), charge = 0, multiplicity = 1:

       Center              X                  Y                   Z               Mass
    ------------   -----------------  -----------------  -----------------  -----------------
         O            1.473854306201    -0.978934714707     0.000249935616    15.994914619570
         O           -1.447774693799     0.984519285293     0.000232935616    15.994914619570
         O            1.226263306201     1.285778285293    -0.000023064384    15.994914619570
         O           -1.200188693799    -1.280193714707    -0.000120064384    15.994914619570
         C            0.760731306201     0.162919285293    -0.000312064384    12.000000000000
         C           -0.832438393799    -0.178276014707    -0.000223664384    12.000000000000
         H            2.414718306201    -0.704130714707     0.000536935616     1.007825032230
         H           -2.388639693799     0.709718285293     0.000449935616     1.007825032230

  Basis Set: AUG-CC-PVTZ
    Blend: AUG-CC-PVTZ
  Basis Set: (AUG-CC-PVTZ AUX)
    Blend: AUG-CC-PVTZ-JKFIT
	 Reference Energy          =    -376.5115284010537948 [Eh]
	 Singles Energy            =      -0.0000000000000000 [Eh]
	 Same-Spin Energy          =      -0.3501740098539550 [Eh]
	 Opposite-Spin Energy      =      -1.0109191935919384 [Eh]
	 Correlation Energy        =      -1.3610932034458934 [Eh]
	 Total Energy              =    -377.8726216044996704 [Eh]

	 ================> DF-SCS-MP2 Energies <==================
	-----------------------------------------------------------
	 SCS Same-Spin Scale       =       0.3333333333333333 [-]
	 SCS Opposite-Spin Scale   =       1.2000000000000000 [-]
	 SCS Same-Spin Energy      =      -0.1167246699513183 [Eh]
	 SCS Opposite-Spin Energy  =      -1.2131030323103260 [Eh]
	 SCS Correlation Energy    =      -1.3298277022616443 [Eh]
	 SCS Total Energy          =    -377.8413561033154338 [Eh]
	-----------------------------------------------------------

  Dipole Moment: [D]
     X:    -0.5314      Y:    -0.0773      Z:     0.0003     Total:     0.5370

*** Psi4 exiting successfully. Buy a developer a beer!
