                               Psi4 1.3.2 release

  ==> Input File <==

--------------------------------------------------------------------------
#psi4
#
memory 32 gb

molecule  {
0 1
  O        1.4608160    -0.9817270     0.0002400
  O       -1.4608130     0.9817270     0.0002230
  O        1.2521286     1.2660552    -0.0000429
  O       -1.2132270    -1.2829860    -0.0001300
  C        0.7476930     0.1601270    -0.0003220
  C       -0.7476940    -0.1601270    -0.0002390
  H        2.4016800    -0.7069230     0.0005270
  H       -2.4016780     0.7069260     0.0004400
units angstrom
no_reorient  #important for SAPT in psi4, default
symmetry c1  #important for SAPT in psi4, default
}

set PROPERTIES_ORIGIN ["COM"]
properties('MP2/aug-cc-pvtz', properties = ['dipole'])
--------------------------------------------------------------------------

    Molecular point group: c1
  Charge       = 0
  Multiplicity = 1
  Basis Set: AUG-CC-PVTZ
    Blend: AUG-CC-PVTZ
  Basis Set: (AUG-CC-PVTZ AUX)
    Blend: AUG-CC-PVTZ-JKFIT

    Orbital Energies [Eh]
    ---------------------

    Doubly Occupied:

       1A    -20.647654     2A    -20.642728     3A    -20.595315
       4A    -20.592712     5A    -11.433864     6A    -11.431080
       7A     -1.508926     8A     -1.480428     9A     -1.402047
      10A     -1.384639    11A     -0.989551    12A     -0.845197
      13A     -0.748628    14A     -0.737844    15A     -0.717467
      16A     -0.683437    17A     -0.658710    18A     -0.631712
      19A     -0.613066    20A     -0.540647    21A     -0.512630
      22A     -0.509168    23A     -0.471551

  @DF-RHF Final Energy:  -376.51577884047998

   => Energetics <=

    Nuclear Repulsion Energy =            230.4804825875228858
    One-Electron Energy =                -974.4345191701439717
    Two-Electron Energy =                 367.4382577421410474
    Total Energy =                       -376.5157788404799817
  Basis Set: (AUG-CC-PVTZ AUX)
    Blend: AUG-CC-PVTZ-RI
    Molecular point group: c1

    Geometry (in Angstrom), charge = 0, multiplicity = 1:

       Center              X                  Y                   Z               Mass
    ------------   -----------------  -----------------  -----------------  -----------------
         O            1.453901575448    -0.978717913400     0.000252415186    15.994914619570
         O           -1.467727424552     0.984736086600     0.000235415186    15.994914619570
         O            1.245214175448     1.269064286600    -0.000030484814    15.994914619570
         O           -1.220141424552    -1.279976913400    -0.000117584814    15.994914619570
         C            0.740778575448     0.163136086600    -0.000309584814    12.000000000000
         C           -0.754608424552    -0.157117913400    -0.000226584814    12.000000000000
         H            2.394765575448    -0.703913913400     0.000539415186     1.007825032230
         H           -2.408592424552     0.709935086600     0.000452415186     1.007825032230

  Basis Set: AUG-CC-PVTZ
    Blend: AUG-CC-PVTZ
  Basis Set: (AUG-CC-PVTZ AUX)
    Blend: AUG-CC-PVTZ-JKFIT
	 Reference Energy          =    -376.5157788404799817 [Eh]
	 Singles Energy            =      -0.0000000000000000 [Eh]
	 Same-Spin Energy          =      -0.3514769138035628 [Eh]
	 Opposite-Spin Energy      =      -1.0144662572245984 [Eh]
	 Correlation Energy        =      -1.3659431710281611 [Eh]
	 Total Energy              =    -377.8817220115081454 [Eh]

	 ================> DF-SCS-MP2 Energies <==================
	-----------------------------------------------------------
	 SCS Same-Spin Scale       =       0.3333333333333333 [-]
	 SCS Opposite-Spin Scale   =       1.2000000000000000 [-]
	 SCS Same-Spin Energy      =      -0.1171589712678543 [Eh]
	 SCS Opposite-Spin Energy  =      -1.2173595086695179 [Eh]
	 SCS Correlation Energy    =      -1.3345184799373722 [Eh]
	 SCS Total Energy          =    -377.8502973204173259 [Eh]
	-----------------------------------------------------------

  Dipole Moment: [D]
     X:    -0.1219      Y:     0.0218      Z:     0.0002     Total:     0.1239

*** Psi4 exiting successfully. Buy a developer a beer!
