                               Psi4 1.3.2 release

  ==> Input File <==

--------------------------------------------------------------------------
#psi4
#
memory 32 gb

molecule  {
0 1
  O        1.3375532    -1.0500135     0.0002663
  O       -1.4608130     0.9817270     0.0002230
  O        1.2132250     1.2829860    -0.0000330
  O       -1.2132270    -1.2829860    -0.0001300
  C        0.7476930     0.1601270    -0.0003220
  C       -0.7476940    -0.1601270    -0.0002390
  H        2.4016800    -0.7069230     0.0005270
  H       -2.4016780     0.7069260     0.0004400
units angstrom
no_reorient  #important for SAPT in psi4, default
symmetry c1  #important for SAPT in psi4, default
}

set PROPERTIES_ORIGIN ["COM"]
properties('MP2/aug-cc-pvtz', properties = ['dipole'])
--------------------------------------------------------------------------

    Molecular point group: c1
  Charge       = 0
  Multiplicity = 1
  Basis Set: AUG-CC-PVTZ
    Blend: AUG-CC-PVTZ
  Basis Set: (AUG-CC-PVTZ AUX)
    Blend: AUG-CC-PVTZ-JKFIT

    Orbital Energies [Eh]
    ---------------------

    Doubly Occupied:

       1A    -20.661262     2A    -20.641268     3A    -20.598143
       4A    -20.588079     5A    -11.431820     6A    -11.423451
       7A     -1.503405     8A     -1.469454     9A     -1.402804
      10A     -1.380640    11A     -0.977520    12A     -0.823718
      13A     -0.749149    14A     -0.733912    15A     -0.701326
      16A     -0.682469    17A     -0.652654    18A     -0.627808
      19A     -0.602856    20A     -0.543340    21A     -0.515482
      22A     -0.506016    23A     -0.465930

  @DF-RHF Final Energy:  -376.48826665162863

   => Energetics <=

    Nuclear Repulsion Energy =            230.9798355126236515
    One-Electron Energy =                -975.5711916196814855
    Two-Electron Energy =                 368.1030894554292558
    Total Energy =                       -376.4882666516286349
  Basis Set: (AUG-CC-PVTZ AUX)
    Blend: AUG-CC-PVTZ-RI
    Molecular point group: c1

    Geometry (in Angstrom), charge = 0, multiplicity = 1:

       Center              X                  Y                   Z               Mass
    ------------   -----------------  -----------------  -----------------  -----------------
         O            1.359460696992    -1.037876937202     0.000272281340    15.994914619570
         O           -1.438905503008     0.993863562798     0.000228981340    15.994914619570
         O            1.235132496992     1.295122562798    -0.000027018660    15.994914619570
         O           -1.191319503008    -1.270849437202    -0.000124018660    15.994914619570
         C            0.769600496992     0.172263562798    -0.000316018660    12.000000000000
         C           -0.725786503008    -0.147990437202    -0.000233018660    12.000000000000
         H            2.423587496992    -0.694786437202     0.000532981340     1.007825032230
         H           -2.379770503008     0.719062562798     0.000445981340     1.007825032230

  Basis Set: AUG-CC-PVTZ
    Blend: AUG-CC-PVTZ
  Basis Set: (AUG-CC-PVTZ AUX)
    Blend: AUG-CC-PVTZ-JKFIT
	 Reference Energy          =    -376.4882666516286349 [Eh]
	 Singles Energy            =      -0.0000000000000000 [Eh]
	 Same-Spin Energy          =      -0.3545480565755658 [Eh]
	 Opposite-Spin Energy      =      -1.0209881352903396 [Eh]
	 Correlation Energy        =      -1.3755361918659053 [Eh]
	 Total Energy              =    -377.8638028434945682 [Eh]

	 ================> DF-SCS-MP2 Energies <==================
	-----------------------------------------------------------
	 SCS Same-Spin Scale       =       0.3333333333333333 [-]
	 SCS Opposite-Spin Scale   =       1.2000000000000000 [-]
	 SCS Same-Spin Energy      =      -0.1181826855251886 [Eh]
	 SCS Opposite-Spin Energy  =      -1.2251857623484075 [Eh]
	 SCS Correlation Energy    =      -1.3433684478735961 [Eh]
	 SCS Total Energy          =    -377.8316350995022503 [Eh]
	-----------------------------------------------------------

  Dipole Moment: [D]
     X:     0.2696      Y:    -0.0024      Z:     0.0002     Total:     0.2696

*** Psi4 exiting successfully. Buy a developer a beer!
