                               Psi4 1.4a3.dev225

  ==> Input File <==

--------------------------------------------------------------------------
#psi4
#
memory 32 gb

molecule  {
0 1
  O        1.4609920    -0.9816210     0.0001000
  O       -1.4609920     0.9816210     0.0000780
  O        1.2129570     1.2831620    -0.0000550
  O       -1.2129570    -1.2831620    -0.0001280
  C        0.7668340     0.2063794     0.0000025
  C       -0.7476960    -0.1601870    -0.0000240
  H        2.4018370    -0.7064870     0.0001070
  H       -2.4018370     0.7064860     0.0000460
units angstrom
no_reorient  #important for SAPT in psi4, default
symmetry c1  #important for SAPT in psi4, default
}

set PROPERTIES_ORIGIN ["COM"]
properties('MP2/aug-cc-pvtz', properties = ['dipole'])
--------------------------------------------------------------------------

    Molecular point group: c1
  Charge       = 0
  Multiplicity = 1
  Basis Set: AUG-CC-PVTZ
    Blend: AUG-CC-PVTZ
  Basis Set: (AUG-CC-PVTZ AUX)
    Blend: AUG-CC-PVTZ-JKFIT

    Orbital Energies [Eh]
    ---------------------

    Doubly Occupied:

       1A    -20.644293     2A    -20.636998     3A    -20.600868
       4A    -20.590777     5A    -11.428967     6A    -11.427298
       7A     -1.512002     8A     -1.481253     9A     -1.412432
      10A     -1.387379    11A     -0.976173    12A     -0.835793
      13A     -0.748460    14A     -0.739955    15A     -0.714210
      16A     -0.682769    17A     -0.660009    18A     -0.630974
      19A     -0.614500    20A     -0.546889    21A     -0.524981
      22A     -0.508689    23A     -0.465866

  @DF-RHF Final Energy:  -376.51560997493101

   => Energetics <=

    Nuclear Repulsion Energy =            230.6836684323228042
    One-Electron Energy =                -974.8554815720694933
    Two-Electron Energy =                 367.6562031648157358
    Total Energy =                       -376.5156099749310101
  Basis Set: (AUG-CC-PVTZ AUX)
    Blend: AUG-CC-PVTZ-RI
    Molecular point group: c1

    Geometry (in Angstrom), charge = 0, multiplicity = 1:

       Center              X                  Y                   Z               Mass
    ------------   -----------------  -----------------  -----------------  -----------------
         O            1.458440133645    -0.987780296536     0.000102042077    15.994914619570
         O           -1.463543866355     0.975461703464     0.000080042077    15.994914619570
         O            1.210405133645     1.277002703464    -0.000052957923    15.994914619570
         O           -1.215508866355    -1.289321296536    -0.000125957923    15.994914619570
         C            0.764282133645     0.200220103464     0.000004542077    12.000000000000
         C           -0.750247866355    -0.166346296536    -0.000021957923    12.000000000000
         H            2.399285133645    -0.712646296536     0.000109042077     1.007825032230
         H           -2.404388866355     0.700326703464     0.000048042077     1.007825032230

  Basis Set: AUG-CC-PVTZ
    Blend: AUG-CC-PVTZ
  Basis Set: (AUG-CC-PVTZ AUX)
    Blend: AUG-CC-PVTZ-JKFIT
	 Reference Energy          =    -376.5156099749310101 [Eh]
	 Singles Energy            =      -0.0000000000000000 [Eh]
	 Same-Spin Energy          =      -0.3506135028214494 [Eh]
	 Opposite-Spin Energy      =      -1.0126587571137520 [Eh]
	 Correlation Energy        =      -1.3632722599352014 [Eh]
	 Total Energy              =    -377.8788822348662393 [Eh]

	 ================> DF-SCS-MP2 Energies <==================
	-----------------------------------------------------------
	 SCS Same-Spin Scale       =       0.3333333333333333 [-]
	 SCS Opposite-Spin Scale   =       1.2000000000000000 [-]
	 SCS Same-Spin Energy      =      -0.1168711676071498 [Eh]
	 SCS Opposite-Spin Energy  =      -1.2151905085365022 [Eh]
	 SCS Correlation Energy    =      -1.3320616761436521 [Eh]
	 SCS Total Energy          =    -377.8476716510746769 [Eh]
	-----------------------------------------------------------

  Dipole Moment: [D]
     X:     0.0255      Y:     0.3380      Z:     0.0002     Total:     0.3389

*** Psi4 exiting successfully. Buy a developer a beer!
