                               Psi4 1.3.2 release

  ==> Input File <==

--------------------------------------------------------------------------
#psi4
#
memory 32 gb

molecule  {
0 1
  O        1.4608160    -0.9817270     0.0002400
  O       -1.4608130     0.9817270     0.0002230
  O        1.2904177     1.2477769    -0.0000532
  O       -1.2132270    -1.2829860    -0.0001300
  C        0.7476930     0.1601270    -0.0003220
  C       -0.7476940    -0.1601270    -0.0002390
  H        2.4016800    -0.7069230     0.0005270
  H       -2.4016780     0.7069260     0.0004400
units angstrom
no_reorient  #important for SAPT in psi4, default
symmetry c1  #important for SAPT in psi4, default
}

set PROPERTIES_ORIGIN ["COM"]
properties('MP2/aug-cc-pvtz', properties = ['dipole'])
--------------------------------------------------------------------------

    Molecular point group: c1
  Charge       = 0
  Multiplicity = 1
  Basis Set: AUG-CC-PVTZ
    Blend: AUG-CC-PVTZ
  Basis Set: (AUG-CC-PVTZ AUX)
    Blend: AUG-CC-PVTZ-JKFIT

    Orbital Energies [Eh]
    ---------------------

    Doubly Occupied:

       1A    -20.649336     2A    -20.639428     3A    -20.597190
       4A    -20.591945     5A    -11.436364     6A    -11.430938
       7A     -1.509651     8A     -1.481546     9A     -1.402160
      10A     -1.382912    11A     -0.991138    12A     -0.844978
      13A     -0.748985    14A     -0.738518    15A     -0.716590
      16A     -0.683775    17A     -0.659206    18A     -0.631947
      19A     -0.614057    20A     -0.540042    21A     -0.514043
      22A     -0.507423    23A     -0.472634

  @DF-RHF Final Energy:  -376.51477591477817

   => Energetics <=

    Nuclear Repulsion Energy =            230.3557117191792543
    One-Electron Energy =                -974.1713634900971783
    Two-Electron Energy =                 367.3008758561397826
    Total Energy =                       -376.5147759147781699
  Basis Set: (AUG-CC-PVTZ AUX)
    Blend: AUG-CC-PVTZ-RI
    Molecular point group: c1

    Geometry (in Angstrom), charge = 0, multiplicity = 1:

       Center              X                  Y                   Z               Mass
    ------------   -----------------  -----------------  -----------------  -----------------
         O            1.447096433099    -0.975469301305     0.000254245810    15.994914619570
         O           -1.474532566901     0.987984698695     0.000237245810    15.994914619570
         O            1.276698133099     1.254034598695    -0.000038954190    15.994914619570
         O           -1.226946566901    -1.276728301305    -0.000115754190    15.994914619570
         C            0.733973433099     0.166384698695    -0.000307754190    12.000000000000
         C           -0.761413566901    -0.153869301305    -0.000224754190    12.000000000000
         H            2.387960433099    -0.700665301305     0.000541245810     1.007825032230
         H           -2.415397566901     0.713183698695     0.000454245810     1.007825032230

  Basis Set: AUG-CC-PVTZ
    Blend: AUG-CC-PVTZ
  Basis Set: (AUG-CC-PVTZ AUX)
    Blend: AUG-CC-PVTZ-JKFIT
	 Reference Energy          =    -376.5147759147781699 [Eh]
	 Singles Energy            =      -0.0000000000000000 [Eh]
	 Same-Spin Energy          =      -0.3514864256508891 [Eh]
	 Opposite-Spin Energy      =      -1.0144910011118813 [Eh]
	 Correlation Energy        =      -1.3659774267627705 [Eh]
	 Total Energy              =    -377.8807533415409239 [Eh]

	 ================> DF-SCS-MP2 Energies <==================
	-----------------------------------------------------------
	 SCS Same-Spin Scale       =       0.3333333333333333 [-]
	 SCS Opposite-Spin Scale   =       1.2000000000000000 [-]
	 SCS Same-Spin Energy      =      -0.1171621418836297 [Eh]
	 SCS Opposite-Spin Energy  =      -1.2173892013342575 [Eh]
	 SCS Correlation Energy    =      -1.3345513432178873 [Eh]
	 SCS Total Energy          =    -377.8493272579960376 [Eh]
	-----------------------------------------------------------

  Dipole Moment: [D]
     X:    -0.2431      Y:     0.0469      Z:     0.0002     Total:     0.2476

*** Psi4 exiting successfully. Buy a developer a beer!
