                               Psi4 1.4a3.dev225

  ==> Input File <==

--------------------------------------------------------------------------
#psi4
#
memory 32 gb

molecule  {
0 1
  O        1.4609920    -0.9816210     0.0001000
  O       -1.4609920     0.9816210     0.0000780
  O        1.2129570     1.2831620    -0.0000550
  O       -1.2129570    -1.2831620    -0.0001280
  C        0.7370996     0.1771492     0.0000036
  C       -0.7476960    -0.1601870    -0.0000240
  H        2.4018370    -0.7064870     0.0001070
  H       -2.4018370     0.7064860     0.0000460
units angstrom
no_reorient  #important for SAPT in psi4, default
symmetry c1  #important for SAPT in psi4, default
}

set PROPERTIES_ORIGIN ["COM"]
properties('MP2/aug-cc-pvtz', properties = ['dipole'])
--------------------------------------------------------------------------

    Molecular point group: c1
  Charge       = 0
  Multiplicity = 1
  Basis Set: AUG-CC-PVTZ
    Blend: AUG-CC-PVTZ
  Basis Set: (AUG-CC-PVTZ AUX)
    Blend: AUG-CC-PVTZ-JKFIT

    Orbital Energies [Eh]
    ---------------------

    Doubly Occupied:

       1A    -20.646566     2A    -20.640283     3A    -20.596923
       4A    -20.594516     5A    -11.432102     6A    -11.430735
       7A     -1.507468     8A     -1.476920     9A     -1.404437
      10A     -1.386247    11A     -0.990034    12A     -0.841353
      13A     -0.747260    14A     -0.738158    15A     -0.716011
      16A     -0.682590    17A     -0.657962    18A     -0.628858
      19A     -0.614756    20A     -0.542653    21A     -0.514463
      22A     -0.511104    23A     -0.471556

  @DF-RHF Final Energy:  -376.51562009129043

   => Energetics <=

    Nuclear Repulsion Energy =            230.6574635842779628
    One-Electron Energy =                -974.8002553389563900
    Two-Electron Energy =                 367.6271716633880260
    Total Energy =                       -376.5156200912904296
  Basis Set: (AUG-CC-PVTZ AUX)
    Blend: AUG-CC-PVTZ-RI
    Molecular point group: c1

    Geometry (in Angstrom), charge = 0, multiplicity = 1:

       Center              X                  Y                   Z               Mass
    ------------   -----------------  -----------------  -----------------  -----------------
         O            1.462404926985    -0.983882733367     0.000101895403    15.994914619570
         O           -1.459579073015     0.979359266633     0.000079895403    15.994914619570
         O            1.214369926985     1.280900266633    -0.000053104597    15.994914619570
         O           -1.211544073015    -1.285423733367    -0.000126104597    15.994914619570
         C            0.738512526985     0.174887466633     0.000005495403    12.000000000000
         C           -0.746283073015    -0.162448733367    -0.000022104597    12.000000000000
         H            2.403249926985    -0.708748733367     0.000108895403     1.007825032230
         H           -2.400424073015     0.704224266633     0.000047895403     1.007825032230

  Basis Set: AUG-CC-PVTZ
    Blend: AUG-CC-PVTZ
  Basis Set: (AUG-CC-PVTZ AUX)
    Blend: AUG-CC-PVTZ-JKFIT
	 Reference Energy          =    -376.5156200912904296 [Eh]
	 Singles Energy            =      -0.0000000000000000 [Eh]
	 Same-Spin Energy          =      -0.3514514323232164 [Eh]
	 Opposite-Spin Energy      =      -1.0145777695212825 [Eh]
	 Correlation Energy        =      -1.3660292018444988 [Eh]
	 Total Energy              =    -377.8816492931349558 [Eh]

	 ================> DF-SCS-MP2 Energies <==================
	-----------------------------------------------------------
	 SCS Same-Spin Scale       =       0.3333333333333333 [-]
	 SCS Opposite-Spin Scale   =       1.2000000000000000 [-]
	 SCS Same-Spin Energy      =      -0.1171504774410721 [Eh]
	 SCS Opposite-Spin Energy  =      -1.2174933234255390 [Eh]
	 SCS Correlation Energy    =      -1.3346438008666111 [Eh]
	 SCS Total Energy          =    -377.8502638921570451 [Eh]
	-----------------------------------------------------------

  Dipole Moment: [D]
     X:    -0.0843      Y:     0.1395      Z:     0.0002     Total:     0.1630

*** Psi4 exiting successfully. Buy a developer a beer!
