                               Psi4 1.4a3.dev225

  ==> Input File <==

--------------------------------------------------------------------------
#psi4
#
memory 32 gb

molecule  {
0 1
  O        1.4609920    -0.9816210     0.0001000
  O       -1.4609920     0.9816210     0.0000780
  O        1.2129570     1.2831620    -0.0000550
  O       -1.2129570    -1.2831620    -0.0001280
  C        0.7285580     0.1139946     0.0000075
  C       -0.7476960    -0.1601870    -0.0000240
  H        2.4018370    -0.7064870     0.0001070
  H       -2.4018370     0.7064860     0.0000460
units angstrom
no_reorient  #important for SAPT in psi4, default
symmetry c1  #important for SAPT in psi4, default
}

set PROPERTIES_ORIGIN ["COM"]
properties('MP2/aug-cc-pvtz', properties = ['dipole'])
--------------------------------------------------------------------------

    Molecular point group: c1
  Charge       = 0
  Multiplicity = 1
  Basis Set: AUG-CC-PVTZ
    Blend: AUG-CC-PVTZ
  Basis Set: (AUG-CC-PVTZ AUX)
    Blend: AUG-CC-PVTZ-JKFIT

    Orbital Energies [Eh]
    ---------------------

    Doubly Occupied:

       1A    -20.654518     2A    -20.647452     3A    -20.595885
       4A    -20.585922     5A    -11.434741     6A    -11.433093
       7A     -1.512223     8A     -1.484233     9A     -1.398281
      10A     -1.366358    11A     -0.999526    12A     -0.855396
      13A     -0.752289    14A     -0.736788    15A     -0.722292
      16A     -0.686027    17A     -0.655509    18A     -0.634308
      19A     -0.606819    20A     -0.534288    21A     -0.512863
      22A     -0.494775    23A     -0.472148

  @DF-RHF Final Energy:  -376.50795259336104

   => Energetics <=

    Nuclear Repulsion Energy =            230.6354820989645589
    One-Electron Energy =                -974.7354039296752717
    Two-Electron Energy =                 367.5919692373497014
    Total Energy =                       -376.5079525933610398
  Basis Set: (AUG-CC-PVTZ AUX)
    Blend: AUG-CC-PVTZ-RI
    Molecular point group: c1

    Geometry (in Angstrom), charge = 0, multiplicity = 1:

       Center              X                  Y                   Z               Mass
    ------------   -----------------  -----------------  -----------------  -----------------
         O            1.463543866355    -0.975461681067     0.000101375376    15.994914619570
         O           -1.458440133645     0.987780318933     0.000079375376    15.994914619570
         O            1.215508866355     1.289321318933    -0.000053624624    15.994914619570
         O           -1.210405133645    -1.277002681067    -0.000126624624    15.994914619570
         C            0.731109866355     0.120153918933     0.000008875376    12.000000000000
         C           -0.745144133645    -0.154027681067    -0.000022624624    12.000000000000
         H            2.404388866355    -0.700327681067     0.000108375376     1.007825032230
         H           -2.399285133645     0.712645318933     0.000047375376     1.007825032230

  Basis Set: AUG-CC-PVTZ
    Blend: AUG-CC-PVTZ
  Basis Set: (AUG-CC-PVTZ AUX)
    Blend: AUG-CC-PVTZ-JKFIT
	 Reference Energy          =    -376.5079525933610398 [Eh]
	 Singles Energy            =      -0.0000000000000000 [Eh]
	 Same-Spin Energy          =      -0.3525322089472877 [Eh]
	 Opposite-Spin Energy      =      -1.0166466678367527 [Eh]
	 Correlation Energy        =      -1.3691788767840405 [Eh]
	 Total Energy              =    -377.8771314701450592 [Eh]

	 ================> DF-SCS-MP2 Energies <==================
	-----------------------------------------------------------
	 SCS Same-Spin Scale       =       0.3333333333333333 [-]
	 SCS Opposite-Spin Scale   =       1.2000000000000000 [-]
	 SCS Same-Spin Energy      =      -0.1175107363157626 [Eh]
	 SCS Opposite-Spin Energy  =      -1.2199760014041032 [Eh]
	 SCS Correlation Energy    =      -1.3374867377198658 [Eh]
	 SCS Total Energy          =    -377.8454393310809110 [Eh]
	-----------------------------------------------------------

  Dipole Moment: [D]
     X:    -0.0082      Y:    -0.3027      Z:     0.0002     Total:     0.3028

*** Psi4 exiting successfully. Buy a developer a beer!
