                               Psi4 1.3.2 release

  ==> Input File <==

--------------------------------------------------------------------------
#psi4
#
memory 32 gb

molecule  {
0 1
  O        1.4608160    -0.9817270     0.0002400
  O       -1.4608130     0.9817270     0.0002230
  O        1.2132250     1.2829860    -0.0000330
  O       -1.2132270    -1.2829860    -0.0001300
  C        0.8006643     0.0753093    -0.0002803
  C       -0.7476940    -0.1601270    -0.0002390
  H        2.4016800    -0.7069230     0.0005270
  H       -2.4016780     0.7069260     0.0004400
units angstrom
no_reorient  #important for SAPT in psi4, default
symmetry c1  #important for SAPT in psi4, default
}

set PROPERTIES_ORIGIN ["COM"]
properties('MP2/aug-cc-pvtz', properties = ['dipole'])
--------------------------------------------------------------------------

    Molecular point group: c1
  Charge       = 0
  Multiplicity = 1
  Basis Set: AUG-CC-PVTZ
    Blend: AUG-CC-PVTZ
  Basis Set: (AUG-CC-PVTZ AUX)
    Blend: AUG-CC-PVTZ-JKFIT

    Orbital Energies [Eh]
    ---------------------

    Doubly Occupied:

       1A    -20.674054     2A    -20.643129     3A    -20.588212
       4A    -20.574487     5A    -11.433756     6A    -11.428242
       7A     -1.546683     8A     -1.487216     9A     -1.391397
      10A     -1.360704    11A     -0.982831    12A     -0.867300
      13A     -0.764438    14A     -0.734703    15A     -0.725293
      16A     -0.698918    17A     -0.655814    18A     -0.642678
      19A     -0.593563    20A     -0.529607    21A     -0.508303
      22A     -0.489587    23A     -0.459309

  @DF-RHF Final Energy:  -376.50117470745215

   => Energetics <=

    Nuclear Repulsion Energy =            230.5873577434837216
    One-Electron Energy =                -974.6166132734458643
    Two-Electron Energy =                 367.5280808225099918
    Total Energy =                       -376.5011747074521509
  Basis Set: (AUG-CC-PVTZ AUX)
    Blend: AUG-CC-PVTZ-RI
    Molecular point group: c1

    Geometry (in Angstrom), charge = 0, multiplicity = 1:

       Center              X                  Y                   Z               Mass
    ------------   -----------------  -----------------  -----------------  -----------------
         O            1.453752725026    -0.970417417389     0.000245095363    15.994914619570
         O           -1.467876274974     0.993036582611     0.000228095363    15.994914619570
         O            1.206161725026     1.294295582611    -0.000027904637    15.994914619570
         O           -1.220290274974    -1.271676417389    -0.000124904637    15.994914619570
         C            0.793601025026     0.086618882611    -0.000275204637    12.000000000000
         C           -0.754757274974    -0.148817417389    -0.000233904637    12.000000000000
         H            2.394616725026    -0.695613417389     0.000532095363     1.007825032230
         H           -2.408741274974     0.718235582611     0.000445095363     1.007825032230

  Basis Set: AUG-CC-PVTZ
    Blend: AUG-CC-PVTZ
  Basis Set: (AUG-CC-PVTZ AUX)
    Blend: AUG-CC-PVTZ-JKFIT
	 Reference Energy          =    -376.5011747074521509 [Eh]
	 Singles Energy            =      -0.0000000000000000 [Eh]
	 Same-Spin Energy          =      -0.3519744956490287 [Eh]
	 Opposite-Spin Energy      =      -1.0145321819372870 [Eh]
	 Correlation Energy        =      -1.3665066775863157 [Eh]
	 Total Energy              =    -377.8676813850384519 [Eh]

	 ================> DF-SCS-MP2 Energies <==================
	-----------------------------------------------------------
	 SCS Same-Spin Scale       =       0.3333333333333333 [-]
	 SCS Opposite-Spin Scale   =       1.2000000000000000 [-]
	 SCS Same-Spin Energy      =      -0.1173248318830096 [Eh]
	 SCS Opposite-Spin Energy  =      -1.2174386183247443 [Eh]
	 SCS Correlation Energy    =      -1.3347634502077539 [Eh]
	 SCS Total Energy          =    -377.8359381576598821 [Eh]
	-----------------------------------------------------------

  Dipole Moment: [D]
     X:     0.3892      Y:    -0.6954      Z:     0.0004     Total:     0.7969

*** Psi4 exiting successfully. Buy a developer a beer!
