                               Psi4 1.3.2 release

  ==> Input File <==

--------------------------------------------------------------------------
#psi4
#
memory 32 gb

molecule  {
0 1
  O        1.4608160    -0.9817270     0.0002400
  O       -1.4608130     0.9817270     0.0002230
  O        1.2132250     1.2829860    -0.0000330
  O       -1.2132270    -1.2829860    -0.0001300
  C        0.6947217     0.2449447    -0.0003637
  C       -0.7476940    -0.1601270    -0.0002390
  H        2.4016800    -0.7069230     0.0005270
  H       -2.4016780     0.7069260     0.0004400
units angstrom
no_reorient  #important for SAPT in psi4, default
symmetry c1  #important for SAPT in psi4, default
}

set PROPERTIES_ORIGIN ["COM"]
properties('MP2/aug-cc-pvtz', properties = ['dipole'])
--------------------------------------------------------------------------

    Molecular point group: c1
  Charge       = 0
  Multiplicity = 1
  Basis Set: AUG-CC-PVTZ
    Blend: AUG-CC-PVTZ
  Basis Set: (AUG-CC-PVTZ AUX)
    Blend: AUG-CC-PVTZ-JKFIT

    Orbital Energies [Eh]
    ---------------------

    Doubly Occupied:

       1A    -20.649452     2A    -20.616972     3A    -20.610468
       4A    -20.599246     5A    -11.435812     6A    -11.429447
       7A     -1.514402     8A     -1.483978     9A     -1.402923
      10A     -1.375749    11A     -1.000548    12A     -0.828212
      13A     -0.748276    14A     -0.744916    15A     -0.706542
      16A     -0.685246    17A     -0.655870    18A     -0.623637
      19A     -0.621935    20A     -0.545076    21A     -0.520819
      22A     -0.511828    23A     -0.473840

  @DF-RHF Final Energy:  -376.50406526798054

   => Energetics <=

    Nuclear Repulsion Energy =            230.8518463836070396
    One-Electron Energy =                -975.1414336099728644
    Two-Electron Energy =                 367.7855219583852886
    Total Energy =                       -376.5040652679805362
  Basis Set: (AUG-CC-PVTZ AUX)
    Blend: AUG-CC-PVTZ-RI
    Molecular point group: c1

    Geometry (in Angstrom), charge = 0, multiplicity = 1:

       Center              X                  Y                   Z               Mass
    ------------   -----------------  -----------------  -----------------  -----------------
         O            1.467879141398    -0.993036649802     0.000256215943    15.994914619570
         O           -1.453749858602     0.970417350198     0.000239215943    15.994914619570
         O            1.220288141398     1.271676350198    -0.000016784057    15.994914619570
         O           -1.206163858602    -1.294295649802    -0.000113784057    15.994914619570
         C            0.701784841398     0.233635050198    -0.000347484057    12.000000000000
         C           -0.740630858602    -0.171436649802    -0.000222784057    12.000000000000
         H            2.408743141398    -0.718232649802     0.000543215943     1.007825032230
         H           -2.394614858602     0.695616350198     0.000456215943     1.007825032230

  Basis Set: AUG-CC-PVTZ
    Blend: AUG-CC-PVTZ
  Basis Set: (AUG-CC-PVTZ AUX)
    Blend: AUG-CC-PVTZ-JKFIT
	 Reference Energy          =    -376.5040652679805362 [Eh]
	 Singles Energy            =      -0.0000000000000000 [Eh]
	 Same-Spin Energy          =      -0.3515314150531341 [Eh]
	 Opposite-Spin Energy      =      -1.0153662443670437 [Eh]
	 Correlation Energy        =      -1.3668976594201778 [Eh]
	 Total Energy              =    -377.8709629274007398 [Eh]

	 ================> DF-SCS-MP2 Energies <==================
	-----------------------------------------------------------
	 SCS Same-Spin Scale       =       0.3333333333333333 [-]
	 SCS Opposite-Spin Scale   =       1.2000000000000000 [-]
	 SCS Same-Spin Energy      =      -0.1171771383510447 [Eh]
	 SCS Opposite-Spin Energy  =      -1.2184394932404523 [Eh]
	 SCS Correlation Energy    =      -1.3356166315914970 [Eh]
	 SCS Total Energy          =    -377.8396818995720423 [Eh]
	-----------------------------------------------------------

  Dipole Moment: [D]
     X:    -0.4445      Y:     0.7094      Z:    -0.0000     Total:     0.8371

*** Psi4 exiting successfully. Buy a developer a beer!
