                               Psi4 1.3.2 release

  ==> Input File <==

--------------------------------------------------------------------------
#psi4
#
memory 32 gb

molecule  {
0 1
  O        1.3794272    -1.0286905     0.0001832
  O       -1.4608130     0.9817270     0.0002230
  O        1.2132250     1.2829860    -0.0000330
  O       -1.2132270    -1.2829860    -0.0001300
  C        0.7476930     0.1601270    -0.0003220
  C       -0.7476940    -0.1601270    -0.0002390
  H        2.4016800    -0.7069230     0.0005270
  H       -2.4016780     0.7069260     0.0004400
units angstrom
no_reorient  #important for SAPT in psi4, default
symmetry c1  #important for SAPT in psi4, default
}

set PROPERTIES_ORIGIN ["COM"]
properties('MP2/aug-cc-pvtz', properties = ['dipole'])
--------------------------------------------------------------------------

    Molecular point group: c1
  Charge       = 0
  Multiplicity = 1
  Basis Set: AUG-CC-PVTZ
    Blend: AUG-CC-PVTZ
  Basis Set: (AUG-CC-PVTZ AUX)
    Blend: AUG-CC-PVTZ-JKFIT

    Orbital Energies [Eh]
    ---------------------

    Doubly Occupied:

       1A    -20.656699     2A    -20.642801     3A    -20.596519
       4A    -20.589860     5A    -11.431446     6A    -11.425989
       7A     -1.504707     8A     -1.472417     9A     -1.402413
      10A     -1.382271    11A     -0.980690    12A     -0.829757
      13A     -0.748365    14A     -0.735215    15A     -0.706204
      16A     -0.682585    17A     -0.655486    18A     -0.629028
      19A     -0.606847    20A     -0.542729    21A     -0.514058
      22A     -0.507572    23A     -0.467454

  @DF-RHF Final Energy:  -376.50072318815592

   => Energetics <=

    Nuclear Repulsion Energy =            230.8223049600298964
    One-Electron Energy =                -975.2238345046639552
    Two-Electron Energy =                 367.9008063564781423
    Total Energy =                       -376.5007231881559164
  Basis Set: (AUG-CC-PVTZ AUX)
    Blend: AUG-CC-PVTZ-RI
    Molecular point group: c1

    Geometry (in Angstrom), charge = 0, multiplicity = 1:

       Center              X                  Y                   Z               Mass
    ------------   -----------------  -----------------  -----------------  -----------------
         O            1.393892408437    -1.020343685467     0.000203950748    15.994914619570
         O           -1.446347791563     0.990073814533     0.000243750748    15.994914619570
         O            1.227690208437     1.291332814533    -0.000012249252    15.994914619570
         O           -1.198761791563    -1.274639185467    -0.000109249252    15.994914619570
         C            0.762158208437     0.168473814533    -0.000301249252    12.000000000000
         C           -0.733228791563    -0.151780185467    -0.000218249252    12.000000000000
         H            2.416145208437    -0.698576185467     0.000547750748     1.007825032230
         H           -2.387212791563     0.715272814533     0.000460750748     1.007825032230

  Basis Set: AUG-CC-PVTZ
    Blend: AUG-CC-PVTZ
  Basis Set: (AUG-CC-PVTZ AUX)
    Blend: AUG-CC-PVTZ-JKFIT
	 Reference Energy          =    -376.5007231881559164 [Eh]
	 Singles Energy            =      -0.0000000000000000 [Eh]
	 Same-Spin Energy          =      -0.3534602849498670 [Eh]
	 Opposite-Spin Energy      =      -1.0186261910016783 [Eh]
	 Correlation Energy        =      -1.3720864759515452 [Eh]
	 Total Energy              =    -377.8728096641074785 [Eh]

	 ================> DF-SCS-MP2 Energies <==================
	-----------------------------------------------------------
	 SCS Same-Spin Scale       =       0.3333333333333333 [-]
	 SCS Opposite-Spin Scale   =       1.2000000000000000 [-]
	 SCS Same-Spin Energy      =      -0.1178200949832890 [Eh]
	 SCS Opposite-Spin Energy  =      -1.2223514292020139 [Eh]
	 SCS Correlation Energy    =      -1.3401715241853029 [Eh]
	 SCS Total Energy          =    -377.8408947123411963 [Eh]
	-----------------------------------------------------------

  Dipole Moment: [D]
     X:     0.1863      Y:    -0.0017      Z:     0.0003     Total:     0.1863

*** Psi4 exiting successfully. Buy a developer a beer!
