                               Psi4 1.3.2 release

  ==> Input File <==

--------------------------------------------------------------------------
#psi4
#
memory 32 gb

molecule  {
0 1
  O        1.4608160    -0.9817270     0.0002400
  O       -1.4608130     0.9817270     0.0002230
  O        1.2132250     1.2829860    -0.0000330
  O       -1.2132270    -1.2829860    -0.0001300
  C        0.8290818     0.2070905    -0.0003031
  C       -0.7476940    -0.1601270    -0.0002390
  H        2.4016800    -0.7069230     0.0005270
  H       -2.4016780     0.7069260     0.0004400
units angstrom
no_reorient  #important for SAPT in psi4, default
symmetry c1  #important for SAPT in psi4, default
}

set PROPERTIES_ORIGIN ["COM"]
properties('MP2/aug-cc-pvtz', properties = ['dipole'])
--------------------------------------------------------------------------

    Molecular point group: c1
  Charge       = 0
  Multiplicity = 1
  Basis Set: AUG-CC-PVTZ
    Blend: AUG-CC-PVTZ
  Basis Set: (AUG-CC-PVTZ AUX)
    Blend: AUG-CC-PVTZ-JKFIT

    Orbital Energies [Eh]
    ---------------------

    Doubly Occupied:

       1A    -20.646068     2A    -20.639251     3A    -20.600176
       4A    -20.582945     5A    -11.425429     6A    -11.421048
       7A     -1.523150     8A     -1.479674     9A     -1.430969
      10A     -1.382938    11A     -0.955921    12A     -0.836717
      13A     -0.754837    14A     -0.738606    15A     -0.714672
      16A     -0.686975    17A     -0.662539    18A     -0.634152
      19A     -0.610487    20A     -0.548587    21A     -0.534724
      22A     -0.503506    23A     -0.453641

  @DF-RHF Final Energy:  -376.51088323138964

   => Energetics <=

    Nuclear Repulsion Energy =            230.6421012774879102
    One-Electron Energy =                -974.7719489762330340
    Two-Electron Energy =                 367.6189644673555108
    Total Energy =                       -376.5108832313896414
  Basis Set: (AUG-CC-PVTZ AUX)
    Blend: AUG-CC-PVTZ-RI
    Molecular point group: c1

    Geometry (in Angstrom), charge = 0, multiplicity = 1:

       Center              X                  Y                   Z               Mass
    ------------   -----------------  -----------------  -----------------  -----------------
         O            1.449963527506    -0.987989160024     0.000248135522    15.994914619570
         O           -1.471665472494     0.975464839976     0.000231135522    15.994914619570
         O            1.202372527506     1.276723839976    -0.000024864478    15.994914619570
         O           -1.224079472494    -1.289248160024    -0.000121864478    15.994914619570
         C            0.818229327506     0.200828339976    -0.000294964478    12.000000000000
         C           -0.758546472494    -0.166389160024    -0.000230864478    12.000000000000
         H            2.390827527506    -0.713185160024     0.000535135522     1.007825032230
         H           -2.412530472494     0.700663839976     0.000448135522     1.007825032230

  Basis Set: AUG-CC-PVTZ
    Blend: AUG-CC-PVTZ
  Basis Set: (AUG-CC-PVTZ AUX)
    Blend: AUG-CC-PVTZ-JKFIT
	 Reference Energy          =    -376.5108832313896414 [Eh]
	 Singles Energy            =      -0.0000000000000000 [Eh]
	 Same-Spin Energy          =      -0.3499552396244402 [Eh]
	 Opposite-Spin Energy      =      -1.0107325663082840 [Eh]
	 Correlation Energy        =      -1.3606878059327241 [Eh]
	 Total Energy              =    -377.8715710373223828 [Eh]

	 ================> DF-SCS-MP2 Energies <==================
	-----------------------------------------------------------
	 SCS Same-Spin Scale       =       0.3333333333333333 [-]
	 SCS Opposite-Spin Scale   =       1.2000000000000000 [-]
	 SCS Same-Spin Energy      =      -0.1166517465414801 [Eh]
	 SCS Opposite-Spin Energy  =      -1.2128790795699407 [Eh]
	 SCS Correlation Energy    =      -1.3295308261114207 [Eh]
	 SCS Total Energy          =    -377.8404140575010501 [Eh]
	-----------------------------------------------------------

  Dipole Moment: [D]
     X:     0.4012      Y:     0.3028      Z:     0.0002     Total:     0.5026

*** Psi4 exiting successfully. Buy a developer a beer!
