                               Psi4 1.3.2 release

  ==> Input File <==

--------------------------------------------------------------------------
#psi4
#
memory 32 gb

molecule  {
0 1
  O        1.4608160    -0.9817270     0.0002400
  O       -1.4608130     0.9817270     0.0002230
  O        1.1337643     1.3127246    -0.0000142
  O       -1.2132270    -1.2829860    -0.0001300
  C        0.7476930     0.1601270    -0.0003220
  C       -0.7476940    -0.1601270    -0.0002390
  H        2.4016800    -0.7069230     0.0005270
  H       -2.4016780     0.7069260     0.0004400
units angstrom
no_reorient  #important for SAPT in psi4, default
symmetry c1  #important for SAPT in psi4, default
}

set PROPERTIES_ORIGIN ["COM"]
properties('MP2/aug-cc-pvtz', properties = ['dipole'])
--------------------------------------------------------------------------

    Molecular point group: c1
  Charge       = 0
  Multiplicity = 1
  Basis Set: AUG-CC-PVTZ
    Blend: AUG-CC-PVTZ
  Basis Set: (AUG-CC-PVTZ AUX)
    Blend: AUG-CC-PVTZ-JKFIT

    Orbital Energies [Eh]
    ---------------------

    Doubly Occupied:

       1A    -20.652049     2A    -20.642351     3A    -20.594560
       4A    -20.589461     5A    -11.431683     6A    -11.426060
       7A     -1.507343     8A     -1.477123     9A     -1.404968
      10A     -1.385322    11A     -0.984661    12A     -0.845849
      13A     -0.747846    14A     -0.736217    15A     -0.718435
      16A     -0.682871    17A     -0.657748    18A     -0.630582
      19A     -0.609558    20A     -0.541844    21A     -0.514114
      22A     -0.507870    23A     -0.466863

  @DF-RHF Final Energy:  -376.51477533627315

   => Energetics <=

    Nuclear Repulsion Energy =            230.9967406475770133
    One-Electron Energy =                -975.5122764312902746
    Two-Electron Energy =                 368.0007604474401433
    Total Energy =                       -376.5147753362731464
  Basis Set: (AUG-CC-PVTZ AUX)
    Blend: AUG-CC-PVTZ-RI
    Molecular point group: c1

    Geometry (in Angstrom), charge = 0, multiplicity = 1:

       Center              X                  Y                   Z               Mass
    ------------   -----------------  -----------------  -----------------  -----------------
         O            1.474938526186    -0.987012490978     0.000247314319    15.994914619570
         O           -1.446690473814     0.976441509022     0.000230314319    15.994914619570
         O            1.147886826186     1.307439109022    -0.000006885681    15.994914619570
         O           -1.199104473814    -1.288271490978    -0.000122685681    15.994914619570
         C            0.761815526186     0.154841509022    -0.000314685681    12.000000000000
         C           -0.733571473814    -0.165412490978    -0.000231685681    12.000000000000
         H            2.415802526186    -0.712208490978     0.000534314319     1.007825032230
         H           -2.387555473814     0.701640509022     0.000447314319     1.007825032230

  Basis Set: AUG-CC-PVTZ
    Blend: AUG-CC-PVTZ
  Basis Set: (AUG-CC-PVTZ AUX)
    Blend: AUG-CC-PVTZ-JKFIT
	 Reference Energy          =    -376.5147753362731464 [Eh]
	 Singles Energy            =      -0.0000000000000000 [Eh]
	 Same-Spin Energy          =      -0.3515931598167291 [Eh]
	 Opposite-Spin Energy      =      -1.0146536166569899 [Eh]
	 Correlation Energy        =      -1.3662467764737189 [Eh]
	 Total Energy              =    -377.8810221127468481 [Eh]

	 ================> DF-SCS-MP2 Energies <==================
	-----------------------------------------------------------
	 SCS Same-Spin Scale       =       0.3333333333333333 [-]
	 SCS Opposite-Spin Scale   =       1.2000000000000000 [-]
	 SCS Same-Spin Energy      =      -0.1171977199389097 [Eh]
	 SCS Opposite-Spin Energy  =      -1.2175843399883879 [Eh]
	 SCS Correlation Energy    =      -1.3347820599272975 [Eh]
	 SCS Total Energy          =    -377.8495573962004528 [Eh]
	-----------------------------------------------------------

  Dipole Moment: [D]
     X:     0.2456      Y:    -0.0332      Z:     0.0002     Total:     0.2479

*** Psi4 exiting successfully. Buy a developer a beer!
