                               Psi4 1.3.2 release

  ==> Input File <==

--------------------------------------------------------------------------
#psi4
#
memory 32 gb

molecule  {
0 1
  O        1.4608160    -0.9817270     0.0002400
  O       -1.4608130     0.9817270     0.0002230
  O        1.2132250     1.2829860    -0.0000330
  O       -1.2132270    -1.2829860    -0.0001300
  C        0.8709558     0.2284135    -0.0002926
  C       -0.7476940    -0.1601270    -0.0002390
  H        2.4016800    -0.7069230     0.0005270
  H       -2.4016780     0.7069260     0.0004400
units angstrom
no_reorient  #important for SAPT in psi4, default
symmetry c1  #important for SAPT in psi4, default
}

set PROPERTIES_ORIGIN ["COM"]
properties('MP2/aug-cc-pvtz', properties = ['dipole'])
--------------------------------------------------------------------------

    Molecular point group: c1
  Charge       = 0
  Multiplicity = 1
  Basis Set: AUG-CC-PVTZ
    Blend: AUG-CC-PVTZ
  Basis Set: (AUG-CC-PVTZ AUX)
    Blend: AUG-CC-PVTZ-JKFIT

    Orbital Energies [Eh]
    ---------------------

    Doubly Occupied:

       1A    -20.647508     2A    -20.635058     3A    -20.604997
       4A    -20.576854     5A    -11.423742     6A    -11.413539
       7A     -1.540580     8A     -1.476336     9A     -1.443043
      10A     -1.377790    11A     -0.941452    12A     -0.832517
      13A     -0.761882    14A     -0.741161    15A     -0.712893
      16A     -0.693965    17A     -0.661792    18A     -0.633137
      19A     -0.612656    20A     -0.548608    21A     -0.545603
      22A     -0.499020    23A     -0.442309

  @DF-RHF Final Energy:  -376.49705120941235

   => Energetics <=

    Nuclear Repulsion Energy =            230.6852812631027234
    One-Electron Energy =                -974.8317769915381632
    Two-Electron Energy =                 367.6494445190230635
    Total Energy =                       -376.4970512094123478
  Basis Set: (AUG-CC-PVTZ AUX)
    Blend: AUG-CC-PVTZ-RI
    Molecular point group: c1

    Geometry (in Angstrom), charge = 0, multiplicity = 1:

       Center              X                  Y                   Z               Mass
    ------------   -----------------  -----------------  -----------------  -----------------
         O            1.444380036453    -0.990832374899     0.000246735449    15.994914619570
         O           -1.477248963547     0.972621625101     0.000229735449    15.994914619570
         O            1.196789036453     1.273880625101    -0.000026264551    15.994914619570
         O           -1.229662963547    -1.292091374899    -0.000123264551    15.994914619570
         C            0.854519836453     0.219308125101    -0.000285864551    12.000000000000
         C           -0.764129963547    -0.169232374899    -0.000232264551    12.000000000000
         H            2.385244036453    -0.716028374899     0.000533735449     1.007825032230
         H           -2.418113963547     0.697820625101     0.000446735449     1.007825032230

  Basis Set: AUG-CC-PVTZ
    Blend: AUG-CC-PVTZ
  Basis Set: (AUG-CC-PVTZ AUX)
    Blend: AUG-CC-PVTZ-JKFIT
	 Reference Energy          =    -376.4970512094123478 [Eh]
	 Singles Energy            =      -0.0000000000000000 [Eh]
	 Same-Spin Energy          =      -0.3495225959060219 [Eh]
	 Opposite-Spin Energy      =      -1.0095697118750782 [Eh]
	 Correlation Energy        =      -1.3590923077811001 [Eh]
	 Total Energy              =    -377.8561435171934590 [Eh]

	 ================> DF-SCS-MP2 Energies <==================
	-----------------------------------------------------------
	 SCS Same-Spin Scale       =       0.3333333333333333 [-]
	 SCS Opposite-Spin Scale   =       1.2000000000000000 [-]
	 SCS Same-Spin Energy      =      -0.1165075319686739 [Eh]
	 SCS Opposite-Spin Energy  =      -1.2114836542500937 [Eh]
	 SCS Correlation Energy    =      -1.3279911862187677 [Eh]
	 SCS Total Energy          =    -377.8250423956311010 [Eh]
	-----------------------------------------------------------

  Dipole Moment: [D]
     X:     0.6679      Y:     0.4699      Z:     0.0002     Total:     0.8167

*** Psi4 exiting successfully. Buy a developer a beer!
