                               Psi4 1.4a3.dev225

  ==> Input File <==

--------------------------------------------------------------------------
#psi4
#
memory 32 gb

molecule  {
0 1
  O        1.4609920    -0.9816210     0.0001000
  O       -1.4609920     0.9816210     0.0000780
  O        1.2129570     1.2831620    -0.0000550
  O       -1.2129570    -1.2831620    -0.0001280
  C        0.7476960     0.1601870     0.0000050
  C       -0.7476960    -0.1601870    -0.0000240
  H        2.3538469    -0.7205209     0.0001066
  H       -2.4018370     0.7064860     0.0000460
units angstrom
no_reorient  #important for SAPT in psi4, default
symmetry c1  #important for SAPT in psi4, default
}

set PROPERTIES_ORIGIN ["COM"]
properties('MP2/aug-cc-pvtz', properties = ['dipole'])
--------------------------------------------------------------------------

    Molecular point group: c1
  Charge       = 0
  Multiplicity = 1
  Basis Set: AUG-CC-PVTZ
    Blend: AUG-CC-PVTZ
  Basis Set: (AUG-CC-PVTZ AUX)
    Blend: AUG-CC-PVTZ-JKFIT

    Orbital Energies [Eh]
    ---------------------

    Doubly Occupied:

       1A    -20.646310     2A    -20.642707     3A    -20.594662
       4A    -20.593884     5A    -11.432524     6A    -11.431550
       7A     -1.512465     8A     -1.483629     9A     -1.405065
      10A     -1.388502    11A     -0.992218    12A     -0.852918
      13A     -0.749501    14A     -0.739349    15A     -0.722010
      16A     -0.684289    17A     -0.660604    18A     -0.632783
      19A     -0.614759    20A     -0.542078    21A     -0.512876
      22A     -0.511278    23A     -0.471047

  @DF-RHF Final Energy:  -376.51681454030864

   => Energetics <=

    Nuclear Repulsion Energy =            230.9396001201193087
    One-Electron Energy =                -975.2788148815694740
    Two-Electron Energy =                 367.8224002211415495
    Total Energy =                       -376.5168145403086442
  Basis Set: (AUG-CC-PVTZ AUX)
    Blend: AUG-CC-PVTZ-RI
    Molecular point group: c1

    Geometry (in Angstrom), charge = 0, multiplicity = 1:

       Center              X                  Y                   Z               Mass
    ------------   -----------------  -----------------  -----------------  -----------------
         O            1.461529423838    -0.981463828212     0.000101713206    15.994914619570
         O           -1.460454576162     0.981778171788     0.000079713206    15.994914619570
         O            1.213494423838     1.283319171788    -0.000053286794    15.994914619570
         O           -1.212419576162    -1.283004828212    -0.000126286794    15.994914619570
         C            0.748233423838     0.160344171788     0.000006713206    12.000000000000
         C           -0.747158576162    -0.160029828212    -0.000022286794    12.000000000000
         H            2.354384323838    -0.720363728212     0.000108313206     1.007825032230
         H           -2.401299576162     0.706643171788     0.000047713206     1.007825032230

  Basis Set: AUG-CC-PVTZ
    Blend: AUG-CC-PVTZ
  Basis Set: (AUG-CC-PVTZ AUX)
    Blend: AUG-CC-PVTZ-JKFIT
	 Reference Energy          =    -376.5168145403086442 [Eh]
	 Singles Energy            =      -0.0000000000000000 [Eh]
	 Same-Spin Energy          =      -0.3508692872500636 [Eh]
	 Opposite-Spin Energy      =      -1.0130891015681194 [Eh]
	 Correlation Energy        =      -1.3639583888181830 [Eh]
	 Total Energy              =    -377.8807729291268060 [Eh]

	 ================> DF-SCS-MP2 Energies <==================
	-----------------------------------------------------------
	 SCS Same-Spin Scale       =       0.3333333333333333 [-]
	 SCS Opposite-Spin Scale   =       1.2000000000000000 [-]
	 SCS Same-Spin Energy      =      -0.1169564290833545 [Eh]
	 SCS Opposite-Spin Energy  =      -1.2157069218817431 [Eh]
	 SCS Correlation Energy    =      -1.3326633509650976 [Eh]
	 SCS Total Energy          =    -377.8494778912737502 [Eh]
	-----------------------------------------------------------

  Dipole Moment: [D]
     X:    -0.0716      Y:     0.0058      Z:     0.0002     Total:     0.0718

*** Psi4 exiting successfully. Buy a developer a beer!
