                               Psi4 1.3.2 release

  ==> Input File <==

--------------------------------------------------------------------------
#psi4
#
memory 32 gb

molecule  {
0 1
  O        1.4608160    -0.9817270     0.0002400
  O       -1.4608130     0.9817270     0.0002230
  O        1.2132250     1.2829860    -0.0000330
  O       -1.2132270    -1.2829860    -0.0001300
  C        0.7476930     0.1601270    -0.0003220
  C       -0.7476940    -0.1601270    -0.0002390
  H        2.4976694    -0.6788868     0.0005563
  H       -2.4016780     0.7069260     0.0004400
units angstrom
no_reorient  #important for SAPT in psi4, default
symmetry c1  #important for SAPT in psi4, default
}

set PROPERTIES_ORIGIN ["COM"]
properties('MP2/aug-cc-pvtz', properties = ['dipole'])
--------------------------------------------------------------------------

    Molecular point group: c1
  Charge       = 0
  Multiplicity = 1
  Basis Set: AUG-CC-PVTZ
    Blend: AUG-CC-PVTZ
  Basis Set: (AUG-CC-PVTZ AUX)
    Blend: AUG-CC-PVTZ-JKFIT

    Orbital Energies [Eh]
    ---------------------

    Doubly Occupied:

       1A    -20.650733     2A    -20.645223     3A    -20.592478
       4A    -20.590999     5A    -11.430668     6A    -11.428991
       7A     -1.503592     8A     -1.471143     9A     -1.399122
      10A     -1.378686    11A     -0.981098    12A     -0.832361
      13A     -0.746013    14A     -0.734125    15A     -0.708690
      16A     -0.681085    17A     -0.653481    18A     -0.628732
      19A     -0.605014    20A     -0.539296    21A     -0.510453
      22A     -0.507417    23A     -0.468570

  @DF-RHF Final Energy:  -376.50302705982108

   => Energetics <=

    Nuclear Repulsion Energy =            230.0660554227762020
    One-Electron Energy =                -973.7622240425146174
    Two-Electron Energy =                 367.1931415599173079
    Total Energy =                       -376.5030270598210791
  Basis Set: (AUG-CC-PVTZ AUX)
    Blend: AUG-CC-PVTZ-RI
    Molecular point group: c1

    Geometry (in Angstrom), charge = 0, multiplicity = 1:

       Center              X                  Y                   Z               Mass
    ------------   -----------------  -----------------  -----------------  -----------------
         O            1.459740982510    -0.982041000897     0.000250327533    15.994914619570
         O           -1.461888017490     0.981412999103     0.000233327533    15.994914619570
         O            1.212149982510     1.282671999103    -0.000022672467    15.994914619570
         O           -1.214302017490    -1.283300000897    -0.000119672467    15.994914619570
         C            0.746617982510     0.159812999103    -0.000311672467    12.000000000000
         C           -0.748769017490    -0.160441000897    -0.000228672467    12.000000000000
         H            2.496594382510    -0.679200800897     0.000566627533     1.007825032230
         H           -2.402753017490     0.706611999103     0.000450327533     1.007825032230

  Basis Set: AUG-CC-PVTZ
    Blend: AUG-CC-PVTZ
  Basis Set: (AUG-CC-PVTZ AUX)
    Blend: AUG-CC-PVTZ-JKFIT
	 Reference Energy          =    -376.5030270598210791 [Eh]
	 Singles Energy            =      -0.0000000000000000 [Eh]
	 Same-Spin Energy          =      -0.3527392489108394 [Eh]
	 Opposite-Spin Energy      =      -1.0175146067748215 [Eh]
	 Correlation Energy        =      -1.3702538556856609 [Eh]
	 Total Energy              =    -377.8732809155067116 [Eh]

	 ================> DF-SCS-MP2 Energies <==================
	-----------------------------------------------------------
	 SCS Same-Spin Scale       =       0.3333333333333333 [-]
	 SCS Opposite-Spin Scale   =       1.2000000000000000 [-]
	 SCS Same-Spin Energy      =      -0.1175797496369465 [Eh]
	 SCS Opposite-Spin Energy  =      -1.2210175281297857 [Eh]
	 SCS Correlation Energy    =      -1.3385972777667321 [Eh]
	 SCS Total Energy          =    -377.8416243375878025 [Eh]
	-----------------------------------------------------------

  Dipole Moment: [D]
     X:     0.1409      Y:    -0.0051      Z:     0.0003     Total:     0.1410

*** Psi4 exiting successfully. Buy a developer a beer!
