                               Psi4 1.3.2 release

  ==> Input File <==

--------------------------------------------------------------------------
#psi4
#
memory 32 gb

molecule  {
0 1
  O        1.4608160    -0.9817270     0.0002400
  O       -1.4608130     0.9817270     0.0002230
  O        1.2132250     1.2829860    -0.0000330
  O       -1.2132270    -1.2829860    -0.0001300
  C        0.6710961    -0.0246240    -0.0003696
  C       -0.7476940    -0.1601270    -0.0002390
  H        2.4016800    -0.7069230     0.0005270
  H       -2.4016780     0.7069260     0.0004400
units angstrom
no_reorient  #important for SAPT in psi4, default
symmetry c1  #important for SAPT in psi4, default
}

set PROPERTIES_ORIGIN ["COM"]
properties('MP2/aug-cc-pvtz', properties = ['dipole'])
--------------------------------------------------------------------------

    Molecular point group: c1
  Charge       = 0
  Multiplicity = 1
  Basis Set: AUG-CC-PVTZ
    Blend: AUG-CC-PVTZ
  Basis Set: (AUG-CC-PVTZ AUX)
    Blend: AUG-CC-PVTZ-JKFIT

    Orbital Energies [Eh]
    ---------------------

    Doubly Occupied:

       1A    -20.678660     2A    -20.651331     3A    -20.603129
       4A    -20.561562     5A    -11.441449     6A    -11.436706
       7A     -1.546579     8A     -1.499022     9A     -1.404477
      10A     -1.283698    11A     -1.031720    12A     -0.890031
      13A     -0.778710    14A     -0.742255    15A     -0.735042
      16A     -0.703371    17A     -0.651278    18A     -0.647072
      19A     -0.572351    20A     -0.518315    21A     -0.515101
      22A     -0.461403    23A     -0.445558

  @DF-RHF Final Energy:  -376.44633993556266

   => Energetics <=

    Nuclear Repulsion Energy =            230.9791389797576926
    One-Electron Energy =                -975.2533188334293754
    Two-Electron Energy =                 367.8278399181090776
    Total Energy =                       -376.4463399355626620
  Basis Set: (AUG-CC-PVTZ AUX)
    Blend: AUG-CC-PVTZ-RI
    Molecular point group: c1

    Geometry (in Angstrom), charge = 0, multiplicity = 1:

       Center              X                  Y                   Z               Mass
    ------------   -----------------  -----------------  -----------------  -----------------
         O            1.471029385612    -0.957092282786     0.000257002651    15.994914619570
         O           -1.450599614388     1.006361717214     0.000240002651    15.994914619570
         O            1.223438385612     1.307620717214    -0.000015997349    15.994914619570
         O           -1.203013614388    -1.258351282786    -0.000112997349    15.994914619570
         C            0.681309485612     0.000010717214    -0.000352597349    12.000000000000
         C           -0.737480614388    -0.135492282786    -0.000221997349    12.000000000000
         H            2.411893385612    -0.682288282786     0.000544002651     1.007825032230
         H           -2.391464614388     0.731560717214     0.000457002651     1.007825032230

  Basis Set: AUG-CC-PVTZ
    Blend: AUG-CC-PVTZ
  Basis Set: (AUG-CC-PVTZ AUX)
    Blend: AUG-CC-PVTZ-JKFIT
	 Reference Energy          =    -376.4463399355626620 [Eh]
	 Singles Energy            =      -0.0000000000000000 [Eh]
	 Same-Spin Energy          =      -0.3563982735055884 [Eh]
	 Opposite-Spin Energy      =      -1.0244780155173954 [Eh]
	 Correlation Energy        =      -1.3808762890229838 [Eh]
	 Total Energy              =    -377.8272162245856407 [Eh]

	 ================> DF-SCS-MP2 Energies <==================
	-----------------------------------------------------------
	 SCS Same-Spin Scale       =       0.3333333333333333 [-]
	 SCS Opposite-Spin Scale   =       1.2000000000000000 [-]
	 SCS Same-Spin Energy      =      -0.1187994245018628 [Eh]
	 SCS Opposite-Spin Energy  =      -1.2293736186208744 [Eh]
	 SCS Correlation Energy    =      -1.3481730431227372 [Eh]
	 SCS Total Energy          =    -377.7945129786854181 [Eh]
	-----------------------------------------------------------

  Dipole Moment: [D]
     X:     0.0695      Y:    -1.0032      Z:     0.0004     Total:     1.0056

*** Psi4 exiting successfully. Buy a developer a beer!
