                               Psi4 1.3.2 release

  ==> Input File <==

--------------------------------------------------------------------------
#psi4
#
memory 32 gb

molecule  {
0 1
  O        1.4608160    -0.9817270     0.0002400
  O       -1.4608130     0.9817270     0.0002230
  O        1.2132250     1.2829860    -0.0000330
  O       -1.2132270    -1.2829860    -0.0001300
  C        0.7082773     0.1345438    -0.0003304
  C       -0.7476940    -0.1601270    -0.0002390
  H        2.4016800    -0.7069230     0.0005270
  H       -2.4016780     0.7069260     0.0004400
units angstrom
no_reorient  #important for SAPT in psi4, default
symmetry c1  #important for SAPT in psi4, default
}

set PROPERTIES_ORIGIN ["COM"]
properties('MP2/aug-cc-pvtz', properties = ['dipole'])
--------------------------------------------------------------------------

    Molecular point group: c1
  Charge       = 0
  Multiplicity = 1
  Basis Set: AUG-CC-PVTZ
    Blend: AUG-CC-PVTZ
  Basis Set: (AUG-CC-PVTZ AUX)
    Blend: AUG-CC-PVTZ-JKFIT

    Orbital Energies [Eh]
    ---------------------

    Doubly Occupied:

       1A    -20.648555     2A    -20.646829     3A    -20.598009
       4A    -20.591041     5A    -11.434937     6A    -11.434074
       7A     -1.508571     8A     -1.476734     9A     -1.400543
      10A     -1.370524    11A     -1.005147    12A     -0.849779
      13A     -0.749876    14A     -0.737196    15A     -0.719104
      16A     -0.684568    17A     -0.655142    18A     -0.629055
      19A     -0.611721    20A     -0.536456    21A     -0.513947
      22A     -0.498700    23A     -0.475317

  @DF-RHF Final Energy:  -376.50789041065991

   => Energetics <=

    Nuclear Repulsion Energy =            230.6692367544313527
    One-Electron Energy =                -974.8026042117245424
    Two-Electron Energy =                 367.6254770466332502
    Total Energy =                       -376.5078904106599111
  Basis Set: (AUG-CC-PVTZ AUX)
    Blend: AUG-CC-PVTZ-RI
    Molecular point group: c1

    Geometry (in Angstrom), charge = 0, multiplicity = 1:

       Center              X                  Y                   Z               Mass
    ------------   -----------------  -----------------  -----------------  -----------------
         O            1.466071633845    -0.978315762442     0.000251775712    15.994914619570
         O           -1.455557366155     0.985138237558     0.000234775712    15.994914619570
         O            1.218480633845     1.286397237558    -0.000021224288    15.994914619570
         O           -1.207971366155    -1.279574762442    -0.000118224288    15.994914619570
         C            0.713532933845     0.137955037558    -0.000318624288    12.000000000000
         C           -0.742438366155    -0.156715762442    -0.000227224288    12.000000000000
         H            2.406935633845    -0.703511762442     0.000538775712     1.007825032230
         H           -2.396422366155     0.710337237558     0.000451775712     1.007825032230

  Basis Set: AUG-CC-PVTZ
    Blend: AUG-CC-PVTZ
  Basis Set: (AUG-CC-PVTZ AUX)
    Blend: AUG-CC-PVTZ-JKFIT
	 Reference Energy          =    -376.5078904106599111 [Eh]
	 Singles Energy            =      -0.0000000000000000 [Eh]
	 Same-Spin Energy          =      -0.3526418128747398 [Eh]
	 Opposite-Spin Energy      =      -1.0171882789852986 [Eh]
	 Correlation Energy        =      -1.3698300918600386 [Eh]
	 Total Energy              =    -377.8777205025199351 [Eh]

	 ================> DF-SCS-MP2 Energies <==================
	-----------------------------------------------------------
	 SCS Same-Spin Scale       =       0.3333333333333333 [-]
	 SCS Opposite-Spin Scale   =       1.2000000000000000 [-]
	 SCS Same-Spin Energy      =      -0.1175472709582466 [Eh]
	 SCS Opposite-Spin Energy  =      -1.2206259347823583 [Eh]
	 SCS Correlation Energy    =      -1.3381732057406048 [Eh]
	 SCS Total Energy          =    -377.8460636164004995 [Eh]
	-----------------------------------------------------------

  Dipole Moment: [D]
     X:    -0.1394      Y:    -0.1275      Z:     0.0002     Total:     0.1889

*** Psi4 exiting successfully. Buy a developer a beer!
