                               Psi4 1.3.2 release

  ==> Input File <==

--------------------------------------------------------------------------
#psi4
#
memory 32 gb

molecule  {
0 1
  O        1.5002317    -0.9561438     0.0002298
  O       -1.4608130     0.9817270     0.0002230
  O        1.2132250     1.2829860    -0.0000330
  O       -1.2132270    -1.2829860    -0.0001300
  C        0.7476930     0.1601270    -0.0003220
  C       -0.7476940    -0.1601270    -0.0002390
  H        2.4016800    -0.7069230     0.0005270
  H       -2.4016780     0.7069260     0.0004400
units angstrom
no_reorient  #important for SAPT in psi4, default
symmetry c1  #important for SAPT in psi4, default
}

set PROPERTIES_ORIGIN ["COM"]
properties('MP2/aug-cc-pvtz', properties = ['dipole'])
--------------------------------------------------------------------------

    Molecular point group: c1
  Charge       = 0
  Multiplicity = 1
  Basis Set: AUG-CC-PVTZ
    Blend: AUG-CC-PVTZ
  Basis Set: (AUG-CC-PVTZ AUX)
    Blend: AUG-CC-PVTZ-JKFIT

    Orbital Energies [Eh]
    ---------------------

    Doubly Occupied:

       1A    -20.647522     2A    -20.639683     3A    -20.595163
       4A    -20.591912     5A    -11.434039     6A    -11.431526
       7A     -1.510758     8A     -1.483212     9A     -1.402942
      10A     -1.387342    11A     -0.992122    12A     -0.855150
      13A     -0.750033    14A     -0.737372    15A     -0.723508
      16A     -0.683626    17A     -0.658630    18A     -0.632563
      19A     -0.613419    20A     -0.540228    21A     -0.512475
      22A     -0.509728    23A     -0.471434

  @DF-RHF Final Energy:  -376.51735601568254

   => Energetics <=

    Nuclear Repulsion Energy =            230.5938861520266130
    One-Electron Energy =                -974.6137116251898078
    Two-Electron Energy =                 367.5024694574806858
    Total Energy =                       -376.5173560156825374
  Basis Set: (AUG-CC-PVTZ AUX)
    Blend: AUG-CC-PVTZ-RI
    Molecular point group: c1

    Geometry (in Angstrom), charge = 0, multiplicity = 1:

       Center              X                  Y                   Z               Mass
    ------------   -----------------  -----------------  -----------------  -----------------
         O            1.493226259639    -0.960690749500     0.000242268505    15.994914619570
         O           -1.467818440361     0.977180050500     0.000235468505    15.994914619570
         O            1.206219559639     1.278439050500    -0.000020531495    15.994914619570
         O           -1.220232440361    -1.287532949500    -0.000117531495    15.994914619570
         C            0.740687559639     0.155580050500    -0.000309531495    12.000000000000
         C           -0.754699440361    -0.164673949500    -0.000226531495    12.000000000000
         H            2.394674559639    -0.711469949500     0.000539468505     1.007825032230
         H           -2.408683440361     0.702379050500     0.000452468505     1.007825032230

  Basis Set: AUG-CC-PVTZ
    Blend: AUG-CC-PVTZ
  Basis Set: (AUG-CC-PVTZ AUX)
    Blend: AUG-CC-PVTZ-JKFIT
	 Reference Energy          =    -376.5173560156825374 [Eh]
	 Singles Energy            =      -0.0000000000000000 [Eh]
	 Same-Spin Energy          =      -0.3506192065942775 [Eh]
	 Opposite-Spin Energy      =      -1.0127136576895630 [Eh]
	 Correlation Energy        =      -1.3633328642838405 [Eh]
	 Total Energy              =    -377.8806888799663852 [Eh]

	 ================> DF-SCS-MP2 Energies <==================
	-----------------------------------------------------------
	 SCS Same-Spin Scale       =       0.3333333333333333 [-]
	 SCS Opposite-Spin Scale   =       1.2000000000000000 [-]
	 SCS Same-Spin Energy      =      -0.1168730688647591 [Eh]
	 SCS Opposite-Spin Energy  =      -1.2152563892274755 [Eh]
	 SCS Correlation Energy    =      -1.3321294580922347 [Eh]
	 SCS Total Energy          =    -377.8494854737747914 [Eh]
	-----------------------------------------------------------

  Dipole Moment: [D]
     X:    -0.1021      Y:     0.0005      Z:     0.0002     Total:     0.1021

*** Psi4 exiting successfully. Buy a developer a beer!
