                               Psi4 1.3.2 release

  ==> Input File <==

--------------------------------------------------------------------------
#psi4
#
memory 32 gb

molecule  {
0 1
  O        1.4608160    -0.9817270     0.0002400
  O       -1.4608130     0.9817270     0.0002230
  O        1.3280455     1.2281735    -0.0000638
  O       -1.2132270    -1.2829860    -0.0001300
  C        0.7476930     0.1601270    -0.0003220
  C       -0.7476940    -0.1601270    -0.0002390
  H        2.4016800    -0.7069230     0.0005270
  H       -2.4016780     0.7069260     0.0004400
units angstrom
no_reorient  #important for SAPT in psi4, default
symmetry c1  #important for SAPT in psi4, default
}

set PROPERTIES_ORIGIN ["COM"]
properties('MP2/aug-cc-pvtz', properties = ['dipole'])
--------------------------------------------------------------------------

    Molecular point group: c1
  Charge       = 0
  Multiplicity = 1
  Basis Set: AUG-CC-PVTZ
    Blend: AUG-CC-PVTZ
  Basis Set: (AUG-CC-PVTZ AUX)
    Blend: AUG-CC-PVTZ-JKFIT

    Orbital Energies [Eh]
    ---------------------

    Doubly Occupied:

       1A    -20.650976     2A    -20.636026     3A    -20.599025
       4A    -20.591102     5A    -11.438837     6A    -11.430800
       7A     -1.510461     8A     -1.482692     9A     -1.402712
      10A     -1.380527    11A     -0.992704    12A     -0.844762
      13A     -0.749388    14A     -0.739219    15A     -0.715458
      16A     -0.684181    17A     -0.659784    18A     -0.632121
      19A     -0.614994    20A     -0.539357    21A     -0.515460
      22A     -0.505534    23A     -0.473434

  @DF-RHF Final Energy:  -376.51308839993129

   => Energetics <=

    Nuclear Repulsion Energy =            230.2543142899547206
    One-Electron Energy =                -973.9556954423725301
    Two-Electron Energy =                 367.1882927524864613
    Total Energy =                       -376.5130883999312914
  Basis Set: (AUG-CC-PVTZ AUX)
    Blend: AUG-CC-PVTZ-RI
    Molecular point group: c1

    Geometry (in Angstrom), charge = 0, multiplicity = 1:

       Center              X                  Y                   Z               Mass
    ------------   -----------------  -----------------  -----------------  -----------------
         O            1.440408823955    -0.971985178473     0.000256129754    15.994914619570
         O           -1.481220176045     0.991468821527     0.000239129754    15.994914619570
         O            1.307638323955     1.237915321527    -0.000047670246    15.994914619570
         O           -1.233634176045    -1.273244178473    -0.000113870246    15.994914619570
         C            0.727285823955     0.169868821527    -0.000305870246    12.000000000000
         C           -0.768101176045    -0.150385178473    -0.000222870246    12.000000000000
         H            2.381272823955    -0.697181178473     0.000543129754     1.007825032230
         H           -2.422085176045     0.716667821527     0.000456129754     1.007825032230

  Basis Set: AUG-CC-PVTZ
    Blend: AUG-CC-PVTZ
  Basis Set: (AUG-CC-PVTZ AUX)
    Blend: AUG-CC-PVTZ-JKFIT
	 Reference Energy          =    -376.5130883999312914 [Eh]
	 Singles Energy            =      -0.0000000000000000 [Eh]
	 Same-Spin Energy          =      -0.3515196552298259 [Eh]
	 Opposite-Spin Energy      =      -1.0145586657321930 [Eh]
	 Correlation Energy        =      -1.3660783209620189 [Eh]
	 Total Energy              =    -377.8791667208932950 [Eh]

	 ================> DF-SCS-MP2 Energies <==================
	-----------------------------------------------------------
	 SCS Same-Spin Scale       =       0.3333333333333333 [-]
	 SCS Opposite-Spin Scale   =       1.2000000000000000 [-]
	 SCS Same-Spin Energy      =      -0.1171732184099420 [Eh]
	 SCS Opposite-Spin Energy  =      -1.2174703988786315 [Eh]
	 SCS Correlation Energy    =      -1.3346436172885734 [Eh]
	 SCS Total Energy          =    -377.8477320172198688 [Eh]
	-----------------------------------------------------------

  Dipole Moment: [D]
     X:    -0.3633      Y:     0.0753      Z:     0.0002     Total:     0.3711

*** Psi4 exiting successfully. Buy a developer a beer!
