                               Psi4 1.3.2 release

  ==> Input File <==

--------------------------------------------------------------------------
#psi4
#
memory 32 gb

molecule  {
0 1
  O        1.4806355    -0.9691074     0.0002350
  O       -1.4608130     0.9817270     0.0002230
  O        1.2132250     1.2829860    -0.0000330
  O       -1.2132270    -1.2829860    -0.0001300
  C        0.7476930     0.1601270    -0.0003220
  C       -0.7476940    -0.1601270    -0.0002390
  H        2.4016800    -0.7069230     0.0005270
  H       -2.4016780     0.7069260     0.0004400
units angstrom
no_reorient  #important for SAPT in psi4, default
symmetry c1  #important for SAPT in psi4, default
}

set PROPERTIES_ORIGIN ["COM"]
properties('MP2/aug-cc-pvtz', properties = ['dipole'])
--------------------------------------------------------------------------

    Molecular point group: c1
  Charge       = 0
  Multiplicity = 1
  Basis Set: AUG-CC-PVTZ
    Blend: AUG-CC-PVTZ
  Basis Set: (AUG-CC-PVTZ AUX)
    Blend: AUG-CC-PVTZ-JKFIT

    Orbital Energies [Eh]
    ---------------------

    Doubly Occupied:

       1A    -20.646723     2A    -20.642878     3A    -20.594283
       4A    -20.592651     5A    -11.432702     6A    -11.431326
       7A     -1.509458     8A     -1.481240     9A     -1.402687
      10A     -1.386458    11A     -0.989981    12A     -0.850129
      13A     -0.748988    14A     -0.737382    15A     -0.720919
      16A     -0.683386    17A     -0.658528    18A     -0.631989
      19A     -0.612795    20A     -0.540705    21A     -0.511813
      22A     -0.510284    23A     -0.470839

  @DF-RHF Final Energy:  -376.51737449090331

   => Energetics <=

    Nuclear Repulsion Energy =            230.6061050938192238
    One-Electron Energy =                -974.6706766714835339
    Two-Electron Energy =                 367.5471970867610025
    Total Energy =                       -376.5173744909033076
  Basis Set: (AUG-CC-PVTZ AUX)
    Blend: AUG-CC-PVTZ-RI
    Molecular point group: c1

    Geometry (in Angstrom), charge = 0, multiplicity = 1:

       Center              X                  Y                   Z               Mass
    ------------   -----------------  -----------------  -----------------  -----------------
         O            1.477112902811    -0.971350321895     0.000246544306    15.994914619570
         O           -1.464335597189     0.979484078105     0.000234544306    15.994914619570
         O            1.209702402811     1.280743078105    -0.000021455694    15.994914619570
         O           -1.216749597189    -1.285228921895    -0.000118455694    15.994914619570
         C            0.744170402811     0.157884078105    -0.000310455694    12.000000000000
         C           -0.751216597189    -0.162369921895    -0.000227455694    12.000000000000
         H            2.398157402811    -0.709165921895     0.000538544306     1.007825032230
         H           -2.405200597189     0.704683078105     0.000451544306     1.007825032230

  Basis Set: AUG-CC-PVTZ
    Blend: AUG-CC-PVTZ
  Basis Set: (AUG-CC-PVTZ AUX)
    Blend: AUG-CC-PVTZ-JKFIT
	 Reference Energy          =    -376.5173744909033076 [Eh]
	 Singles Energy            =      -0.0000000000000000 [Eh]
	 Same-Spin Energy          =      -0.3510450876992948 [Eh]
	 Opposite-Spin Energy      =      -1.0135736601622536 [Eh]
	 Correlation Energy        =      -1.3646187478615484 [Eh]
	 Total Energy              =    -377.8819932387648350 [Eh]

	 ================> DF-SCS-MP2 Energies <==================
	-----------------------------------------------------------
	 SCS Same-Spin Scale       =       0.3333333333333333 [-]
	 SCS Opposite-Spin Scale   =       1.2000000000000000 [-]
	 SCS Same-Spin Energy      =      -0.1170150292330983 [Eh]
	 SCS Opposite-Spin Energy  =      -1.2162883921947043 [Eh]
	 SCS Correlation Energy    =      -1.3333034214278026 [Eh]
	 SCS Total Energy          =    -377.8506779123310935 [Eh]
	-----------------------------------------------------------

  Dipole Moment: [D]
     X:    -0.0503      Y:     0.0003      Z:     0.0002     Total:     0.0503

*** Psi4 exiting successfully. Buy a developer a beer!
