                               Psi4 1.3.2 release

  ==> Input File <==

--------------------------------------------------------------------------
#psi4
#
memory 32 gb

molecule  {
0 1
  O        1.4608160    -0.9817270     0.0002400
  O       -1.4608130     0.9817270     0.0002230
  O        1.2132250     1.2829860    -0.0000330
  O       -1.2132270    -1.2829860    -0.0001300
  C        0.8536355    -0.0095084    -0.0002385
  C       -0.7476940    -0.1601270    -0.0002390
  H        2.4016800    -0.7069230     0.0005270
  H       -2.4016780     0.7069260     0.0004400
units angstrom
no_reorient  #important for SAPT in psi4, default
symmetry c1  #important for SAPT in psi4, default
}

set PROPERTIES_ORIGIN ["COM"]
properties('MP2/aug-cc-pvtz', properties = ['dipole'])
--------------------------------------------------------------------------

    Molecular point group: c1
  Charge       = 0
  Multiplicity = 1
  Basis Set: AUG-CC-PVTZ
    Blend: AUG-CC-PVTZ
  Basis Set: (AUG-CC-PVTZ AUX)
    Blend: AUG-CC-PVTZ-JKFIT

    Orbital Energies [Eh]
    ---------------------

    Doubly Occupied:

       1A    -20.702795     2A    -20.640368     3A    -20.583324
       4A    -20.553230     5A    -11.434944     6A    -11.425533
       7A     -1.622040     8A     -1.484264     9A     -1.387245
      10A     -1.315982    11A     -0.994392    12A     -0.883830
      13A     -0.796442    14A     -0.739263    15A     -0.735563
      16A     -0.725193    17A     -0.647758    18A     -0.644772
      19A     -0.569719    20A     -0.512763    21A     -0.505621
      22A     -0.463766    23A     -0.441878

  @DF-RHF Final Energy:  -376.44976444490970

   => Energetics <=

    Nuclear Repulsion Energy =            230.8131318858977465
    One-Electron Energy =                -974.9044244424845829
    Two-Electron Energy =                 367.6415281116771325
    Total Energy =                       -376.4497644449097038
  Basis Set: (AUG-CC-PVTZ AUX)
    Blend: AUG-CC-PVTZ-RI
    Molecular point group: c1

    Geometry (in Angstrom), charge = 0, multiplicity = 1:

       Center              X                  Y                   Z               Mass
    ------------   -----------------  -----------------  -----------------  -----------------
         O            1.446689530175    -0.959107801183     0.000239521740    15.994914619570
         O           -1.474939469825     1.004346198817     0.000222521740    15.994914619570
         O            1.199098530175     1.305605198817    -0.000033478260    15.994914619570
         O           -1.227353469825    -1.260366801183    -0.000130478260    15.994914619570
         C            0.839509030175     0.013110798817    -0.000238978260    12.000000000000
         C           -0.761820469825    -0.137507801183    -0.000239478260    12.000000000000
         H            2.387553530175    -0.684303801183     0.000526521740     1.007825032230
         H           -2.415804469825     0.729545198817     0.000439521740     1.007825032230

  Basis Set: AUG-CC-PVTZ
    Blend: AUG-CC-PVTZ
  Basis Set: (AUG-CC-PVTZ AUX)
    Blend: AUG-CC-PVTZ-JKFIT
	 Reference Energy          =    -376.4497644449097038 [Eh]
	 Singles Energy            =      -0.0000000000000000 [Eh]
	 Same-Spin Energy          =      -0.3525719383061676 [Eh]
	 Opposite-Spin Energy      =      -1.0147067195992372 [Eh]
	 Correlation Energy        =      -1.3672786579054048 [Eh]
	 Total Energy              =    -377.8170431028150915 [Eh]

	 ================> DF-SCS-MP2 Energies <==================
	-----------------------------------------------------------
	 SCS Same-Spin Scale       =       0.3333333333333333 [-]
	 SCS Opposite-Spin Scale   =       1.2000000000000000 [-]
	 SCS Same-Spin Energy      =      -0.1175239794353892 [Eh]
	 SCS Opposite-Spin Energy  =      -1.2176480635190845 [Eh]
	 SCS Correlation Energy    =      -1.3351720429544738 [Eh]
	 SCS Total Energy          =    -377.7849364878641722 [Eh]
	-----------------------------------------------------------

  Dipole Moment: [D]
     X:     0.7262      Y:    -1.4283      Z:     0.0007     Total:     1.6024

*** Psi4 exiting successfully. Buy a developer a beer!
