                               Psi4 1.3.2 release

  ==> Input File <==

--------------------------------------------------------------------------
#psi4
#
memory 32 gb

molecule  {
0 1
  O        1.4608160    -0.9817270     0.0002400
  O       -1.4608130     0.9817270     0.0002230
  O        1.2132250     1.2829860    -0.0000330
  O       -1.2132270    -1.2829860    -0.0001300
  C        0.7476930     0.1601270    -0.0003220
  C       -0.5521285    -0.1182444    -0.0002499
  H        2.4016800    -0.7069230     0.0005270
  H       -2.4016780     0.7069260     0.0004400
units angstrom
no_reorient  #important for SAPT in psi4, default
symmetry c1  #important for SAPT in psi4, default
}

set PROPERTIES_ORIGIN ["COM"]
properties('MP2/aug-cc-pvtz', properties = ['dipole'])
--------------------------------------------------------------------------

    Molecular point group: c1
  Charge       = 0
  Multiplicity = 1
  Basis Set: AUG-CC-PVTZ
    Blend: AUG-CC-PVTZ
  Basis Set: (AUG-CC-PVTZ AUX)
    Blend: AUG-CC-PVTZ-JKFIT

    Orbital Energies [Eh]
    ---------------------

    Doubly Occupied:

       1A    -20.656416     2A    -20.630519     3A    -20.615623
       4A    -20.603098     5A    -11.444944     6A    -11.436897
       7A     -1.519293     8A     -1.438882     9A     -1.412193
      10A     -1.328480    11A     -1.075670    12A     -0.846777
      13A     -0.757038    14A     -0.742398    15A     -0.701553
      16A     -0.695432    17A     -0.653946    18A     -0.607194
      19A     -0.603387    20A     -0.534365    21A     -0.522636
      22A     -0.484903    23A     -0.476398

  @DF-RHF Final Energy:  -376.43400960693225

   => Energetics <=

    Nuclear Repulsion Energy =            231.0901393586268284
    One-Electron Energy =                -975.4722148047397923
    Two-Electron Energy =                 367.9480658391806855
    Total Energy =                       -376.4340096069322499
  Basis Set: (AUG-CC-PVTZ AUX)
    Blend: AUG-CC-PVTZ-RI
    Molecular point group: c1

    Geometry (in Angstrom), charge = 0, multiplicity = 1:

       Center              X                  Y                   Z               Mass
    ------------   -----------------  -----------------  -----------------  -----------------
         O            1.434739173901    -0.987311671375     0.000252109062    15.994914619570
         O           -1.486889826099     0.976142328625     0.000235109062    15.994914619570
         O            1.187148173901     1.277401328625    -0.000020890938    15.994914619570
         O           -1.239303826099    -1.288570671375    -0.000117890938    15.994914619570
         C            0.721616173901     0.154542328625    -0.000309890938    12.000000000000
         C           -0.578205326099    -0.123829071375    -0.000237790938    12.000000000000
         H            2.375603173901    -0.712507671375     0.000539109062     1.007825032230
         H           -2.427754826099     0.701341328625     0.000452109062     1.007825032230

  Basis Set: AUG-CC-PVTZ
    Blend: AUG-CC-PVTZ
  Basis Set: (AUG-CC-PVTZ AUX)
    Blend: AUG-CC-PVTZ-JKFIT
	 Reference Energy          =    -376.4340096069322499 [Eh]
	 Singles Energy            =      -0.0000000000000000 [Eh]
	 Same-Spin Energy          =      -0.3582774221095579 [Eh]
	 Opposite-Spin Energy      =      -1.0310666185613242 [Eh]
	 Correlation Energy        =      -1.3893440406708821 [Eh]
	 Total Energy              =    -377.8233536476031418 [Eh]

	 ================> DF-SCS-MP2 Energies <==================
	-----------------------------------------------------------
	 SCS Same-Spin Scale       =       0.3333333333333333 [-]
	 SCS Opposite-Spin Scale   =       1.2000000000000000 [-]
	 SCS Same-Spin Energy      =      -0.1194258073698526 [Eh]
	 SCS Opposite-Spin Energy  =      -1.2372799422735890 [Eh]
	 SCS Correlation Energy    =      -1.3567057496434416 [Eh]
	 SCS Total Energy          =    -377.7907153565756744 [Eh]
	-----------------------------------------------------------

  Dipole Moment: [D]
     X:     0.6764      Y:    -0.1101      Z:     0.0001     Total:     0.6853

*** Psi4 exiting successfully. Buy a developer a beer!
