                               Psi4 1.3.2 release

  ==> Input File <==

--------------------------------------------------------------------------
#psi4
#
memory 32 gb

molecule  {
0 1
  O        1.4608160    -0.9817270     0.0002400
  O       -1.4608130     0.9817270     0.0002230
  O        1.2132250     1.2829860    -0.0000330
  O       -1.2132270    -1.2829860    -0.0001300
  C        0.7476930     0.1601270    -0.0003220
  C       -0.9432595    -0.2020096    -0.0002281
  H        2.4016800    -0.7069230     0.0005270
  H       -2.4016780     0.7069260     0.0004400
units angstrom
no_reorient  #important for SAPT in psi4, default
symmetry c1  #important for SAPT in psi4, default
}

set PROPERTIES_ORIGIN ["COM"]
properties('MP2/aug-cc-pvtz', properties = ['dipole'])
--------------------------------------------------------------------------

    Molecular point group: c1
  Charge       = 0
  Multiplicity = 1
  Basis Set: AUG-CC-PVTZ
    Blend: AUG-CC-PVTZ
  Basis Set: (AUG-CC-PVTZ AUX)
    Blend: AUG-CC-PVTZ-JKFIT

    Orbital Energies [Eh]
    ---------------------

    Doubly Occupied:

       1A    -20.667227     2A    -20.628090     3A    -20.603672
       4A    -20.567103     5A    -11.429299     6A    -11.400932
       7A     -1.549633     8A     -1.471173     9A     -1.467486
      10A     -1.369613    11A     -0.930456    12A     -0.838419
      13A     -0.772527    14A     -0.741956    15A     -0.709221
      16A     -0.706528    17A     -0.661260    18A     -0.628723
      19A     -0.610807    20A     -0.552935    21A     -0.542284
      22A     -0.492010    23A     -0.424272

  @DF-RHF Final Energy:  -376.48198764979270

   => Energetics <=

    Nuclear Repulsion Energy =            230.5140509068054087
    One-Electron Energy =                -974.4608223272400664
    Two-Electron Energy =                 367.4647837706419296
    Total Energy =                       -376.4819876497926998
  Basis Set: (AUG-CC-PVTZ AUX)
    Blend: AUG-CC-PVTZ-RI
    Molecular point group: c1

    Geometry (in Angstrom), charge = 0, multiplicity = 1:

       Center              X                  Y                   Z               Mass
    ------------   -----------------  -----------------  -----------------  -----------------
         O            1.486892692524    -0.976142395817     0.000249202244    15.994914619570
         O           -1.434736307476     0.987311604183     0.000232202244    15.994914619570
         O            1.239301692524     1.288570604183    -0.000023797756    15.994914619570
         O           -1.187150307476    -1.277401395817    -0.000120797756    15.994914619570
         C            0.773769692524     0.165711604183    -0.000312797756    12.000000000000
         C           -0.917182807476    -0.196424995817    -0.000218897756    12.000000000000
         H            2.427756692524    -0.701338395817     0.000536202244     1.007825032230
         H           -2.375601307476     0.712510604183     0.000449202244     1.007825032230

  Basis Set: AUG-CC-PVTZ
    Blend: AUG-CC-PVTZ
  Basis Set: (AUG-CC-PVTZ AUX)
    Blend: AUG-CC-PVTZ-JKFIT
	 Reference Energy          =    -376.4819876497926998 [Eh]
	 Singles Energy            =      -0.0000000000000000 [Eh]
	 Same-Spin Energy          =      -0.3499368621730614 [Eh]
	 Opposite-Spin Energy      =      -1.0096504678115110 [Eh]
	 Correlation Energy        =      -1.3595873299845724 [Eh]
	 Total Energy              =    -377.8415749797772492 [Eh]

	 ================> DF-SCS-MP2 Energies <==================
	-----------------------------------------------------------
	 SCS Same-Spin Scale       =       0.3333333333333333 [-]
	 SCS Opposite-Spin Scale   =       1.2000000000000000 [-]
	 SCS Same-Spin Energy      =      -0.1166456207243538 [Eh]
	 SCS Opposite-Spin Energy  =      -1.2115805613738131 [Eh]
	 SCS Correlation Energy    =      -1.3282261820981669 [Eh]
	 SCS Total Energy          =    -377.8102138318908487 [Eh]
	-----------------------------------------------------------

  Dipole Moment: [D]
     X:    -1.2242      Y:    -0.2307      Z:     0.0003     Total:     1.2458

*** Psi4 exiting successfully. Buy a developer a beer!
