                               Psi4 1.3.2 release

  ==> Input File <==

--------------------------------------------------------------------------
#psi4
#
memory 32 gb

molecule  {
0 1
  O        1.8013450    -0.1222670    -0.0001450
  C       -0.5611510    -0.4520200    -0.0000120
  C        0.6707050     0.3546130    -0.0000040
  C       -1.7652780     0.1406350     0.0001500
  H       -0.4546529    -1.4329941    -0.0001319
  H        0.5134400     1.4540710     0.0000460
  H       -2.6894370    -0.4270490     0.0001690
  H       -1.8565530     1.2241520     0.0002830
units angstrom
no_reorient  #important for SAPT in psi4, default
symmetry c1  #important for SAPT in psi4, default
}

set PROPERTIES_ORIGIN ["COM"]
properties('MP2/aug-cc-pvtz', properties = ['dipole'])
--------------------------------------------------------------------------

    Molecular point group: c1
  Charge       = 0
  Multiplicity = 1
  Basis Set: AUG-CC-PVTZ
    Blend: AUG-CC-PVTZ
  Basis Set: (AUG-CC-PVTZ AUX)
    Blend: AUG-CC-PVTZ-JKFIT

    Orbital Energies [Eh]
    ---------------------

    Doubly Occupied:

       1A    -20.559913     2A    -11.339697     3A    -11.275030
       4A    -11.249626     5A     -1.383032     6A     -1.093439
       7A     -0.890389     8A     -0.803649     9A     -0.674414
      10A     -0.668910    11A     -0.607019    12A     -0.570979
      13A     -0.538546    14A     -0.433996    15A     -0.400723

  @DF-RHF Final Energy:  -190.82744003099009

   => Energetics <=

    Nuclear Repulsion Energy =            103.0535097465676273
    One-Electron Energy =                -462.7831752050871046
    Two-Electron Energy =                 168.9022254275294017
    Total Energy =                       -190.8274400309900898
  Basis Set: (AUG-CC-PVTZ AUX)
    Blend: AUG-CC-PVTZ-RI
    Molecular point group: c1

    Geometry (in Angstrom), charge = 0, multiplicity = 1:

       Center              X                  Y                   Z               Mass
    ------------   -----------------  -----------------  -----------------  -----------------
         O            1.722429155196    -0.111337615524    -0.000138890398    15.994914619570
         C           -0.640066844804    -0.441090615524    -0.000005890398    12.000000000000
         C            0.591789155196     0.365542384476     0.000002109602    12.000000000000
         C           -1.844193844804     0.151564384476     0.000156109602    12.000000000000
         H           -0.533568744804    -1.422064715524    -0.000125790398     1.007825032230
         H            0.434524155196     1.465000384476     0.000052109602     1.007825032230
         H           -2.768352844804    -0.416119615524     0.000175109602     1.007825032230
         H           -1.935468844804     1.235081384476     0.000289109602     1.007825032230

  Basis Set: AUG-CC-PVTZ
    Blend: AUG-CC-PVTZ
  Basis Set: (AUG-CC-PVTZ AUX)
    Blend: AUG-CC-PVTZ-JKFIT
	 Reference Energy          =    -190.8274400309900898 [Eh]
	 Singles Energy            =      -0.0000000000000000 [Eh]
	 Same-Spin Energy          =      -0.1836136543888654 [Eh]
	 Opposite-Spin Energy      =      -0.6060321696963024 [Eh]
	 Correlation Energy        =      -0.7896458240851678 [Eh]
	 Total Energy              =    -191.6170858550752598 [Eh]

	 ================> DF-SCS-MP2 Energies <==================
	-----------------------------------------------------------
	 SCS Same-Spin Scale       =       0.3333333333333333 [-]
	 SCS Opposite-Spin Scale   =       1.2000000000000000 [-]
	 SCS Same-Spin Energy      =      -0.0612045514629551 [Eh]
	 SCS Opposite-Spin Energy  =      -0.7272386036355628 [Eh]
	 SCS Correlation Energy    =      -0.7884431550985179 [Eh]
	 SCS Total Energy          =    -191.6158831860886096 [Eh]
	-----------------------------------------------------------

  Dipole Moment: [D]
     X:    -3.2179      Y:     0.6529      Z:     0.0003     Total:     3.2835

*** Psi4 exiting successfully. Buy a developer a beer!
