                               Psi4 1.3.2 release

  ==> Input File <==

--------------------------------------------------------------------------
#psi4
#
memory 32 gb

molecule  {
0 1
  O        1.8013450    -0.1222670    -0.0001450
  C       -0.6054257    -0.5345720    -0.0000168
  C        0.6707050     0.3546130    -0.0000040
  C       -1.7652780     0.1406350     0.0001500
  H       -0.4438600    -1.5324100    -0.0001440
  H        0.5134400     1.4540710     0.0000460
  H       -2.6894370    -0.4270490     0.0001690
  H       -1.8565530     1.2241520     0.0002830
units angstrom
no_reorient  #important for SAPT in psi4, default
symmetry c1  #important for SAPT in psi4, default
}

set PROPERTIES_ORIGIN ["COM"]
properties('MP2/aug-cc-pvtz', properties = ['dipole'])
--------------------------------------------------------------------------

    Molecular point group: c1
  Charge       = 0
  Multiplicity = 1
  Basis Set: AUG-CC-PVTZ
    Blend: AUG-CC-PVTZ
  Basis Set: (AUG-CC-PVTZ AUX)
    Blend: AUG-CC-PVTZ-JKFIT

    Orbital Energies [Eh]
    ---------------------

    Doubly Occupied:

       1A    -20.561164     2A    -11.345276     3A    -11.271028
       4A    -11.260736     5A     -1.382836     6A     -1.082281
       7A     -0.873658     8A     -0.801940     9A     -0.668726
      10A     -0.662829    11A     -0.613020    12A     -0.566929
      13A     -0.534330    14A     -0.426968    15A     -0.400844

  @DF-RHF Final Energy:  -190.82429220409421

   => Energetics <=

    Nuclear Repulsion Energy =            101.8274204329244554
    One-Electron Energy =                -460.3982959391187819
    Two-Electron Energy =                 167.7465833021001345
    Total Energy =                       -190.8242922040942062
  Basis Set: (AUG-CC-PVTZ AUX)
    Blend: AUG-CC-PVTZ-RI
    Molecular point group: c1

    Geometry (in Angstrom), charge = 0, multiplicity = 1:

       Center              X                  Y                   Z               Mass
    ------------   -----------------  -----------------  -----------------  -----------------
         O            1.731718004131    -0.091867839857    -0.000137644648    15.994914619570
         C           -0.675052695869    -0.504172839857    -0.000009444648    12.000000000000
         C            0.601078004131     0.385012160143     0.000003355352    12.000000000000
         C           -1.834904995869     0.171034160143     0.000157355352    12.000000000000
         H           -0.513486995869    -1.502010839857    -0.000136644648     1.007825032230
         H            0.443813004131     1.484470160143     0.000053355352     1.007825032230
         H           -2.759063995869    -0.396649839857     0.000176355352     1.007825032230
         H           -1.926179995869     1.254551160143     0.000290355352     1.007825032230

  Basis Set: AUG-CC-PVTZ
    Blend: AUG-CC-PVTZ
  Basis Set: (AUG-CC-PVTZ AUX)
    Blend: AUG-CC-PVTZ-JKFIT
	 Reference Energy          =    -190.8242922040942062 [Eh]
	 Singles Energy            =      -0.0000000000000000 [Eh]
	 Same-Spin Energy          =      -0.1832917250466566 [Eh]
	 Opposite-Spin Energy      =      -0.6063373841096322 [Eh]
	 Correlation Energy        =      -0.7896291091562888 [Eh]
	 Total Energy              =    -191.6139213132505006 [Eh]

	 ================> DF-SCS-MP2 Energies <==================
	-----------------------------------------------------------
	 SCS Same-Spin Scale       =       0.3333333333333333 [-]
	 SCS Opposite-Spin Scale   =       1.2000000000000000 [-]
	 SCS Same-Spin Energy      =      -0.0610972416822189 [Eh]
	 SCS Opposite-Spin Energy  =      -0.7276048609315586 [Eh]
	 SCS Correlation Energy    =      -0.7887021026137775 [Eh]
	 SCS Total Energy          =    -191.6129943067079751 [Eh]
	-----------------------------------------------------------

  Dipole Moment: [D]
     X:    -3.0291      Y:     0.6831      Z:     0.0003     Total:     3.1052

*** Psi4 exiting successfully. Buy a developer a beer!
