                               Psi4 1.3.2 release

  ==> Input File <==

--------------------------------------------------------------------------
#psi4
#
memory 32 gb

molecule  {
0 1
  O        1.8013450    -0.1222670    -0.0001450
  C       -0.5611510    -0.4520200    -0.0000120
  C        0.6707050     0.3546130    -0.0000040
  C       -1.6755566     0.0964754     0.0001379
  H       -0.4438600    -1.5324100    -0.0001440
  H        0.5134400     1.4540710     0.0000460
  H       -2.6894370    -0.4270490     0.0001690
  H       -1.8565530     1.2241520     0.0002830
units angstrom
no_reorient  #important for SAPT in psi4, default
symmetry c1  #important for SAPT in psi4, default
}

set PROPERTIES_ORIGIN ["COM"]
properties('MP2/aug-cc-pvtz', properties = ['dipole'])
--------------------------------------------------------------------------

    Molecular point group: c1
  Charge       = 0
  Multiplicity = 1
  Basis Set: AUG-CC-PVTZ
    Blend: AUG-CC-PVTZ
  Basis Set: (AUG-CC-PVTZ AUX)
    Blend: AUG-CC-PVTZ-JKFIT

    Orbital Energies [Eh]
    ---------------------

    Doubly Occupied:

       1A    -20.561307     2A    -11.340653     3A    -11.266638
       4A    -11.244916     5A     -1.384077     6A     -1.114864
       7A     -0.881048     8A     -0.784895     9A     -0.678598
      10A     -0.664830    11A     -0.611080    12A     -0.542559
      13A     -0.530919    14A     -0.433307    15A     -0.423751

  @DF-RHF Final Energy:  -190.81945439009652

   => Energetics <=

    Nuclear Repulsion Energy =            104.0191882391551559
    One-Electron Energy =                -464.7504006427296304
    Two-Electron Energy =                 169.9117580134779644
    Total Energy =                       -190.8194543900965243
  Basis Set: (AUG-CC-PVTZ AUX)
    Blend: AUG-CC-PVTZ-RI
    Molecular point group: c1

    Geometry (in Angstrom), charge = 0, multiplicity = 1:

       Center              X                  Y                   Z               Mass
    ------------   -----------------  -----------------  -----------------  -----------------
         O            1.703017989196    -0.100090933316    -0.000136081094    15.994914619570
         C           -0.659478010804    -0.429843933316    -0.000003081094    12.000000000000
         C            0.572377989196     0.376789066684     0.000004918906    12.000000000000
         C           -1.773883610804     0.118651466684     0.000146818906    12.000000000000
         H           -0.542187010804    -1.510233933316    -0.000135081094     1.007825032230
         H            0.415112989196     1.476247066684     0.000054918906     1.007825032230
         H           -2.787764010804    -0.404872933316     0.000177918906     1.007825032230
         H           -1.954880010804     1.246328066684     0.000291918906     1.007825032230

  Basis Set: AUG-CC-PVTZ
    Blend: AUG-CC-PVTZ
  Basis Set: (AUG-CC-PVTZ AUX)
    Blend: AUG-CC-PVTZ-JKFIT
	 Reference Energy          =    -190.8194543900965243 [Eh]
	 Singles Energy            =      -0.0000000000000000 [Eh]
	 Same-Spin Energy          =      -0.1834710437569444 [Eh]
	 Opposite-Spin Energy      =      -0.6047734753338183 [Eh]
	 Correlation Energy        =      -0.7882445190907628 [Eh]
	 Total Energy              =    -191.6076989091872917 [Eh]

	 ================> DF-SCS-MP2 Energies <==================
	-----------------------------------------------------------
	 SCS Same-Spin Scale       =       0.3333333333333333 [-]
	 SCS Opposite-Spin Scale   =       1.2000000000000000 [-]
	 SCS Same-Spin Energy      =      -0.0611570145856481 [Eh]
	 SCS Opposite-Spin Energy  =      -0.7257281704005819 [Eh]
	 SCS Correlation Energy    =      -0.7868851849862301 [Eh]
	 SCS Total Energy          =    -191.6063395750827567 [Eh]
	-----------------------------------------------------------

  Dipole Moment: [D]
     X:    -3.1511      Y:     0.6517      Z:     0.0003     Total:     3.2178

*** Psi4 exiting successfully. Buy a developer a beer!
