                               Psi4 1.3.2 release

  ==> Input File <==

--------------------------------------------------------------------------
#psi4
#
memory 32 gb

molecule  {
0 1
  O        1.8013450    -0.1222670    -0.0001450
  C       -0.5611510    -0.4520200    -0.0000120
  C        0.5785654     0.3934755     0.0000075
  C       -1.7652780     0.1406350     0.0001500
  H       -0.4438600    -1.5324100    -0.0001440
  H        0.5134400     1.4540710     0.0000460
  H       -2.6894370    -0.4270490     0.0001690
  H       -1.8565530     1.2241520     0.0002830
units angstrom
no_reorient  #important for SAPT in psi4, default
symmetry c1  #important for SAPT in psi4, default
}

set PROPERTIES_ORIGIN ["COM"]
properties('MP2/aug-cc-pvtz', properties = ['dipole'])
--------------------------------------------------------------------------

    Molecular point group: c1
  Charge       = 0
  Multiplicity = 1
  Basis Set: AUG-CC-PVTZ
    Blend: AUG-CC-PVTZ
  Basis Set: (AUG-CC-PVTZ AUX)
    Blend: AUG-CC-PVTZ-JKFIT

    Orbital Energies [Eh]
    ---------------------

    Doubly Occupied:

       1A    -20.552325     2A    -11.343229     3A    -11.283890
       4A    -11.264254     5A     -1.320348     6A     -1.105420
       7A     -0.903575     8A     -0.802168     9A     -0.674896
      10A     -0.666296    11A     -0.576136    12A     -0.566278
      13A     -0.511436    14A     -0.439398    15A     -0.395112

  @DF-RHF Final Energy:  -190.80780570241018

   => Energetics <=

    Nuclear Repulsion Energy =            102.0233232544072450
    One-Electron Energy =                -460.8527386780504571
    Two-Electron Energy =                 168.0216097212330624
    Total Energy =                       -190.8078057024101781
  Basis Set: (AUG-CC-PVTZ AUX)
    Blend: AUG-CC-PVTZ-RI
    Molecular point group: c1

    Geometry (in Angstrom), charge = 0, multiplicity = 1:

       Center              X                  Y                   Z               Mass
    ------------   -----------------  -----------------  -----------------  -----------------
         O            1.741969969261    -0.117873059138    -0.000141135870    15.994914619570
         C           -0.620526030739    -0.447626059138    -0.000008135870    12.000000000000
         C            0.519190369261     0.397869440862     0.000011364130    12.000000000000
         C           -1.824653030739     0.145028940862     0.000153864130    12.000000000000
         H           -0.503235030739    -1.528016059138    -0.000140135870     1.007825032230
         H            0.454064969261     1.458464940862     0.000049864130     1.007825032230
         H           -2.748812030739    -0.422655059138     0.000172864130     1.007825032230
         H           -1.915928030739     1.228545940862     0.000286864130     1.007825032230

  Basis Set: AUG-CC-PVTZ
    Blend: AUG-CC-PVTZ
  Basis Set: (AUG-CC-PVTZ AUX)
    Blend: AUG-CC-PVTZ-JKFIT
	 Reference Energy          =    -190.8078057024101781 [Eh]
	 Singles Energy            =      -0.0000000000000000 [Eh]
	 Same-Spin Energy          =      -0.1870962671267595 [Eh]
	 Opposite-Spin Energy      =      -0.6134985818923282 [Eh]
	 Correlation Energy        =      -0.8005948490190877 [Eh]
	 Total Energy              =    -191.6084005514292699 [Eh]

	 ================> DF-SCS-MP2 Energies <==================
	-----------------------------------------------------------
	 SCS Same-Spin Scale       =       0.3333333333333333 [-]
	 SCS Opposite-Spin Scale   =       1.2000000000000000 [-]
	 SCS Same-Spin Energy      =      -0.0623654223755865 [Eh]
	 SCS Opposite-Spin Energy  =      -0.7361982982707939 [Eh]
	 SCS Correlation Energy    =      -0.7985637206463804 [Eh]
	 SCS Total Energy          =    -191.6063694230565488 [Eh]
	-----------------------------------------------------------

  Dipole Moment: [D]
     X:    -3.6237      Y:     0.7550      Z:     0.0003     Total:     3.7016

*** Psi4 exiting successfully. Buy a developer a beer!
