                               Psi4 1.3.2 release

  ==> Input File <==

--------------------------------------------------------------------------
#psi4
#
memory 32 gb

molecule  {
0 1
  O        1.8013450    -0.1222670    -0.0001450
  C       -0.5611510    -0.4520200    -0.0000120
  C        0.6707050     0.3546130    -0.0000040
  C       -1.8549994     0.1847946     0.0001621
  H       -0.4438600    -1.5324100    -0.0001440
  H        0.5134400     1.4540710     0.0000460
  H       -2.6894370    -0.4270490     0.0001690
  H       -1.8565530     1.2241520     0.0002830
units angstrom
no_reorient  #important for SAPT in psi4, default
symmetry c1  #important for SAPT in psi4, default
}

set PROPERTIES_ORIGIN ["COM"]
properties('MP2/aug-cc-pvtz', properties = ['dipole'])
--------------------------------------------------------------------------

    Molecular point group: c1
  Charge       = 0
  Multiplicity = 1
  Basis Set: AUG-CC-PVTZ
    Blend: AUG-CC-PVTZ
  Basis Set: (AUG-CC-PVTZ AUX)
    Blend: AUG-CC-PVTZ-JKFIT

    Orbital Energies [Eh]
    ---------------------

    Doubly Occupied:

       1A    -20.559570     2A    -11.340819     3A    -11.283965
       4A    -11.274935     5A     -1.382700     6A     -1.070175
       7A     -0.900700     8A     -0.790058     9A     -0.677868
      10A     -0.662511    11A     -0.603339    12A     -0.573828
      13A     -0.536535    14A     -0.434545    15A     -0.381173

  @DF-RHF Final Energy:  -190.81609700053042

   => Energetics <=

    Nuclear Repulsion Energy =            101.3619021452951756
    One-Electron Energy =                -459.4105556432796220
    Two-Electron Energy =                 167.2325564974540271
    Total Energy =                       -190.8160970005304193
  Basis Set: (AUG-CC-PVTZ AUX)
    Blend: AUG-CC-PVTZ-RI
    Molecular point group: c1

    Geometry (in Angstrom), charge = 0, multiplicity = 1:

       Center              X                  Y                   Z               Mass
    ------------   -----------------  -----------------  -----------------  -----------------
         O            1.741452026007    -0.119007620884    -0.000141264382    15.994914619570
         C           -0.621043973993    -0.448760620884    -0.000008264382    12.000000000000
         C            0.610812026007     0.357872379116    -0.000000264382    12.000000000000
         C           -1.914892373993     0.188053979116     0.000165835618    12.000000000000
         H           -0.503752973993    -1.529150620884    -0.000140264382     1.007825032230
         H            0.453547026007     1.457330379116     0.000049735618     1.007825032230
         H           -2.749329973993    -0.423789620884     0.000172735618     1.007825032230
         H           -1.916445973993     1.227411379116     0.000286735618     1.007825032230

  Basis Set: AUG-CC-PVTZ
    Blend: AUG-CC-PVTZ
  Basis Set: (AUG-CC-PVTZ AUX)
    Blend: AUG-CC-PVTZ-JKFIT
	 Reference Energy          =    -190.8160970005304193 [Eh]
	 Singles Energy            =      -0.0000000000000000 [Eh]
	 Same-Spin Energy          =      -0.1847629910200772 [Eh]
	 Opposite-Spin Energy      =      -0.6093481291879741 [Eh]
	 Correlation Energy        =      -0.7941111202080513 [Eh]
	 Total Energy              =    -191.6102081207384629 [Eh]

	 ================> DF-SCS-MP2 Energies <==================
	-----------------------------------------------------------
	 SCS Same-Spin Scale       =       0.3333333333333333 [-]
	 SCS Opposite-Spin Scale   =       1.2000000000000000 [-]
	 SCS Same-Spin Energy      =      -0.0615876636733591 [Eh]
	 SCS Opposite-Spin Energy  =      -0.7312177550255688 [Eh]
	 SCS Correlation Energy    =      -0.7928054186989280 [Eh]
	 SCS Total Energy          =    -191.6089024192293380 [Eh]
	-----------------------------------------------------------

  Dipole Moment: [D]
     X:    -3.2114      Y:     0.6504      Z:     0.0003     Total:     3.2766

*** Psi4 exiting successfully. Buy a developer a beer!
