                               Psi4 1.3.2 release

  ==> Input File <==

--------------------------------------------------------------------------
#psi4
#
memory 32 gb

molecule  {
0 1
  O        1.8013450    -0.1222670    -0.0001450
  C       -0.5825679    -0.4936824    -0.0000145
  C        0.6707050     0.3546130    -0.0000040
  C       -1.7652780     0.1406350     0.0001500
  H       -0.4438600    -1.5324100    -0.0001440
  H        0.5134400     1.4540710     0.0000460
  H       -2.6894370    -0.4270490     0.0001690
  H       -1.8565530     1.2241520     0.0002830
units angstrom
no_reorient  #important for SAPT in psi4, default
symmetry c1  #important for SAPT in psi4, default
}

set PROPERTIES_ORIGIN ["COM"]
properties('MP2/aug-cc-pvtz', properties = ['dipole'])
--------------------------------------------------------------------------

    Molecular point group: c1
  Charge       = 0
  Multiplicity = 1
  Basis Set: AUG-CC-PVTZ
    Blend: AUG-CC-PVTZ
  Basis Set: (AUG-CC-PVTZ AUX)
    Blend: AUG-CC-PVTZ-JKFIT

    Orbital Energies [Eh]
    ---------------------

    Doubly Occupied:

       1A    -20.560682     2A    -11.343068     3A    -11.272789
       4A    -11.260608     5A     -1.383030     6A     -1.085527
       7A     -0.880958     8A     -0.795120     9A     -0.669631
      10A     -0.665136    11A     -0.606389    12A     -0.566736
      13A     -0.536413    14A     -0.431166    15A     -0.400732

  @DF-RHF Final Energy:  -190.83147786686760

   => Energetics <=

    Nuclear Repulsion Energy =            102.2091680541787611
    One-Electron Energy =                -461.1653215108029258
    Two-Electron Energy =                 168.1246755897565777
    Total Energy =                       -190.8314778668676013
  Basis Set: (AUG-CC-PVTZ AUX)
    Blend: AUG-CC-PVTZ-RI
    Molecular point group: c1

    Geometry (in Angstrom), charge = 0, multiplicity = 1:

       Center              X                  Y                   Z               Mass
    ------------   -----------------  -----------------  -----------------  -----------------
         O            1.726822195959    -0.100625797221    -0.000138137274    15.994914619570
         C           -0.657090704041    -0.472041197221    -0.000007637274    12.000000000000
         C            0.596182195959     0.376254202779     0.000002862726    12.000000000000
         C           -1.839800804041     0.162276202779     0.000156862726    12.000000000000
         H           -0.518382804041    -1.510768797221    -0.000137137274     1.007825032230
         H            0.438917195959     1.475712202779     0.000052862726     1.007825032230
         H           -2.763959804041    -0.405407797221     0.000175862726     1.007825032230
         H           -1.931075804041     1.245793202779     0.000289862726     1.007825032230

  Basis Set: AUG-CC-PVTZ
    Blend: AUG-CC-PVTZ
  Basis Set: (AUG-CC-PVTZ AUX)
    Blend: AUG-CC-PVTZ-JKFIT
	 Reference Energy          =    -190.8314778668676013 [Eh]
	 Singles Energy            =      -0.0000000000000000 [Eh]
	 Same-Spin Energy          =      -0.1834464719180556 [Eh]
	 Opposite-Spin Energy      =      -0.6061409088690073 [Eh]
	 Correlation Energy        =      -0.7895873807870629 [Eh]
	 Total Energy              =    -191.6210652476546556 [Eh]

	 ================> DF-SCS-MP2 Energies <==================
	-----------------------------------------------------------
	 SCS Same-Spin Scale       =       0.3333333333333333 [-]
	 SCS Opposite-Spin Scale   =       1.2000000000000000 [-]
	 SCS Same-Spin Energy      =      -0.0611488239726852 [Eh]
	 SCS Opposite-Spin Energy  =      -0.7273690906428087 [Eh]
	 SCS Correlation Energy    =      -0.7885179146154939 [Eh]
	 SCS Total Energy          =    -191.6199957814830839 [Eh]
	-----------------------------------------------------------

  Dipole Moment: [D]
     X:    -3.1153      Y:     0.6700      Z:     0.0003     Total:     3.1866

*** Psi4 exiting successfully. Buy a developer a beer!
