                               Psi4 1.3.2 release

  ==> Input File <==

--------------------------------------------------------------------------
#psi4
#
memory 32 gb

molecule  {
0 1
  O        1.8318563    -0.0422359    -0.0001375
  C       -0.5611510    -0.4520200    -0.0000120
  C        0.6707050     0.3546130    -0.0000040
  C       -1.7652780     0.1406350     0.0001500
  H       -0.4438600    -1.5324100    -0.0001440
  H        0.5134400     1.4540710     0.0000460
  H       -2.6894370    -0.4270490     0.0001690
  H       -1.8565530     1.2241520     0.0002830
units angstrom
no_reorient  #important for SAPT in psi4, default
symmetry c1  #important for SAPT in psi4, default
}

set PROPERTIES_ORIGIN ["COM"]
properties('MP2/aug-cc-pvtz', properties = ['dipole'])
--------------------------------------------------------------------------

    Molecular point group: c1
  Charge       = 0
  Multiplicity = 1
  Basis Set: AUG-CC-PVTZ
    Blend: AUG-CC-PVTZ
  Basis Set: (AUG-CC-PVTZ AUX)
    Blend: AUG-CC-PVTZ-JKFIT

    Orbital Energies [Eh]
    ---------------------

    Doubly Occupied:

       1A    -20.559732     2A    -11.339869     3A    -11.278050
       4A    -11.263681     5A     -1.382198     6A     -1.091828
       7A     -0.890936     8A     -0.787819     9A     -0.672184
      10A     -0.667720    11A     -0.603952    12A     -0.563174
      13A     -0.538017    14A     -0.432112    15A     -0.403113

  @DF-RHF Final Energy:  -190.83246492694983

   => Energetics <=

    Nuclear Repulsion Energy =            102.3594147779365358
    One-Electron Energy =                -461.4349852910975756
    Two-Electron Energy =                 168.2431055862112146
    Total Energy =                       -190.8324649269498252
  Basis Set: (AUG-CC-PVTZ AUX)
    Blend: AUG-CC-PVTZ-RI
    Molecular point group: c1

    Geometry (in Angstrom), charge = 0, multiplicity = 1:

       Center              X                  Y                   Z               Mass
    ------------   -----------------  -----------------  -----------------  -----------------
         O            1.744035641700    -0.052366242370    -0.000133313911    15.994914619570
         C           -0.648971658300    -0.462150342370    -0.000007813911    12.000000000000
         C            0.582884341700     0.344482657630     0.000000186089    12.000000000000
         C           -1.853098658300     0.130504657630     0.000154186089    12.000000000000
         H           -0.531680658300    -1.542540342370    -0.000139813911     1.007825032230
         H            0.425619341700     1.443940657630     0.000050186089     1.007825032230
         H           -2.777257658300    -0.437179342370     0.000173186089     1.007825032230
         H           -1.944373658300     1.214021657630     0.000287186089     1.007825032230

  Basis Set: AUG-CC-PVTZ
    Blend: AUG-CC-PVTZ
  Basis Set: (AUG-CC-PVTZ AUX)
    Blend: AUG-CC-PVTZ-JKFIT
	 Reference Energy          =    -190.8324649269498252 [Eh]
	 Singles Energy            =      -0.0000000000000000 [Eh]
	 Same-Spin Energy          =      -0.1837457314423615 [Eh]
	 Opposite-Spin Energy      =      -0.6064027120566418 [Eh]
	 Correlation Energy        =      -0.7901484434990033 [Eh]
	 Total Energy              =    -191.6226133704488177 [Eh]

	 ================> DF-SCS-MP2 Energies <==================
	-----------------------------------------------------------
	 SCS Same-Spin Scale       =       0.3333333333333333 [-]
	 SCS Opposite-Spin Scale   =       1.2000000000000000 [-]
	 SCS Same-Spin Energy      =      -0.0612485771474538 [Eh]
	 SCS Opposite-Spin Energy  =      -0.7276832544679701 [Eh]
	 SCS Correlation Energy    =      -0.7889318316154239 [Eh]
	 SCS Total Energy          =    -191.6213967585652540 [Eh]
	-----------------------------------------------------------

  Dipole Moment: [D]
     X:    -3.3107      Y:     0.4946      Z:     0.0003     Total:     3.3475

*** Psi4 exiting successfully. Buy a developer a beer!
