                               Psi4 1.4a3.dev225

  ==> Input File <==

--------------------------------------------------------------------------
#psi4
#
memory 32 gb

molecule  {
0 1
  O        1.8012870    -0.1222550    -0.0001540
  C       -0.5611720    -0.4521110    -0.0000010
  C        0.6539580     0.3437203    -0.0000207
  C       -1.7652280     0.1406020     0.0001560
  H       -0.4434470    -1.5324470    -0.0001170
  H        0.5133250     1.4540820     0.0000960
  H       -2.6895930    -0.4267550     0.0001780
  H       -1.8563190     1.2241470     0.0002720
units angstrom
no_reorient  #important for SAPT in psi4, default
symmetry c1  #important for SAPT in psi4, default
}

set PROPERTIES_ORIGIN ["COM"]
properties('MP2/aug-cc-pvtz', properties = ['dipole'])
--------------------------------------------------------------------------

    Molecular point group: c1
  Charge       = 0
  Multiplicity = 1
  Basis Set: AUG-CC-PVTZ
    Blend: AUG-CC-PVTZ
  Basis Set: (AUG-CC-PVTZ AUX)
    Blend: AUG-CC-PVTZ-JKFIT

    Orbital Energies [Eh]
    ---------------------

    Doubly Occupied:

       1A    -20.558673     2A    -11.340508     3A    -11.277964
       4A    -11.260952     5A     -1.374959     6A     -1.093855
       7A     -0.893608     8A     -0.787659     9A     -0.671691
      10A     -0.667018    11A     -0.600418    12A     -0.562101
      13A     -0.535440    14A     -0.434758    15A     -0.401217

  @DF-RHF Final Energy:  -190.83144195326054

   => Energetics <=

    Nuclear Repulsion Energy =            102.6487411867648518
    One-Electron Energy =                -462.0387240229604231
    Two-Electron Energy =                 168.5585408829350627
    Total Energy =                       -190.8314419532605370
  Basis Set: (AUG-CC-PVTZ AUX)
    Blend: AUG-CC-PVTZ-RI
    Molecular point group: c1

    Geometry (in Angstrom), charge = 0, multiplicity = 1:

       Center              X                  Y                   Z               Mass
    ------------   -----------------  -----------------  -----------------  -----------------
         O            1.725767554701    -0.107185817098    -0.000146516719    15.994914619570
         C           -0.636691445299    -0.437041817098     0.000006483281    12.000000000000
         C            0.578438554701     0.358789482902    -0.000013216719    12.000000000000
         C           -1.840747445299     0.155671182902     0.000163483281    12.000000000000
         H           -0.518966445299    -1.517377817098    -0.000109516719     1.007825032230
         H            0.437805554701     1.469151182902     0.000103483281     1.007825032230
         H           -2.765112445299    -0.411685817098     0.000185483281     1.007825032230
         H           -1.931838445299     1.239216182902     0.000279483281     1.007825032230

  Basis Set: AUG-CC-PVTZ
    Blend: AUG-CC-PVTZ
  Basis Set: (AUG-CC-PVTZ AUX)
    Blend: AUG-CC-PVTZ-JKFIT
	 Reference Energy          =    -190.8314419532605370 [Eh]
	 Singles Energy            =      -0.0000000000000000 [Eh]
	 Same-Spin Energy          =      -0.1842538697336074 [Eh]
	 Opposite-Spin Energy      =      -0.6072083457293198 [Eh]
	 Correlation Energy        =      -0.7914622154629272 [Eh]
	 Total Energy              =    -191.6229041687234655 [Eh]

	 ================> DF-SCS-MP2 Energies <==================
	-----------------------------------------------------------
	 SCS Same-Spin Scale       =       0.3333333333333333 [-]
	 SCS Opposite-Spin Scale   =       1.2000000000000000 [-]
	 SCS Same-Spin Energy      =      -0.0614179565778691 [Eh]
	 SCS Opposite-Spin Energy  =      -0.7286500148751838 [Eh]
	 SCS Correlation Energy    =      -0.7900679714530529 [Eh]
	 SCS Total Energy          =    -191.6215099247135925 [Eh]
	-----------------------------------------------------------

  Dipole Moment: [D]
     X:    -3.3161      Y:     0.6292      Z:     0.0003     Total:     3.3752

*** Psi4 exiting successfully. Buy a developer a beer!
