                               Psi4 1.4a3.dev225

  ==> Input File <==

--------------------------------------------------------------------------
#psi4
#
memory 32 gb

molecule  {
0 1
  O        1.8012870    -0.1222550    -0.0001540
  C       -0.5611720    -0.4521110    -0.0000010
  C        0.6246202     0.3741117    -0.0000156
  C       -1.7652280     0.1406020     0.0001560
  H       -0.4434470    -1.5324470    -0.0001170
  H        0.5133250     1.4540820     0.0000960
  H       -2.6895930    -0.4267550     0.0001780
  H       -1.8563190     1.2241470     0.0002720
units angstrom
no_reorient  #important for SAPT in psi4, default
symmetry c1  #important for SAPT in psi4, default
}

set PROPERTIES_ORIGIN ["COM"]
properties('MP2/aug-cc-pvtz', properties = ['dipole'])
--------------------------------------------------------------------------

    Molecular point group: c1
  Charge       = 0
  Multiplicity = 1
  Basis Set: AUG-CC-PVTZ
    Blend: AUG-CC-PVTZ
  Basis Set: (AUG-CC-PVTZ AUX)
    Blend: AUG-CC-PVTZ-JKFIT

    Orbital Energies [Eh]
    ---------------------

    Doubly Occupied:

       1A    -20.556355     2A    -11.341951     3A    -11.279431
       4A    -11.262582     5A     -1.350076     6A     -1.097361
       7A     -0.896873     8A     -0.795287     9A     -0.669523
      10A     -0.667874    11A     -0.591057    12A     -0.563584
      13A     -0.522900    14A     -0.438505    15A     -0.398900

  @DF-RHF Final Energy:  -190.82393055053237

   => Energetics <=

    Nuclear Repulsion Energy =            102.2821084838848407
    One-Electron Energy =                -461.3475587504335067
    Two-Electron Energy =                 168.2415197160163132
    Total Energy =                       -190.8239305505323671
  Basis Set: (AUG-CC-PVTZ AUX)
    Blend: AUG-CC-PVTZ-RI
    Molecular point group: c1

    Geometry (in Angstrom), charge = 0, multiplicity = 1:

       Center              X                  Y                   Z               Mass
    ------------   -----------------  -----------------  -----------------  -----------------
         O            1.732051284586    -0.113695212773    -0.000147609065    15.994914619570
         C           -0.630407715414    -0.443551212773     0.000005390935    12.000000000000
         C            0.555384484586     0.382671487227    -0.000009209065    12.000000000000
         C           -1.834463715414     0.149161787227     0.000162390935    12.000000000000
         H           -0.512682715414    -1.523887212773    -0.000110609065     1.007825032230
         H            0.444089284586     1.462641787227     0.000102390935     1.007825032230
         H           -2.758828715414    -0.418195212773     0.000184390935     1.007825032230
         H           -1.925554715414     1.232706787227     0.000278390935     1.007825032230

  Basis Set: AUG-CC-PVTZ
    Blend: AUG-CC-PVTZ
  Basis Set: (AUG-CC-PVTZ AUX)
    Blend: AUG-CC-PVTZ-JKFIT
	 Reference Energy          =    -190.8239305505323671 [Eh]
	 Singles Energy            =      -0.0000000000000000 [Eh]
	 Same-Spin Energy          =      -0.1853192067496095 [Eh]
	 Opposite-Spin Energy      =      -0.6097202797784367 [Eh]
	 Correlation Energy        =      -0.7950394865280461 [Eh]
	 Total Energy              =    -191.6189700370604214 [Eh]

	 ================> DF-SCS-MP2 Energies <==================
	-----------------------------------------------------------
	 SCS Same-Spin Scale       =       0.3333333333333333 [-]
	 SCS Opposite-Spin Scale   =       1.2000000000000000 [-]
	 SCS Same-Spin Energy      =      -0.0617730689165365 [Eh]
	 SCS Opposite-Spin Energy  =      -0.7316643357341240 [Eh]
	 SCS Correlation Energy    =      -0.7934374046506605 [Eh]
	 SCS Total Energy          =    -191.6173679551830276 [Eh]
	-----------------------------------------------------------

  Dipole Moment: [D]
     X:    -3.4405      Y:     0.7206      Z:     0.0003     Total:     3.5152

*** Psi4 exiting successfully. Buy a developer a beer!
