                               Psi4 1.4a3.dev225

  ==> Input File <==

--------------------------------------------------------------------------
#psi4
#
memory 32 gb

molecule  {
0 1
  O        1.8012870    -0.1222550    -0.0001540
  C       -0.5611720    -0.4521110    -0.0000010
  C        0.6891165     0.3469045    -0.0000232
  C       -1.7652280     0.1406020     0.0001560
  H       -0.4434470    -1.5324470    -0.0001170
  H        0.5133250     1.4540820     0.0000960
  H       -2.6895930    -0.4267550     0.0001780
  H       -1.8563190     1.2241470     0.0002720
units angstrom
no_reorient  #important for SAPT in psi4, default
symmetry c1  #important for SAPT in psi4, default
}

set PROPERTIES_ORIGIN ["COM"]
properties('MP2/aug-cc-pvtz', properties = ['dipole'])
--------------------------------------------------------------------------

    Molecular point group: c1
  Charge       = 0
  Multiplicity = 1
  Basis Set: AUG-CC-PVTZ
    Blend: AUG-CC-PVTZ
  Basis Set: (AUG-CC-PVTZ AUX)
    Blend: AUG-CC-PVTZ-JKFIT

    Orbital Energies [Eh]
    ---------------------

    Doubly Occupied:

       1A    -20.561696     2A    -11.339886     3A    -11.273586
       4A    -11.260034     5A     -1.397362     6A     -1.086327
       7A     -0.886538     8A     -0.786179     9A     -0.674243
      10A     -0.666264    11A     -0.608268    12A     -0.560213
      13A     -0.546269    14A     -0.431659    15A     -0.401137

  @DF-RHF Final Energy:  -190.83509895241252

   => Energetics <=

    Nuclear Repulsion Energy =            102.7494288619232492
    One-Electron Energy =                -462.2097336958678966
    Two-Electron Energy =                 168.6252058815321107
    Total Energy =                       -190.8350989524125225
  Basis Set: (AUG-CC-PVTZ AUX)
    Blend: AUG-CC-PVTZ-RI
    Molecular point group: c1

    Geometry (in Angstrom), charge = 0, multiplicity = 1:

       Center              X                  Y                   Z               Mass
    ------------   -----------------  -----------------  -----------------  -----------------
         O            1.718237115568    -0.107867826407    -0.000145981255    15.994914619570
         C           -0.644221884432    -0.437723826407     0.000007018745    12.000000000000
         C            0.606066615568     0.361291673593    -0.000015181255    12.000000000000
         C           -1.848277884432     0.154989173593     0.000164018745    12.000000000000
         H           -0.526496884432    -1.518059826407    -0.000108981255     1.007825032230
         H            0.430275115568     1.468469173593     0.000104018745     1.007825032230
         H           -2.772642884432    -0.412367826407     0.000186018745     1.007825032230
         H           -1.939368884432     1.238534173593     0.000280018745     1.007825032230

  Basis Set: AUG-CC-PVTZ
    Blend: AUG-CC-PVTZ
  Basis Set: (AUG-CC-PVTZ AUX)
    Blend: AUG-CC-PVTZ-JKFIT
	 Reference Energy          =    -190.8350989524125225 [Eh]
	 Singles Energy            =      -0.0000000000000000 [Eh]
	 Same-Spin Energy          =      -0.1831789914633863 [Eh]
	 Opposite-Spin Energy      =      -0.6050480937449909 [Eh]
	 Correlation Energy        =      -0.7882270852083773 [Eh]
	 Total Energy              =    -191.6233260376208989 [Eh]

	 ================> DF-SCS-MP2 Energies <==================
	-----------------------------------------------------------
	 SCS Same-Spin Scale       =       0.3333333333333333 [-]
	 SCS Opposite-Spin Scale   =       1.2000000000000000 [-]
	 SCS Same-Spin Energy      =      -0.0610596638211288 [Eh]
	 SCS Opposite-Spin Energy  =      -0.7260577124939891 [Eh]
	 SCS Correlation Energy    =      -0.7871173763151179 [Eh]
	 SCS Total Energy          =    -191.6222163287276317 [Eh]
	-----------------------------------------------------------

  Dipole Moment: [D]
     X:    -3.0969      Y:     0.6269      Z:     0.0003     Total:     3.1597

*** Psi4 exiting successfully. Buy a developer a beer!
