                               Psi4 1.3.2 release

  ==> Input File <==

--------------------------------------------------------------------------
#psi4
#
memory 32 gb

molecule  {
0 1
  O        1.8013450    -0.1222670    -0.0001450
  C       -0.5611510    -0.4520200    -0.0000120
  C        0.6981057     0.3111305    -0.0000114
  C       -1.7652780     0.1406350     0.0001500
  H       -0.4438600    -1.5324100    -0.0001440
  H        0.5134400     1.4540710     0.0000460
  H       -2.6894370    -0.4270490     0.0001690
  H       -1.8565530     1.2241520     0.0002830
units angstrom
no_reorient  #important for SAPT in psi4, default
symmetry c1  #important for SAPT in psi4, default
}

set PROPERTIES_ORIGIN ["COM"]
properties('MP2/aug-cc-pvtz', properties = ['dipole'])
--------------------------------------------------------------------------

    Molecular point group: c1
  Charge       = 0
  Multiplicity = 1
  Basis Set: AUG-CC-PVTZ
    Blend: AUG-CC-PVTZ
  Basis Set: (AUG-CC-PVTZ AUX)
    Blend: AUG-CC-PVTZ-JKFIT

    Orbital Energies [Eh]
    ---------------------

    Doubly Occupied:

       1A    -20.562629     2A    -11.338922     3A    -11.275030
       4A    -11.259262     5A     -1.412883     6A     -1.087477
       7A     -0.887738     8A     -0.779494     9A     -0.678297
      10A     -0.667518    11A     -0.610898    12A     -0.560559
      13A     -0.556165    14A     -0.426567    15A     -0.402842

  @DF-RHF Final Energy:  -190.83378179183163

   => Energetics <=

    Nuclear Repulsion Energy =            103.1323405794280319
    One-Electron Energy =                -462.9196784398575915
    Two-Electron Energy =                 168.9535560685979192
    Total Energy =                       -190.8337817918316262
  Basis Set: (AUG-CC-PVTZ AUX)
    Blend: AUG-CC-PVTZ-RI
    Molecular point group: c1

    Geometry (in Angstrom), charge = 0, multiplicity = 1:

       Center              X                  Y                   Z               Mass
    ------------   -----------------  -----------------  -----------------  -----------------
         O            1.716366176350    -0.100235958284    -0.000137087765    15.994914619570
         C           -0.646129823650    -0.429988958284    -0.000004087765    12.000000000000
         C            0.613126876350     0.333161541716    -0.000003487765    12.000000000000
         C           -1.850256823650     0.162666041716     0.000157912235    12.000000000000
         H           -0.528838823650    -1.510378958284    -0.000136087765     1.007825032230
         H            0.428461176350     1.476102041716     0.000053912235     1.007825032230
         H           -2.774415823650    -0.405017958284     0.000176912235     1.007825032230
         H           -1.941531823650     1.246183041716     0.000290912235     1.007825032230

  Basis Set: AUG-CC-PVTZ
    Blend: AUG-CC-PVTZ
  Basis Set: (AUG-CC-PVTZ AUX)
    Blend: AUG-CC-PVTZ-JKFIT
	 Reference Energy          =    -190.8337817918316262 [Eh]
	 Singles Energy            =      -0.0000000000000000 [Eh]
	 Same-Spin Energy          =      -0.1828665169414881 [Eh]
	 Opposite-Spin Energy      =      -0.6040548791660456 [Eh]
	 Correlation Energy        =      -0.7869213961075338 [Eh]
	 Total Energy              =    -191.6207031879391707 [Eh]

	 ================> DF-SCS-MP2 Energies <==================
	-----------------------------------------------------------
	 SCS Same-Spin Scale       =       0.3333333333333333 [-]
	 SCS Opposite-Spin Scale   =       1.2000000000000000 [-]
	 SCS Same-Spin Energy      =      -0.0609555056471627 [Eh]
	 SCS Opposite-Spin Energy  =      -0.7248658549992547 [Eh]
	 SCS Correlation Energy    =      -0.7858213606464174 [Eh]
	 SCS Total Energy          =    -191.6196031524780494 [Eh]
	-----------------------------------------------------------

  Dipole Moment: [D]
     X:    -3.0691      Y:     0.4890      Z:     0.0003     Total:     3.1078

*** Psi4 exiting successfully. Buy a developer a beer!
