                               Psi4 1.3.2 release

  ==> Input File <==

--------------------------------------------------------------------------
#psi4
#
memory 32 gb

molecule  {
0 1
  O        1.8013450    -0.1222670    -0.0001450
  C       -0.5611510    -0.4520200    -0.0000120
  C        0.8549842     0.2768879    -0.0000270
  C       -1.7652780     0.1406350     0.0001500
  H       -0.4438600    -1.5324100    -0.0001440
  H        0.5134400     1.4540710     0.0000460
  H       -2.6894370    -0.4270490     0.0001690
  H       -1.8565530     1.2241520     0.0002830
units angstrom
no_reorient  #important for SAPT in psi4, default
symmetry c1  #important for SAPT in psi4, default
}

set PROPERTIES_ORIGIN ["COM"]
properties('MP2/aug-cc-pvtz', properties = ['dipole'])
--------------------------------------------------------------------------

    Molecular point group: c1
  Charge       = 0
  Multiplicity = 1
  Basis Set: AUG-CC-PVTZ
    Blend: AUG-CC-PVTZ
  Basis Set: (AUG-CC-PVTZ AUX)
    Blend: AUG-CC-PVTZ-JKFIT

    Orbital Energies [Eh]
    ---------------------

    Doubly Occupied:

       1A    -20.579831     2A    -11.334715     3A    -11.259298
       4A    -11.250802     5A     -1.549258     6A     -1.059899
       7A     -0.856994     8A     -0.773772     9A     -0.717823
      10A     -0.687969    11A     -0.646018    12A     -0.619760
      13A     -0.556661    14A     -0.395282    15A     -0.386974

  @DF-RHF Final Energy:  -190.76254411279663

   => Energetics <=

    Nuclear Repulsion Energy =            104.7094913574993029
    One-Electron Energy =                -465.5939572212905091
    Two-Electron Energy =                 170.1219217509945736
    Total Energy =                       -190.7625441127966326
  Basis Set: (AUG-CC-PVTZ AUX)
    Blend: AUG-CC-PVTZ-RI
    Molecular point group: c1

    Geometry (in Angstrom), charge = 0, multiplicity = 1:

       Center              X                  Y                   Z               Mass
    ------------   -----------------  -----------------  -----------------  -----------------
         O            1.682765084282    -0.092901691604    -0.000133746472    15.994914619570
         C           -0.679730915718    -0.422654691604    -0.000000746472    12.000000000000
         C            0.736404284282     0.306253208396    -0.000015746472    12.000000000000
         C           -1.883857915718     0.170000308396     0.000161253528    12.000000000000
         H           -0.562439915718    -1.503044691604    -0.000132746472     1.007825032230
         H            0.394860084282     1.483436308396     0.000057253528     1.007825032230
         H           -2.808016915718    -0.397683691604     0.000180253528     1.007825032230
         H           -1.975132915718     1.253517308396     0.000294253528     1.007825032230

  Basis Set: AUG-CC-PVTZ
    Blend: AUG-CC-PVTZ
  Basis Set: (AUG-CC-PVTZ AUX)
    Blend: AUG-CC-PVTZ-JKFIT
	 Reference Energy          =    -190.7625441127966326 [Eh]
	 Singles Energy            =      -0.0000000000000000 [Eh]
	 Same-Spin Energy          =      -0.1793165912724955 [Eh]
	 Opposite-Spin Energy      =      -0.5961245870226632 [Eh]
	 Correlation Energy        =      -0.7754411782951587 [Eh]
	 Total Energy              =    -191.5379852910917862 [Eh]

	 ================> DF-SCS-MP2 Energies <==================
	-----------------------------------------------------------
	 SCS Same-Spin Scale       =       0.3333333333333333 [-]
	 SCS Opposite-Spin Scale   =       1.2000000000000000 [-]
	 SCS Same-Spin Energy      =      -0.0597721970908318 [Eh]
	 SCS Opposite-Spin Energy  =      -0.7153495044271959 [Eh]
	 SCS Correlation Energy    =      -0.7751217015180277 [Eh]
	 SCS Total Energy          =    -191.5376658143146642 [Eh]
	-----------------------------------------------------------

  Dipole Moment: [D]
     X:    -1.8136      Y:     0.1190      Z:     0.0002     Total:     1.8175

*** Psi4 exiting successfully. Buy a developer a beer!
