                               Psi4 1.3.2 release

  ==> Input File <==

--------------------------------------------------------------------------
#psi4
#
memory 32 gb

molecule  {
0 1
  O        1.8013450    -0.1222670    -0.0001450
  C       -0.4700867    -0.5763652    -0.0000192
  C        0.6707050     0.3546130    -0.0000040
  C       -1.7652780     0.1406350     0.0001500
  H       -0.4438600    -1.5324100    -0.0001440
  H        0.5134400     1.4540710     0.0000460
  H       -2.6894370    -0.4270490     0.0001690
  H       -1.8565530     1.2241520     0.0002830
units angstrom
no_reorient  #important for SAPT in psi4, default
symmetry c1  #important for SAPT in psi4, default
}

set PROPERTIES_ORIGIN ["COM"]
properties('MP2/aug-cc-pvtz', properties = ['dipole'])
--------------------------------------------------------------------------

    Molecular point group: c1
  Charge       = 0
  Multiplicity = 1
  Basis Set: AUG-CC-PVTZ
    Blend: AUG-CC-PVTZ
  Basis Set: (AUG-CC-PVTZ AUX)
    Blend: AUG-CC-PVTZ-JKFIT

    Orbital Energies [Eh]
    ---------------------

    Doubly Occupied:

       1A    -20.551319     2A    -11.338786     3A    -11.296257
       4A    -11.269058     5A     -1.379813     6A     -1.063985
       7A     -0.884734     8A     -0.815538     9A     -0.676543
      10A     -0.658480    11A     -0.596352    12A     -0.576382
      13A     -0.534345    14A     -0.431406    15A     -0.371812

  @DF-RHF Final Energy:  -190.79269790072073

   => Energetics <=

    Nuclear Repulsion Energy =            101.7806446054542278
    One-Electron Energy =                -460.2570632985148791
    Two-Electron Energy =                 167.6837207923398978
    Total Energy =                       -190.7926979007207251
  Basis Set: (AUG-CC-PVTZ AUX)
    Blend: AUG-CC-PVTZ-RI
    Molecular point group: c1

    Geometry (in Angstrom), charge = 0, multiplicity = 1:

       Center              X                  Y                   Z               Mass
    ------------   -----------------  -----------------  -----------------  -----------------
         O            1.702730359556    -0.082916344522    -0.000137130602    15.994914619570
         C           -0.568701340444    -0.537014544522    -0.000011330602    12.000000000000
         C            0.572090359556     0.393963655478     0.000003869398    12.000000000000
         C           -1.863892640444     0.179985655478     0.000157869398    12.000000000000
         H           -0.542474640444    -1.493059344522    -0.000136130602     1.007825032230
         H            0.414825359556     1.493421655478     0.000053869398     1.007825032230
         H           -2.788051640444    -0.387698344522     0.000176869398     1.007825032230
         H           -1.955167640444     1.263502655478     0.000290869398     1.007825032230

  Basis Set: AUG-CC-PVTZ
    Blend: AUG-CC-PVTZ
  Basis Set: (AUG-CC-PVTZ AUX)
    Blend: AUG-CC-PVTZ-JKFIT
	 Reference Energy          =    -190.7926979007207251 [Eh]
	 Singles Energy            =      -0.0000000000000000 [Eh]
	 Same-Spin Energy          =      -0.1852259270318232 [Eh]
	 Opposite-Spin Energy      =      -0.6109491697194920 [Eh]
	 Correlation Energy        =      -0.7961750967513151 [Eh]
	 Total Energy              =    -191.5888729974720377 [Eh]

	 ================> DF-SCS-MP2 Energies <==================
	-----------------------------------------------------------
	 SCS Same-Spin Scale       =       0.3333333333333333 [-]
	 SCS Opposite-Spin Scale   =       1.2000000000000000 [-]
	 SCS Same-Spin Energy      =      -0.0617419756772744 [Eh]
	 SCS Opposite-Spin Energy  =      -0.7331390036633904 [Eh]
	 SCS Correlation Energy    =      -0.7948809793406647 [Eh]
	 SCS Total Energy          =    -191.5875788800613861 [Eh]
	-----------------------------------------------------------

  Dipole Moment: [D]
     X:    -3.2153      Y:     0.6609      Z:     0.0003     Total:     3.2826

*** Psi4 exiting successfully. Buy a developer a beer!
