                               Psi4 1.3.2 release

  ==> Input File <==

--------------------------------------------------------------------------
#psi4
#
memory 32 gb

molecule  {
0 1
  O        1.8013450    -0.1222670    -0.0001450
  C       -0.5412012    -0.4096355    -0.0000093
  C        0.6707050     0.3546130    -0.0000040
  C       -1.7652780     0.1406350     0.0001500
  H       -0.4438600    -1.5324100    -0.0001440
  H        0.5134400     1.4540710     0.0000460
  H       -2.6894370    -0.4270490     0.0001690
  H       -1.8565530     1.2241520     0.0002830
units angstrom
no_reorient  #important for SAPT in psi4, default
symmetry c1  #important for SAPT in psi4, default
}

set PROPERTIES_ORIGIN ["COM"]
properties('MP2/aug-cc-pvtz', properties = ['dipole'])
--------------------------------------------------------------------------

    Molecular point group: c1
  Charge       = 0
  Multiplicity = 1
  Basis Set: AUG-CC-PVTZ
    Blend: AUG-CC-PVTZ
  Basis Set: (AUG-CC-PVTZ AUX)
    Blend: AUG-CC-PVTZ-JKFIT

    Orbital Energies [Eh]
    ---------------------

    Doubly Occupied:

       1A    -20.559624     2A    -11.337659     3A    -11.278351
       4A    -11.261285     5A     -1.383184     6A     -1.094053
       7A     -0.899381     8A     -0.782758     9A     -0.675537
      10A     -0.666960    11A     -0.605733    12A     -0.550049
      13A     -0.541248    14A     -0.436487    15A     -0.401122

  @DF-RHF Final Energy:  -190.83022785621355

   => Energetics <=

    Nuclear Repulsion Energy =            103.0023544694503670
    One-Electron Energy =                -462.7183026788375741
    Two-Electron Energy =                 168.8857203531736388
    Total Energy =                       -190.8302278562135541
  Basis Set: (AUG-CC-PVTZ AUX)
    Blend: AUG-CC-PVTZ-RI
    Molecular point group: c1

    Geometry (in Angstrom), charge = 0, multiplicity = 1:

       Center              X                  Y                   Z               Mass
    ------------   -----------------  -----------------  -----------------  -----------------
         O            1.717962050717    -0.118627420292    -0.000139251038    15.994914619570
         C           -0.624584149283    -0.405995920292    -0.000003551038    12.000000000000
         C            0.587322050717     0.358252579708     0.000001748962    12.000000000000
         C           -1.848660949283     0.144274579708     0.000155748962    12.000000000000
         H           -0.527242949283    -1.528770420292    -0.000138251038     1.007825032230
         H            0.430057050717     1.457710579708     0.000051748962     1.007825032230
         H           -2.772819949283    -0.423409420292     0.000174748962     1.007825032230
         H           -1.939935949283     1.227791579708     0.000288748962     1.007825032230

  Basis Set: AUG-CC-PVTZ
    Blend: AUG-CC-PVTZ
  Basis Set: (AUG-CC-PVTZ AUX)
    Blend: AUG-CC-PVTZ-JKFIT
	 Reference Energy          =    -190.8302278562135541 [Eh]
	 Singles Energy            =      -0.0000000000000000 [Eh]
	 Same-Spin Energy          =      -0.1842012666569862 [Eh]
	 Opposite-Spin Energy      =      -0.6068496117238562 [Eh]
	 Correlation Energy        =      -0.7910508783808423 [Eh]
	 Total Energy              =    -191.6212787345943980 [Eh]

	 ================> DF-SCS-MP2 Energies <==================
	-----------------------------------------------------------
	 SCS Same-Spin Scale       =       0.3333333333333333 [-]
	 SCS Opposite-Spin Scale   =       1.2000000000000000 [-]
	 SCS Same-Spin Energy      =      -0.0614004222189954 [Eh]
	 SCS Opposite-Spin Energy  =      -0.7282195340686274 [Eh]
	 SCS Correlation Energy    =      -0.7896199562876227 [Eh]
	 SCS Total Energy          =    -191.6198478125011775 [Eh]
	-----------------------------------------------------------

  Dipole Moment: [D]
     X:    -3.2978      Y:     0.6516      Z:     0.0003     Total:     3.3616

*** Psi4 exiting successfully. Buy a developer a beer!
