                               Psi4 1.3.2 release

  ==> Input File <==

--------------------------------------------------------------------------
#psi4
#
memory 32 gb

molecule  {
0 1
  O        1.7653254    -0.1999748    -0.0001432
  C       -0.5611510    -0.4520200    -0.0000120
  C        0.6707050     0.3546130    -0.0000040
  C       -1.7652780     0.1406350     0.0001500
  H       -0.4438600    -1.5324100    -0.0001440
  H        0.5134400     1.4540710     0.0000460
  H       -2.6894370    -0.4270490     0.0001690
  H       -1.8565530     1.2241520     0.0002830
units angstrom
no_reorient  #important for SAPT in psi4, default
symmetry c1  #important for SAPT in psi4, default
}

set PROPERTIES_ORIGIN ["COM"]
properties('MP2/aug-cc-pvtz', properties = ['dipole'])
--------------------------------------------------------------------------

    Molecular point group: c1
  Charge       = 0
  Multiplicity = 1
  Basis Set: AUG-CC-PVTZ
    Blend: AUG-CC-PVTZ
  Basis Set: (AUG-CC-PVTZ AUX)
    Blend: AUG-CC-PVTZ-JKFIT

    Orbital Energies [Eh]
    ---------------------

    Doubly Occupied:

       1A    -20.560525     2A    -11.341205     3A    -11.272138
       4A    -11.257841     5A     -1.384435     6A     -1.086815
       7A     -0.888199     8A     -0.789543     9A     -0.671964
      10A     -0.664843    11A     -0.604197    12A     -0.558449
      13A     -0.539560    14A     -0.435461    15A     -0.398328

  @DF-RHF Final Energy:  -190.83227901416578

   => Energetics <=

    Nuclear Repulsion Energy =            102.8816594450851056
    One-Electron Energy =                -462.5208679832941812
    Two-Electron Energy =                 168.8069295240432837
    Total Energy =                       -190.8322790141657777
  Basis Set: (AUG-CC-PVTZ AUX)
    Blend: AUG-CC-PVTZ-RI
    Molecular point group: c1

    Geometry (in Angstrom), charge = 0, multiplicity = 1:

       Center              X                  Y                   Z               Mass
    ------------   -----------------  -----------------  -----------------  -----------------
         O            1.696498637144    -0.165072290356    -0.000137386619    15.994914619570
         C           -0.629977762856    -0.417117490356    -0.000006186619    12.000000000000
         C            0.601878237144     0.389515509644     0.000001813381    12.000000000000
         C           -1.834104762856     0.175537509644     0.000155813381    12.000000000000
         H           -0.512686762856    -1.497507490356    -0.000138186619     1.007825032230
         H            0.444613237144     1.488973509644     0.000051813381     1.007825032230
         H           -2.758263762856    -0.392146490356     0.000174813381     1.007825032230
         H           -1.925379762856     1.259054509644     0.000288813381     1.007825032230

  Basis Set: AUG-CC-PVTZ
    Blend: AUG-CC-PVTZ
  Basis Set: (AUG-CC-PVTZ AUX)
    Blend: AUG-CC-PVTZ-JKFIT
	 Reference Energy          =    -190.8322790141657777 [Eh]
	 Singles Energy            =      -0.0000000000000000 [Eh]
	 Same-Spin Energy          =      -0.1838191419593593 [Eh]
	 Opposite-Spin Energy      =      -0.6063535155764224 [Eh]
	 Correlation Energy        =      -0.7901726575357817 [Eh]
	 Total Energy              =    -191.6224516717015547 [Eh]

	 ================> DF-SCS-MP2 Energies <==================
	-----------------------------------------------------------
	 SCS Same-Spin Scale       =       0.3333333333333333 [-]
	 SCS Opposite-Spin Scale   =       1.2000000000000000 [-]
	 SCS Same-Spin Energy      =      -0.0612730473197864 [Eh]
	 SCS Opposite-Spin Energy  =      -0.7276242186917068 [Eh]
	 SCS Correlation Energy    =      -0.7888972660114932 [Eh]
	 SCS Total Energy          =    -191.6211762801772807 [Eh]
	-----------------------------------------------------------

  Dipole Moment: [D]
     X:    -3.0835      Y:     0.8185      Z:     0.0003     Total:     3.1903

*** Psi4 exiting successfully. Buy a developer a beer!
