                               Psi4 1.4a3.dev225

  ==> Input File <==

--------------------------------------------------------------------------
#psi4
#
memory 32 gb

molecule  {
0 1
  O        1.8012870    -0.1222550    -0.0001540
  C       -0.5611720    -0.4521110    -0.0000010
  C        0.7125166     0.3820724    -0.0000217
  C       -1.7652280     0.1406020     0.0001560
  H       -0.4434470    -1.5324470    -0.0001170
  H        0.5133250     1.4540820     0.0000960
  H       -2.6895930    -0.4267550     0.0001780
  H       -1.8563190     1.2241470     0.0002720
units angstrom
no_reorient  #important for SAPT in psi4, default
symmetry c1  #important for SAPT in psi4, default
}

set PROPERTIES_ORIGIN ["COM"]
properties('MP2/aug-cc-pvtz', properties = ['dipole'])
--------------------------------------------------------------------------

    Molecular point group: c1
  Charge       = 0
  Multiplicity = 1
  Basis Set: AUG-CC-PVTZ
    Blend: AUG-CC-PVTZ
  Basis Set: (AUG-CC-PVTZ AUX)
    Blend: AUG-CC-PVTZ-JKFIT

    Orbital Energies [Eh]
    ---------------------

    Doubly Occupied:

       1A    -20.563868     2A    -11.340585     3A    -11.268644
       4A    -11.259667     5A     -1.403717     6A     -1.079049
       7A     -0.880782     8A     -0.790894     9A     -0.674664
      10A     -0.664924    11A     -0.611209    12A     -0.558504
      13A     -0.548249    14A     -0.431209    15A     -0.398965

  @DF-RHF Final Energy:  -190.83420680685023

   => Energetics <=

    Nuclear Repulsion Energy =            102.5057437228791883
    One-Electron Energy =                -461.7300363450103191
    Two-Electron Energy =                 168.3900858152809121
    Total Energy =                       -190.8342068068502329
  Basis Set: (AUG-CC-PVTZ AUX)
    Blend: AUG-CC-PVTZ-RI
    Molecular point group: c1

    Geometry (in Angstrom), charge = 0, multiplicity = 1:

       Center              X                  Y                   Z               Mass
    ------------   -----------------  -----------------  -----------------  -----------------
         O            1.713225154627    -0.115400278883    -0.000146302533    15.994914619570
         C           -0.649233845373    -0.445256278883     0.000006697467    12.000000000000
         C            0.624454754627     0.388927121117    -0.000014002533    12.000000000000
         C           -1.853289845373     0.147456721117     0.000163697467    12.000000000000
         H           -0.531508845373    -1.525592278883    -0.000109302533     1.007825032230
         H            0.425263154627     1.460936721117     0.000103697467     1.007825032230
         H           -2.777654845373    -0.419900278883     0.000185697467     1.007825032230
         H           -1.944380845373     1.231001721117     0.000279697467     1.007825032230

  Basis Set: AUG-CC-PVTZ
    Blend: AUG-CC-PVTZ
  Basis Set: (AUG-CC-PVTZ AUX)
    Blend: AUG-CC-PVTZ-JKFIT
	 Reference Energy          =    -190.8342068068502329 [Eh]
	 Singles Energy            =      -0.0000000000000000 [Eh]
	 Same-Spin Energy          =      -0.1826727823135503 [Eh]
	 Opposite-Spin Energy      =      -0.6043988844783750 [Eh]
	 Correlation Energy        =      -0.7870716667919253 [Eh]
	 Total Energy              =    -191.6212784736421497 [Eh]

	 ================> DF-SCS-MP2 Energies <==================
	-----------------------------------------------------------
	 SCS Same-Spin Scale       =       0.3333333333333333 [-]
	 SCS Opposite-Spin Scale   =       1.2000000000000000 [-]
	 SCS Same-Spin Energy      =      -0.0608909274378501 [Eh]
	 SCS Opposite-Spin Energy  =      -0.7252786613740499 [Eh]
	 SCS Correlation Energy    =      -0.7861695888119000 [Eh]
	 SCS Total Energy          =    -191.6203763956621344 [Eh]
	-----------------------------------------------------------

  Dipole Moment: [D]
     X:    -2.9100      Y:     0.7378      Z:     0.0003     Total:     3.0020

*** Psi4 exiting successfully. Buy a developer a beer!
