                               Psi4 1.4a3.dev225

  ==> Input File <==

--------------------------------------------------------------------------
#psi4
#
memory 32 gb

molecule  {
0 1
  O        1.8012870    -0.1222550    -0.0001540
  C       -0.5611720    -0.4521110    -0.0000010
  C        0.6522615     0.3624515    -0.0000188
  C       -1.7652280     0.1406020     0.0001560
  H       -0.4434470    -1.5324470    -0.0001170
  H        0.5133250     1.4540820     0.0000960
  H       -2.6895930    -0.4267550     0.0001780
  H       -1.8563190     1.2241470     0.0002720
units angstrom
no_reorient  #important for SAPT in psi4, default
symmetry c1  #important for SAPT in psi4, default
}

set PROPERTIES_ORIGIN ["COM"]
properties('MP2/aug-cc-pvtz', properties = ['dipole'])
--------------------------------------------------------------------------

    Molecular point group: c1
  Charge       = 0
  Multiplicity = 1
  Basis Set: AUG-CC-PVTZ
    Blend: AUG-CC-PVTZ
  Basis Set: (AUG-CC-PVTZ AUX)
    Blend: AUG-CC-PVTZ-JKFIT

    Orbital Energies [Eh]
    ---------------------

    Doubly Occupied:

       1A    -20.558648     2A    -11.341099     3A    -11.276881
       4A    -11.261534     5A     -1.369512     6A     -1.092589
       7A     -0.892576     8A     -0.791283     9A     -0.670063
      10A     -0.667249    11A     -0.599301    12A     -0.561866
      13A     -0.531859    14A     -0.436405    15A     -0.400274

  @DF-RHF Final Energy:  -190.83054582481915

   => Energetics <=

    Nuclear Repulsion Energy =            102.4660741036669691
    One-Electron Energy =                -461.6909625117689870
    Two-Electron Energy =                 168.3943425832828495
    Total Energy =                       -190.8305458248191542
  Basis Set: (AUG-CC-PVTZ AUX)
    Blend: AUG-CC-PVTZ-RI
    Molecular point group: c1

    Geometry (in Angstrom), charge = 0, multiplicity = 1:

       Center              X                  Y                   Z               Mass
    ------------   -----------------  -----------------  -----------------  -----------------
         O            1.726130920316    -0.111197767593    -0.000146923671    15.994914619570
         C           -0.636328079684    -0.441053767593     0.000006076329    12.000000000000
         C            0.577105420316     0.373508732407    -0.000011723671    12.000000000000
         C           -1.840384079684     0.151659232407     0.000163076329    12.000000000000
         H           -0.518603079684    -1.521389767593    -0.000109923671     1.007825032230
         H            0.438168920316     1.465139232407     0.000103076329     1.007825032230
         H           -2.764749079684    -0.415697767593     0.000185076329     1.007825032230
         H           -1.931475079684     1.235204232407     0.000279076329     1.007825032230

  Basis Set: AUG-CC-PVTZ
    Blend: AUG-CC-PVTZ
  Basis Set: (AUG-CC-PVTZ AUX)
    Blend: AUG-CC-PVTZ-JKFIT
	 Reference Energy          =    -190.8305458248191542 [Eh]
	 Singles Energy            =      -0.0000000000000000 [Eh]
	 Same-Spin Energy          =      -0.1843519709540677 [Eh]
	 Opposite-Spin Energy      =      -0.6076275437271362 [Eh]
	 Correlation Energy        =      -0.7919795146812039 [Eh]
	 Total Energy              =    -191.6225253395003563 [Eh]

	 ================> DF-SCS-MP2 Energies <==================
	-----------------------------------------------------------
	 SCS Same-Spin Scale       =       0.3333333333333333 [-]
	 SCS Opposite-Spin Scale   =       1.2000000000000000 [-]
	 SCS Same-Spin Energy      =      -0.0614506569846892 [Eh]
	 SCS Opposite-Spin Energy  =      -0.7291530524725635 [Eh]
	 SCS Correlation Energy    =      -0.7906037094572527 [Eh]
	 SCS Total Energy          =    -191.6211495342764124 [Eh]
	-----------------------------------------------------------

  Dipole Moment: [D]
     X:    -3.3052      Y:     0.6871      Z:     0.0003     Total:     3.3759

*** Psi4 exiting successfully. Buy a developer a beer!
