                               Psi4 1.3.2 release

  ==> Input File <==

--------------------------------------------------------------------------
#psi4
#
memory 32 gb

molecule  {
0 1
  O        1.8013450    -0.1222670    -0.0001450
  C       -0.6144181    -0.3641252    -0.0000071
  C        0.6707050     0.3546130    -0.0000040
  C       -1.7652780     0.1406350     0.0001500
  H       -0.4438600    -1.5324100    -0.0001440
  H        0.5134400     1.4540710     0.0000460
  H       -2.6894370    -0.4270490     0.0001690
  H       -1.8565530     1.2241520     0.0002830
units angstrom
no_reorient  #important for SAPT in psi4, default
symmetry c1  #important for SAPT in psi4, default
}

set PROPERTIES_ORIGIN ["COM"]
properties('MP2/aug-cc-pvtz', properties = ['dipole'])
--------------------------------------------------------------------------

    Molecular point group: c1
  Charge       = 0
  Multiplicity = 1
  Basis Set: AUG-CC-PVTZ
    Blend: AUG-CC-PVTZ
  Basis Set: (AUG-CC-PVTZ AUX)
    Blend: AUG-CC-PVTZ-JKFIT

    Orbital Energies [Eh]
    ---------------------

    Doubly Occupied:

       1A    -20.566627     2A    -11.343984     3A    -11.261429
       4A    -11.256231     5A     -1.386369     6A     -1.111002
       7A     -0.896776     8A     -0.774334     9A     -0.681154
      10A     -0.667253    11A     -0.616736    12A     -0.543227
      13A     -0.530969    14A     -0.432830    15A     -0.422615

  @DF-RHF Final Energy:  -190.81954811855783

   => Energetics <=

    Nuclear Repulsion Energy =            103.2936826437237272
    One-Electron Energy =                -463.2433882629077289
    Two-Electron Energy =                 169.1301575006261544
    Total Energy =                       -190.8195481185578330
  Basis Set: (AUG-CC-PVTZ AUX)
    Blend: AUG-CC-PVTZ-RI
    Molecular point group: c1

    Geometry (in Angstrom), charge = 0, multiplicity = 1:

       Center              X                  Y                   Z               Mass
    ------------   -----------------  -----------------  -----------------  -----------------
         O            1.733644045368    -0.128375064363    -0.000139722246    15.994914619570
         C           -0.682119054632    -0.370233264363    -0.000001822246    12.000000000000
         C            0.603004045368     0.348504935637     0.000001277754    12.000000000000
         C           -1.832978954632     0.134526935637     0.000155277754    12.000000000000
         H           -0.511560954632    -1.538518064363    -0.000138722246     1.007825032230
         H            0.445739045368     1.447962935637     0.000051277754     1.007825032230
         H           -2.757137954632    -0.433157064363     0.000174277754     1.007825032230
         H           -1.924253954632     1.218043935637     0.000288277754     1.007825032230

  Basis Set: AUG-CC-PVTZ
    Blend: AUG-CC-PVTZ
  Basis Set: (AUG-CC-PVTZ AUX)
    Blend: AUG-CC-PVTZ-JKFIT
	 Reference Energy          =    -190.8195481185578330 [Eh]
	 Singles Energy            =      -0.0000000000000000 [Eh]
	 Same-Spin Energy          =      -0.1836436426004863 [Eh]
	 Opposite-Spin Energy      =      -0.6054860954750871 [Eh]
	 Correlation Energy        =      -0.7891297380755734 [Eh]
	 Total Energy              =    -191.6086778566334203 [Eh]

	 ================> DF-SCS-MP2 Energies <==================
	-----------------------------------------------------------
	 SCS Same-Spin Scale       =       0.3333333333333333 [-]
	 SCS Opposite-Spin Scale   =       1.2000000000000000 [-]
	 SCS Same-Spin Energy      =      -0.0612145475334954 [Eh]
	 SCS Opposite-Spin Energy  =      -0.7265833145701045 [Eh]
	 SCS Correlation Energy    =      -0.7877978621035999 [Eh]
	 SCS Total Energy          =    -191.6073459806614210 [Eh]
	-----------------------------------------------------------

  Dipole Moment: [D]
     X:    -3.1562      Y:     0.6962      Z:     0.0003     Total:     3.2320

*** Psi4 exiting successfully. Buy a developer a beer!
