                               Psi4 1.4a3.dev225

  ==> Input File <==

--------------------------------------------------------------------------
#psi4
#
memory 32 gb

molecule  {
0 1
  O        1.8012870    -0.1222550    -0.0001540
  C       -0.5611720    -0.4521110    -0.0000010
  C        0.6706890     0.3546780    -0.0000210
  C       -1.7203687     0.1185194     0.0001502
  H       -0.4434470    -1.5324470    -0.0001170
  H        0.5133250     1.4540820     0.0000960
  H       -2.6895930    -0.4267550     0.0001780
  H       -1.8563190     1.2241470     0.0002720
units angstrom
no_reorient  #important for SAPT in psi4, default
symmetry c1  #important for SAPT in psi4, default
}

set PROPERTIES_ORIGIN ["COM"]
properties('MP2/aug-cc-pvtz', properties = ['dipole'])
--------------------------------------------------------------------------

    Molecular point group: c1
  Charge       = 0
  Multiplicity = 1
  Basis Set: AUG-CC-PVTZ
    Blend: AUG-CC-PVTZ
  Basis Set: (AUG-CC-PVTZ AUX)
    Blend: AUG-CC-PVTZ-JKFIT

    Orbital Energies [Eh]
    ---------------------

    Doubly Occupied:

       1A    -20.560661     2A    -11.340498     3A    -11.270905
       4A    -11.253047     5A     -1.383554     6A     -1.101402
       7A     -0.884854     8A     -0.787191     9A     -0.675379
      10A     -0.665050    11A     -0.607651    12A     -0.546734
      13A     -0.540358    14A     -0.433965    15A     -0.411896

  @DF-RHF Final Energy:  -190.83113679275871

   => Energetics <=

    Nuclear Repulsion Energy =            103.2855819397655921
    One-Electron Energy =                -463.3071472632751124
    Two-Electron Energy =                 169.1904285307508360
    Total Energy =                       -190.8311367927587128
  Basis Set: (AUG-CC-PVTZ AUX)
    Blend: AUG-CC-PVTZ-RI
    Molecular point group: c1

    Geometry (in Angstrom), charge = 0, multiplicity = 1:

       Center              X                  Y                   Z               Mass
    ------------   -----------------  -----------------  -----------------  -----------------
         O            1.712575808599    -0.104803025389    -0.000145210188    15.994914619570
         C           -0.649883191401    -0.434659025389     0.000007789812    12.000000000000
         C            0.581977808599     0.372129974611    -0.000012210188    12.000000000000
         C           -1.809079891401     0.135971374611     0.000158989812    12.000000000000
         H           -0.532158191401    -1.514995025389    -0.000108210188     1.007825032230
         H            0.424613808599     1.471533974611     0.000104789812     1.007825032230
         H           -2.778304191401    -0.409303025389     0.000186789812     1.007825032230
         H           -1.945030191401     1.241598974611     0.000280789812     1.007825032230

  Basis Set: AUG-CC-PVTZ
    Blend: AUG-CC-PVTZ
  Basis Set: (AUG-CC-PVTZ AUX)
    Blend: AUG-CC-PVTZ-JKFIT
	 Reference Energy          =    -190.8311367927587128 [Eh]
	 Singles Energy            =      -0.0000000000000000 [Eh]
	 Same-Spin Energy          =      -0.1835157810441253 [Eh]
	 Opposite-Spin Energy      =      -0.6053562771220854 [Eh]
	 Correlation Energy        =      -0.7888720581662108 [Eh]
	 Total Energy              =    -191.6200088509249326 [Eh]

	 ================> DF-SCS-MP2 Energies <==================
	-----------------------------------------------------------
	 SCS Same-Spin Scale       =       0.3333333333333333 [-]
	 SCS Opposite-Spin Scale   =       1.2000000000000000 [-]
	 SCS Same-Spin Energy      =      -0.0611719270147084 [Eh]
	 SCS Opposite-Spin Energy  =      -0.7264275325465025 [Eh]
	 SCS Correlation Energy    =      -0.7875994595612109 [Eh]
	 SCS Total Energy          =    -191.6187362523199340 [Eh]
	-----------------------------------------------------------

  Dipole Moment: [D]
     X:    -3.1844      Y:     0.6580      Z:     0.0003     Total:     3.2517

*** Psi4 exiting successfully. Buy a developer a beer!
