                               Psi4 1.3.2 release

  ==> Input File <==

--------------------------------------------------------------------------
#psi4
#
memory 32 gb

molecule  {
0 1
  O        1.8013450    -0.1222670    -0.0001450
  C       -0.5611510    -0.4520200    -0.0000120
  C        0.6564397     0.3759890    -0.0000003
  C       -1.7652780     0.1406350     0.0001500
  H       -0.4438600    -1.5324100    -0.0001440
  H        0.5134400     1.4540710     0.0000460
  H       -2.6894370    -0.4270490     0.0001690
  H       -1.8565530     1.2241520     0.0002830
units angstrom
no_reorient  #important for SAPT in psi4, default
symmetry c1  #important for SAPT in psi4, default
}

set PROPERTIES_ORIGIN ["COM"]
properties('MP2/aug-cc-pvtz', properties = ['dipole'])
--------------------------------------------------------------------------

    Molecular point group: c1
  Charge       = 0
  Multiplicity = 1
  Basis Set: AUG-CC-PVTZ
    Blend: AUG-CC-PVTZ
  Basis Set: (AUG-CC-PVTZ AUX)
    Blend: AUG-CC-PVTZ-JKFIT

    Orbital Energies [Eh]
    ---------------------

    Doubly Occupied:

       1A    -20.559146     2A    -11.341500     3A    -11.275496
       4A    -11.261845     5A     -1.368893     6A     -1.090606
       7A     -0.891144     8A     -0.793572     9A     -0.669340
      10A     -0.667083    11A     -0.599839    12A     -0.561319
      13A     -0.530802    14A     -0.437036    15A     -0.399688

  @DF-RHF Final Energy:  -190.83020991149186

   => Energetics <=

    Nuclear Repulsion Energy =            102.3484323982490878
    One-Electron Energy =                -461.4626652154002500
    Two-Electron Energy =                 168.2840229056592989
    Total Energy =                       -190.8302099114918633
  Basis Set: (AUG-CC-PVTZ AUX)
    Blend: AUG-CC-PVTZ-RI
    Molecular point group: c1

    Geometry (in Angstrom), charge = 0, multiplicity = 1:

       Center              X                  Y                   Z               Mass
    ------------   -----------------  -----------------  -----------------  -----------------
         O            1.725290427297    -0.114127705272    -0.000139465224    15.994914619570
         C           -0.637205572703    -0.443880705272    -0.000006465224    12.000000000000
         C            0.580385127297     0.384128294728     0.000005234776    12.000000000000
         C           -1.841332572703     0.148774294728     0.000155534776    12.000000000000
         H           -0.519914572703    -1.524270705272    -0.000138465224     1.007825032230
         H            0.437385427297     1.462210294728     0.000051534776     1.007825032230
         H           -2.765491572703    -0.418909705272     0.000174534776     1.007825032230
         H           -1.932607572703     1.232291294728     0.000288534776     1.007825032230

  Basis Set: AUG-CC-PVTZ
    Blend: AUG-CC-PVTZ
  Basis Set: (AUG-CC-PVTZ AUX)
    Blend: AUG-CC-PVTZ-JKFIT
	 Reference Energy          =    -190.8302099114918633 [Eh]
	 Singles Energy            =      -0.0000000000000000 [Eh]
	 Same-Spin Energy          =      -0.1842657284151269 [Eh]
	 Opposite-Spin Energy      =      -0.6076265280716031 [Eh]
	 Correlation Energy        =      -0.7918922564867300 [Eh]
	 Total Energy              =    -191.6221021679785963 [Eh]

	 ================> DF-SCS-MP2 Energies <==================
	-----------------------------------------------------------
	 SCS Same-Spin Scale       =       0.3333333333333333 [-]
	 SCS Opposite-Spin Scale   =       1.2000000000000000 [-]
	 SCS Same-Spin Energy      =      -0.0614219094717090 [Eh]
	 SCS Opposite-Spin Energy  =      -0.7291518336859237 [Eh]
	 SCS Correlation Energy    =      -0.7905737431576327 [Eh]
	 SCS Total Energy          =    -191.6207836546495002 [Eh]
	-----------------------------------------------------------

  Dipole Moment: [D]
     X:    -3.2664      Y:     0.7263      Z:     0.0003     Total:     3.3461

*** Psi4 exiting successfully. Buy a developer a beer!
