                               Psi4 1.3.2 release

  ==> Input File <==

--------------------------------------------------------------------------
#psi4
#
memory 32 gb

molecule  {
0 1
  O        1.8013450    -0.1222670    -0.0001450
  C       -0.5611510    -0.4520200    -0.0000120
  C        0.6707050     0.3546130    -0.0000040
  C       -1.7852278     0.0982505     0.0001468
  H       -0.4438600    -1.5324100    -0.0001440
  H        0.5134400     1.4540710     0.0000460
  H       -2.6894370    -0.4270490     0.0001690
  H       -1.8565530     1.2241520     0.0002830
units angstrom
no_reorient  #important for SAPT in psi4, default
symmetry c1  #important for SAPT in psi4, default
}

set PROPERTIES_ORIGIN ["COM"]
properties('MP2/aug-cc-pvtz', properties = ['dipole'])
--------------------------------------------------------------------------

    Molecular point group: c1
  Charge       = 0
  Multiplicity = 1
  Basis Set: AUG-CC-PVTZ
    Blend: AUG-CC-PVTZ
  Basis Set: (AUG-CC-PVTZ AUX)
    Blend: AUG-CC-PVTZ-JKFIT

    Orbital Energies [Eh]
    ---------------------

    Doubly Occupied:

       1A    -20.561650     2A    -11.342106     3A    -11.275540
       4A    -11.260765     5A     -1.384303     6A     -1.088502
       7A     -0.892848     8A     -0.786775     9A     -0.678563
      10A     -0.662437    11A     -0.610548    12A     -0.551795
      13A     -0.539372    14A     -0.436106    15A     -0.400935

  @DF-RHF Final Energy:  -190.83072999428339

   => Energetics <=

    Nuclear Repulsion Energy =            102.4923471296733339
    One-Electron Energy =                -461.7016661934483182
    Two-Electron Energy =                 168.3785890694915679
    Total Energy =                       -190.8307299942833879
  Basis Set: (AUG-CC-PVTZ AUX)
    Blend: AUG-CC-PVTZ-RI
    Molecular point group: c1

    Geometry (in Angstrom), charge = 0, multiplicity = 1:

       Center              X                  Y                   Z               Mass
    ------------   -----------------  -----------------  -----------------  -----------------
         O            1.726507964486    -0.100471133908    -0.000137987344    15.994914619570
         C           -0.635988035514    -0.430224133908    -0.000004987344    12.000000000000
         C            0.595867964486     0.376408866092     0.000003012656    12.000000000000
         C           -1.860064835514     0.120046366092     0.000153812656    12.000000000000
         H           -0.518697035514    -1.510614133908    -0.000136987344     1.007825032230
         H            0.438602964486     1.475866866092     0.000053012656     1.007825032230
         H           -2.764274035514    -0.405253133908     0.000176012656     1.007825032230
         H           -1.931390035514     1.245947866092     0.000290012656     1.007825032230

  Basis Set: AUG-CC-PVTZ
    Blend: AUG-CC-PVTZ
  Basis Set: (AUG-CC-PVTZ AUX)
    Blend: AUG-CC-PVTZ-JKFIT
	 Reference Energy          =    -190.8307299942833879 [Eh]
	 Singles Energy            =      -0.0000000000000000 [Eh]
	 Same-Spin Energy          =      -0.1837957881626348 [Eh]
	 Opposite-Spin Energy      =      -0.6065316109488827 [Eh]
	 Correlation Energy        =      -0.7903273991115176 [Eh]
	 Total Energy              =    -191.6210573933948922 [Eh]

	 ================> DF-SCS-MP2 Energies <==================
	-----------------------------------------------------------
	 SCS Same-Spin Scale       =       0.3333333333333333 [-]
	 SCS Opposite-Spin Scale   =       1.2000000000000000 [-]
	 SCS Same-Spin Energy      =      -0.0612652627208783 [Eh]
	 SCS Opposite-Spin Energy  =      -0.7278379331386593 [Eh]
	 SCS Correlation Energy    =      -0.7891031958595376 [Eh]
	 SCS Total Energy          =    -191.6198331901429128 [Eh]
	-----------------------------------------------------------

  Dipole Moment: [D]
     X:    -3.1940      Y:     0.6374      Z:     0.0003     Total:     3.2570

*** Psi4 exiting successfully. Buy a developer a beer!
