                               Psi4 1.3.2 release

  ==> Input File <==

--------------------------------------------------------------------------
#psi4
#
memory 32 gb

molecule  {
0 1
  O        1.8013450    -0.1222670    -0.0001450
  C       -0.6296967    -0.5746389    -0.0000189
  C        0.6707050     0.3546130    -0.0000040
  C       -1.7652780     0.1406350     0.0001500
  H       -0.4438600    -1.5324100    -0.0001440
  H        0.5134400     1.4540710     0.0000460
  H       -2.6894370    -0.4270490     0.0001690
  H       -1.8565530     1.2241520     0.0002830
units angstrom
no_reorient  #important for SAPT in psi4, default
symmetry c1  #important for SAPT in psi4, default
}

set PROPERTIES_ORIGIN ["COM"]
properties('MP2/aug-cc-pvtz', properties = ['dipole'])
--------------------------------------------------------------------------

    Molecular point group: c1
  Charge       = 0
  Multiplicity = 1
  Basis Set: AUG-CC-PVTZ
    Blend: AUG-CC-PVTZ
  Basis Set: (AUG-CC-PVTZ AUX)
    Blend: AUG-CC-PVTZ-JKFIT

    Orbital Energies [Eh]
    ---------------------

    Doubly Occupied:

       1A    -20.561597     2A    -11.347070     3A    -11.269952
       4A    -11.261237     5A     -1.382557     6A     -1.079697
       7A     -0.868081     8A     -0.808801     9A     -0.668467
      10A     -0.660357    11A     -0.621579    12A     -0.563834
      13A     -0.532423    14A     -0.421661    15A     -0.401191

  @DF-RHF Final Energy:  -190.81206444708269

   => Energetics <=

    Nuclear Repulsion Energy =            101.4568005067649210
    One-Electron Energy =                -459.6407219628366079
    Two-Electron Energy =                 167.3718570089889965
    Total Energy =                       -190.8120644470826903
  Basis Set: (AUG-CC-PVTZ AUX)
    Blend: AUG-CC-PVTZ-RI
    Molecular point group: c1

    Geometry (in Angstrom), charge = 0, multiplicity = 1:

       Center              X                  Y                   Z               Mass
    ------------   -----------------  -----------------  -----------------  -----------------
         O            1.736916499180    -0.083286092863    -0.000137194858    15.994914619570
         C           -0.694125200820    -0.535657992863    -0.000011094858    12.000000000000
         C            0.606276499180     0.393593907137     0.000003805142    12.000000000000
         C           -1.829706500820     0.179615907137     0.000157805142    12.000000000000
         H           -0.508288500820    -1.493429092863    -0.000136194858     1.007825032230
         H            0.449011499180     1.493051907137     0.000053805142     1.007825032230
         H           -2.753865500820    -0.388068092863     0.000176805142     1.007825032230
         H           -1.920981500820     1.263132907137     0.000290805142     1.007825032230

  Basis Set: AUG-CC-PVTZ
    Blend: AUG-CC-PVTZ
  Basis Set: (AUG-CC-PVTZ AUX)
    Blend: AUG-CC-PVTZ-JKFIT
	 Reference Energy          =    -190.8120644470826903 [Eh]
	 Singles Energy            =      -0.0000000000000000 [Eh]
	 Same-Spin Energy          =      -0.1832852278550218 [Eh]
	 Opposite-Spin Energy      =      -0.6068831768843113 [Eh]
	 Correlation Energy        =      -0.7901684047393331 [Eh]
	 Total Energy              =    -191.6022328518220093 [Eh]

	 ================> DF-SCS-MP2 Energies <==================
	-----------------------------------------------------------
	 SCS Same-Spin Scale       =       0.3333333333333333 [-]
	 SCS Opposite-Spin Scale   =       1.2000000000000000 [-]
	 SCS Same-Spin Energy      =      -0.0610950759516739 [Eh]
	 SCS Opposite-Spin Energy  =      -0.7282598122611735 [Eh]
	 SCS Correlation Energy    =      -0.7893548882128475 [Eh]
	 SCS Total Energy          =    -191.6014193352955317 [Eh]
	-----------------------------------------------------------

  Dipole Moment: [D]
     X:    -2.9474      Y:     0.6973      Z:     0.0003     Total:     3.0287

*** Psi4 exiting successfully. Buy a developer a beer!
