                               Psi4 1.3.2 release

  ==> Input File <==

--------------------------------------------------------------------------
#psi4
#
memory 32 gb

molecule  {
0 1
  O        1.8013450    -0.1222670    -0.0001450
  C       -0.5611510    -0.4520200    -0.0000120
  C        0.7482729     0.2214302    -0.0000261
  C       -1.7652780     0.1406350     0.0001500
  H       -0.4438600    -1.5324100    -0.0001440
  H        0.5134400     1.4540710     0.0000460
  H       -2.6894370    -0.4270490     0.0001690
  H       -1.8565530     1.2241520     0.0002830
units angstrom
no_reorient  #important for SAPT in psi4, default
symmetry c1  #important for SAPT in psi4, default
}

set PROPERTIES_ORIGIN ["COM"]
properties('MP2/aug-cc-pvtz', properties = ['dipole'])
--------------------------------------------------------------------------

    Molecular point group: c1
  Charge       = 0
  Multiplicity = 1
  Basis Set: AUG-CC-PVTZ
    Blend: AUG-CC-PVTZ
  Basis Set: (AUG-CC-PVTZ AUX)
    Blend: AUG-CC-PVTZ-JKFIT

    Orbital Energies [Eh]
    ---------------------

    Doubly Occupied:

       1A    -20.570470     2A    -11.338218     3A    -11.276089
       4A    -11.258828     5A     -1.476169     6A     -1.085182
       7A     -0.888088     8A     -0.765804     9A     -0.694884
      10A     -0.678086    11A     -0.620231    12A     -0.597146
      13A     -0.560980    14A     -0.406439    15A     -0.401916

  @DF-RHF Final Energy:  -190.80882529949608

   => Energetics <=

    Nuclear Repulsion Energy =            104.2732035158782509
    One-Electron Energy =                -464.9270037963306663
    Two-Electron Energy =                 169.8449749809563230
    Total Energy =                       -190.8088252994960783
  Basis Set: (AUG-CC-PVTZ AUX)
    Blend: AUG-CC-PVTZ-RI
    Molecular point group: c1

    Geometry (in Angstrom), charge = 0, multiplicity = 1:

       Center              X                  Y                   Z               Mass
    ------------   -----------------  -----------------  -----------------  -----------------
         O            1.705621092059    -0.081023459191    -0.000133939239    15.994914619570
         C           -0.656874907941    -0.410776459191    -0.000000939239    12.000000000000
         C            0.652548992059     0.262673740809    -0.000015039239    12.000000000000
         C           -1.861001907941     0.181878540809     0.000161060761    12.000000000000
         H           -0.539583907941    -1.491166459191    -0.000132939239     1.007825032230
         H            0.417716092059     1.495314540809     0.000057060761     1.007825032230
         H           -2.785160907941    -0.385805459191     0.000180060761     1.007825032230
         H           -1.952276907941     1.265395540809     0.000294060761     1.007825032230

  Basis Set: AUG-CC-PVTZ
    Blend: AUG-CC-PVTZ
  Basis Set: (AUG-CC-PVTZ AUX)
    Blend: AUG-CC-PVTZ-JKFIT
	 Reference Energy          =    -190.8088252994960783 [Eh]
	 Singles Energy            =      -0.0000000000000000 [Eh]
	 Same-Spin Energy          =      -0.1815859413029648 [Eh]
	 Opposite-Spin Energy      =      -0.6009165975284700 [Eh]
	 Correlation Energy        =      -0.7825025388314348 [Eh]
	 Total Energy              =    -191.5913278383275156 [Eh]

	 ================> DF-SCS-MP2 Energies <==================
	-----------------------------------------------------------
	 SCS Same-Spin Scale       =       0.3333333333333333 [-]
	 SCS Opposite-Spin Scale   =       1.2000000000000000 [-]
	 SCS Same-Spin Energy      =      -0.0605286471009883 [Eh]
	 SCS Opposite-Spin Energy  =      -0.7210999170341640 [Eh]
	 SCS Correlation Energy    =      -0.7816285641351522 [Eh]
	 SCS Total Energy          =    -191.5904538636312395 [Eh]
	-----------------------------------------------------------

  Dipole Moment: [D]
     X:    -2.7573      Y:    -0.0088      Z:     0.0002     Total:     2.7573

*** Psi4 exiting successfully. Buy a developer a beer!
