                               Psi4 1.4a3.dev225

  ==> Input File <==

--------------------------------------------------------------------------
#psi4
#
memory 32 gb

molecule  {
0 1
  O        1.8012870    -0.1222550    -0.0001540
  C       -0.5611720    -0.4521110    -0.0000010
  C        0.7167578     0.3352443    -0.0000264
  C       -1.7652280     0.1406020     0.0001560
  H       -0.4434470    -1.5324470    -0.0001170
  H        0.5133250     1.4540820     0.0000960
  H       -2.6895930    -0.4267550     0.0001780
  H       -1.8563190     1.2241470     0.0002720
units angstrom
no_reorient  #important for SAPT in psi4, default
symmetry c1  #important for SAPT in psi4, default
}

set PROPERTIES_ORIGIN ["COM"]
properties('MP2/aug-cc-pvtz', properties = ['dipole'])
--------------------------------------------------------------------------

    Molecular point group: c1
  Charge       = 0
  Multiplicity = 1
  Basis Set: AUG-CC-PVTZ
    Blend: AUG-CC-PVTZ
  Basis Set: (AUG-CC-PVTZ AUX)
    Blend: AUG-CC-PVTZ-JKFIT

    Orbital Energies [Eh]
    ---------------------

    Doubly Occupied:

       1A    -20.564069     2A    -11.338937     3A    -11.271170
       4A    -11.258804     5A     -1.419721     6A     -1.081717
       7A     -0.881806     8A     -0.782602     9A     -0.678801
      10A     -0.666977    11A     -0.613219    12A     -0.559423
      13A     -0.558924    14A     -0.426656    15A     -0.401140

  @DF-RHF Final Energy:  -190.83477456929205

   => Energetics <=

    Nuclear Repulsion Energy =            102.9933310435291816
    One-Electron Energy =                -462.6482774528781761
    Two-Electron Energy =                 168.8201718400569575
    Total Energy =                       -190.8347745692920512
  Basis Set: (AUG-CC-PVTZ AUX)
    Blend: AUG-CC-PVTZ-RI
    Molecular point group: c1

    Geometry (in Angstrom), charge = 0, multiplicity = 1:

       Center              X                  Y                   Z               Mass
    ------------   -----------------  -----------------  -----------------  -----------------
         O            1.712316751298    -0.105370381226    -0.000145295862    15.994914619570
         C           -0.650142248702    -0.435226381226     0.000007704138    12.000000000000
         C            0.627787551298     0.352128918774    -0.000017695862    12.000000000000
         C           -1.854198248702     0.157486618774     0.000164704138    12.000000000000
         H           -0.532417248702    -1.515562381226    -0.000108295862     1.007825032230
         H            0.424354751298     1.470966618774     0.000104704138     1.007825032230
         H           -2.778563248702    -0.409870381226     0.000186704138     1.007825032230
         H           -1.945289248702     1.241031618774     0.000280704138     1.007825032230

  Basis Set: AUG-CC-PVTZ
    Blend: AUG-CC-PVTZ
  Basis Set: (AUG-CC-PVTZ AUX)
    Blend: AUG-CC-PVTZ-JKFIT
	 Reference Energy          =    -190.8347745692920512 [Eh]
	 Singles Energy            =      -0.0000000000000000 [Eh]
	 Same-Spin Energy          =      -0.1823849301179451 [Eh]
	 Opposite-Spin Energy      =      -0.6032720046716027 [Eh]
	 Correlation Energy        =      -0.7856569347895478 [Eh]
	 Total Energy              =    -191.6204315040816084 [Eh]

	 ================> DF-SCS-MP2 Energies <==================
	-----------------------------------------------------------
	 SCS Same-Spin Scale       =       0.3333333333333333 [-]
	 SCS Opposite-Spin Scale   =       1.2000000000000000 [-]
	 SCS Same-Spin Energy      =      -0.0607949767059817 [Eh]
	 SCS Opposite-Spin Energy  =      -0.7239264056059233 [Eh]
	 SCS Correlation Energy    =      -0.7847213823119049 [Eh]
	 SCS Total Energy          =    -191.6194959516039660 [Eh]
	-----------------------------------------------------------

  Dipole Moment: [D]
     X:    -2.9207      Y:     0.5694      Z:     0.0003     Total:     2.9757

*** Psi4 exiting successfully. Buy a developer a beer!
