                               Psi4 1.3.2 release

  ==> Input File <==

--------------------------------------------------------------------------
#psi4
#
memory 32 gb

molecule  {
0 1
  O        1.8013450    -0.1222670    -0.0001450
  C       -0.5611510    -0.4520200    -0.0000120
  C        0.6707050     0.3546130    -0.0000040
  C       -1.5858352     0.0523157     0.0001259
  H       -0.4438600    -1.5324100    -0.0001440
  H        0.5134400     1.4540710     0.0000460
  H       -2.6894370    -0.4270490     0.0001690
  H       -1.8565530     1.2241520     0.0002830
units angstrom
no_reorient  #important for SAPT in psi4, default
symmetry c1  #important for SAPT in psi4, default
}

set PROPERTIES_ORIGIN ["COM"]
properties('MP2/aug-cc-pvtz', properties = ['dipole'])
--------------------------------------------------------------------------

    Molecular point group: c1
  Charge       = 0
  Multiplicity = 1
  Basis Set: AUG-CC-PVTZ
    Blend: AUG-CC-PVTZ
  Basis Set: (AUG-CC-PVTZ AUX)
    Blend: AUG-CC-PVTZ-JKFIT

    Orbital Energies [Eh]
    ---------------------

    Doubly Occupied:

       1A    -20.563192     2A    -11.341686     3A    -11.258454
       4A    -11.228044     5A     -1.385713     6A     -1.145330
       7A     -0.876861     8A     -0.777967     9A     -0.681829
      10A     -0.668014    11A     -0.617077    12A     -0.549679
      13A     -0.499333    14A     -0.449510    15A     -0.429716

  @DF-RHF Final Energy:  -190.75980055048333

   => Energetics <=

    Nuclear Repulsion Energy =            105.6690054427458847
    One-Electron Energy =                -467.9128022492312766
    Two-Electron Energy =                 171.4839962560020865
    Total Energy =                       -190.7598005504833338
  Basis Set: (AUG-CC-PVTZ AUX)
    Blend: AUG-CC-PVTZ-RI
    Molecular point group: c1

    Geometry (in Angstrom), charge = 0, multiplicity = 1:

       Center              X                  Y                   Z               Mass
    ------------   -----------------  -----------------  -----------------  -----------------
         O            1.683800970791    -0.090632568113    -0.000133510868    15.994914619570
         C           -0.678695029209    -0.420385568113    -0.000000510868    12.000000000000
         C            0.553160970791     0.386247431887     0.000007489132    12.000000000000
         C           -1.703379229209     0.083950131887     0.000137389132    12.000000000000
         H           -0.561404029209    -1.500775568113    -0.000132510868     1.007825032230
         H            0.395895970791     1.485705431887     0.000057489132     1.007825032230
         H           -2.806981029209    -0.395414568113     0.000180489132     1.007825032230
         H           -1.974097029209     1.255786431887     0.000294489132     1.007825032230

  Basis Set: AUG-CC-PVTZ
    Blend: AUG-CC-PVTZ
  Basis Set: (AUG-CC-PVTZ AUX)
    Blend: AUG-CC-PVTZ-JKFIT
	 Reference Energy          =    -190.7598005504833338 [Eh]
	 Singles Energy            =      -0.0000000000000000 [Eh]
	 Same-Spin Energy          =      -0.1839637010031391 [Eh]
	 Opposite-Spin Energy      =      -0.6046355251963065 [Eh]
	 Correlation Energy        =      -0.7885992261994457 [Eh]
	 Total Energy              =    -191.5483997766827713 [Eh]

	 ================> DF-SCS-MP2 Energies <==================
	-----------------------------------------------------------
	 SCS Same-Spin Scale       =       0.3333333333333333 [-]
	 SCS Opposite-Spin Scale   =       1.2000000000000000 [-]
	 SCS Same-Spin Energy      =      -0.0613212336677130 [Eh]
	 SCS Opposite-Spin Energy  =      -0.7255626302355678 [Eh]
	 SCS Correlation Energy    =      -0.7868838639032808 [Eh]
	 SCS Total Energy          =    -191.5466844143866183 [Eh]
	-----------------------------------------------------------

  Dipole Moment: [D]
     X:    -3.0344      Y:     0.6209      Z:     0.0003     Total:     3.0973

*** Psi4 exiting successfully. Buy a developer a beer!
