                               Psi4 1.3.2 release

  ==> Input File <==

--------------------------------------------------------------------------
#psi4
#
memory 32 gb

molecule  {
0 1
  O        1.8013450    -0.1222670    -0.0001450
  C       -0.5057980    -0.3229078    -0.0000033
  C        0.6707050     0.3546130    -0.0000040
  C       -1.7652780     0.1406350     0.0001500
  H       -0.4438600    -1.5324100    -0.0001440
  H        0.5134400     1.4540710     0.0000460
  H       -2.6894370    -0.4270490     0.0001690
  H       -1.8565530     1.2241520     0.0002830
units angstrom
no_reorient  #important for SAPT in psi4, default
symmetry c1  #important for SAPT in psi4, default
}

set PROPERTIES_ORIGIN ["COM"]
properties('MP2/aug-cc-pvtz', properties = ['dipole'])
--------------------------------------------------------------------------

    Molecular point group: c1
  Charge       = 0
  Multiplicity = 1
  Basis Set: AUG-CC-PVTZ
    Blend: AUG-CC-PVTZ
  Basis Set: (AUG-CC-PVTZ AUX)
    Blend: AUG-CC-PVTZ-JKFIT

    Orbital Energies [Eh]
    ---------------------

    Doubly Occupied:

       1A    -20.558580     2A    -11.331478     3A    -11.286569
       4A    -11.263096     5A     -1.383085     6A     -1.105281
       7A     -0.921286     8A     -0.772617     9A     -0.685450
      10A     -0.666786    11A     -0.613439    12A     -0.547223
      13A     -0.520919    14A     -0.438042    15A     -0.402218

  @DF-RHF Final Energy:  -190.80811422887325

   => Energetics <=

    Nuclear Repulsion Energy =            103.8219100363423024
    One-Electron Energy =                -464.2679094748049238
    Two-Electron Energy =                 169.6378852095893990
    Total Energy =                       -190.8081142288732508
  Basis Set: (AUG-CC-PVTZ AUX)
    Blend: AUG-CC-PVTZ-RI
    Molecular point group: c1

    Geometry (in Angstrom), charge = 0, multiplicity = 1:

       Center              X                  Y                   Z               Mass
    ------------   -----------------  -----------------  -----------------  -----------------
         O            1.710379200405    -0.137203231716    -0.000140536151    15.994914619570
         C           -0.596763799595    -0.337844031716     0.000001163849    12.000000000000
         C            0.579739200405     0.339676768284     0.000000463849    12.000000000000
         C           -1.856243799595     0.125698768284     0.000154463849    12.000000000000
         H           -0.534825799595    -1.547346231716    -0.000139536151     1.007825032230
         H            0.422474200405     1.439134768284     0.000050463849     1.007825032230
         H           -2.780402799595    -0.441985231716     0.000173463849     1.007825032230
         H           -1.947518799595     1.209215768284     0.000287463849     1.007825032230

  Basis Set: AUG-CC-PVTZ
    Blend: AUG-CC-PVTZ
  Basis Set: (AUG-CC-PVTZ AUX)
    Blend: AUG-CC-PVTZ-JKFIT
	 Reference Energy          =    -190.8081142288732508 [Eh]
	 Singles Energy            =      -0.0000000000000000 [Eh]
	 Same-Spin Energy          =      -0.1855318724475436 [Eh]
	 Opposite-Spin Energy      =      -0.6089903608957550 [Eh]
	 Correlation Energy        =      -0.7945222333432986 [Eh]
	 Total Energy              =    -191.6026364622165374 [Eh]

	 ================> DF-SCS-MP2 Energies <==================
	-----------------------------------------------------------
	 SCS Same-Spin Scale       =       0.3333333333333333 [-]
	 SCS Opposite-Spin Scale   =       1.2000000000000000 [-]
	 SCS Same-Spin Energy      =      -0.0618439574825145 [Eh]
	 SCS Opposite-Spin Energy  =      -0.7307884330749059 [Eh]
	 SCS Correlation Energy    =      -0.7926323905574204 [Eh]
	 SCS Total Energy          =    -191.6007466194306801 [Eh]
	-----------------------------------------------------------

  Dipole Moment: [D]
     X:    -3.4828      Y:     0.6530      Z:     0.0003     Total:     3.5435

*** Psi4 exiting successfully. Buy a developer a beer!
