                               Psi4 1.3.2 release

  ==> Input File <==

--------------------------------------------------------------------------
#psi4
#
memory 32 gb

molecule  {
0 1
  O        1.8013450    -0.1222670    -0.0001450
  C       -0.5611510    -0.4520200    -0.0000120
  C        0.6114364     0.4385780     0.0000097
  C       -1.7652780     0.1406350     0.0001500
  H       -0.4438600    -1.5324100    -0.0001440
  H        0.5134400     1.4540710     0.0000460
  H       -2.6894370    -0.4270490     0.0001690
  H       -1.8565530     1.2241520     0.0002830
units angstrom
no_reorient  #important for SAPT in psi4, default
symmetry c1  #important for SAPT in psi4, default
}

set PROPERTIES_ORIGIN ["COM"]
properties('MP2/aug-cc-pvtz', properties = ['dipole'])
--------------------------------------------------------------------------

    Molecular point group: c1
  Charge       = 0
  Multiplicity = 1
  Basis Set: AUG-CC-PVTZ
    Blend: AUG-CC-PVTZ
  Basis Set: (AUG-CC-PVTZ AUX)
    Blend: AUG-CC-PVTZ-JKFIT

    Orbital Energies [Eh]
    ---------------------

    Doubly Occupied:

       1A    -20.556489     2A    -11.345024     3A    -11.276900
       4A    -11.265913     5A     -1.328941     6A     -1.094665
       7A     -0.898362     8A     -0.808543     9A     -0.674160
      10A     -0.662102    11A     -0.585343    12A     -0.561598
      13A     -0.510541    14A     -0.441062    15A     -0.395445

  @DF-RHF Final Energy:  -190.80840817607296

   => Energetics <=

    Nuclear Repulsion Energy =            101.6464279801211603
    One-Electron Energy =                -460.0994966978366278
    Two-Electron Energy =                 167.6446605416425371
    Total Energy =                       -190.8084081760729589
  Basis Set: (AUG-CC-PVTZ AUX)
    Blend: AUG-CC-PVTZ-RI
    Molecular point group: c1

    Geometry (in Angstrom), charge = 0, multiplicity = 1:

       Center              X                  Y                   Z               Mass
    ------------   -----------------  -----------------  -----------------  -----------------
         O            1.734929479345    -0.127533358382    -0.000141607078    15.994914619570
         C           -0.627566520655    -0.457286358382    -0.000008607078    12.000000000000
         C            0.545020879345     0.433311641618     0.000013092922    12.000000000000
         C           -1.831693520655     0.135368641618     0.000153392922    12.000000000000
         H           -0.510275520655    -1.537676358382    -0.000140607078     1.007825032230
         H            0.447024479345     1.448804641618     0.000049392922     1.007825032230
         H           -2.755852520655    -0.432315358382     0.000172392922     1.007825032230
         H           -1.922968520655     1.218885641618     0.000286392922     1.007825032230

  Basis Set: AUG-CC-PVTZ
    Blend: AUG-CC-PVTZ
  Basis Set: (AUG-CC-PVTZ AUX)
    Blend: AUG-CC-PVTZ-JKFIT
	 Reference Energy          =    -190.8084081760729589 [Eh]
	 Singles Energy            =      -0.0000000000000000 [Eh]
	 Same-Spin Energy          =      -0.1861322559345217 [Eh]
	 Opposite-Spin Energy      =      -0.6123452666930422 [Eh]
	 Correlation Energy        =      -0.7984775226275640 [Eh]
	 Total Energy              =    -191.6068856987005233 [Eh]

	 ================> DF-SCS-MP2 Energies <==================
	-----------------------------------------------------------
	 SCS Same-Spin Scale       =       0.3333333333333333 [-]
	 SCS Opposite-Spin Scale   =       1.2000000000000000 [-]
	 SCS Same-Spin Energy      =      -0.0620440853115072 [Eh]
	 SCS Opposite-Spin Energy  =      -0.7348143200316507 [Eh]
	 SCS Correlation Energy    =      -0.7968584053431580 [Eh]
	 SCS Total Energy          =    -191.6052665814161173 [Eh]
	-----------------------------------------------------------

  Dipole Moment: [D]
     X:    -3.4134      Y:     0.8630      Z:     0.0003     Total:     3.5208

*** Psi4 exiting successfully. Buy a developer a beer!
