                               Psi4 1.3.2 release

  ==> Input File <==

--------------------------------------------------------------------------
#psi4
#
memory 32 gb

molecule  {
0 1
  O        1.8013450    -0.1222670    -0.0001450
  C       -0.5611510    -0.4520200    -0.0000120
  C        0.5033851     0.2450500    -0.0000051
  C       -1.7652780     0.1406350     0.0001500
  H       -0.4438600    -1.5324100    -0.0001440
  H        0.5134400     1.4540710     0.0000460
  H       -2.6894370    -0.4270490     0.0001690
  H       -1.8565530     1.2241520     0.0002830
units angstrom
no_reorient  #important for SAPT in psi4, default
symmetry c1  #important for SAPT in psi4, default
}

set PROPERTIES_ORIGIN ["COM"]
properties('MP2/aug-cc-pvtz', properties = ['dipole'])
--------------------------------------------------------------------------

    Molecular point group: c1
  Charge       = 0
  Multiplicity = 1
  Basis Set: AUG-CC-PVTZ
    Blend: AUG-CC-PVTZ
  Basis Set: (AUG-CC-PVTZ AUX)
    Blend: AUG-CC-PVTZ-JKFIT

    Orbital Energies [Eh]
    ---------------------

    Doubly Occupied:

       1A    -20.541816     2A    -11.337203     3A    -11.307489
       4A    -11.255750     5A     -1.303022     6A     -1.140372
       7A     -0.936922     8A     -0.779650     9A     -0.685758
      10A     -0.665509    11A     -0.581982    12A     -0.545260
      13A     -0.524931    14A     -0.421328    15A     -0.392087

  @DF-RHF Final Energy:  -190.75997424136946

   => Energetics <=

    Nuclear Repulsion Energy =            103.3655223886835444
    One-Electron Energy =                -463.4128374395114633
    Two-Electron Energy =                 169.2873408094584704
    Total Energy =                       -190.7599742413694628
  Basis Set: (AUG-CC-PVTZ AUX)
    Blend: AUG-CC-PVTZ-RI
    Molecular point group: c1

    Geometry (in Angstrom), charge = 0, multiplicity = 1:

       Center              X                  Y                   Z               Mass
    ------------   -----------------  -----------------  -----------------  -----------------
         O            1.758072495624    -0.086082476676    -0.000138437134    15.994914619570
         C           -0.604423504376    -0.415835476676    -0.000005437134    12.000000000000
         C            0.460112595624     0.281234523324     0.000001462866    12.000000000000
         C           -1.808550504376     0.176819523324     0.000156562866    12.000000000000
         H           -0.487132504376    -1.496225476676    -0.000137437134     1.007825032230
         H            0.470167495624     1.490255523324     0.000052562866     1.007825032230
         H           -2.732709504376    -0.390864476676     0.000175562866     1.007825032230
         H           -1.899825504376     1.260336523324     0.000289562866     1.007825032230

  Basis Set: AUG-CC-PVTZ
    Blend: AUG-CC-PVTZ
  Basis Set: (AUG-CC-PVTZ AUX)
    Blend: AUG-CC-PVTZ-JKFIT
	 Reference Energy          =    -190.7599742413694628 [Eh]
	 Singles Energy            =      -0.0000000000000000 [Eh]
	 Same-Spin Energy          =      -0.1905652597470159 [Eh]
	 Opposite-Spin Energy      =      -0.6186328052407296 [Eh]
	 Correlation Energy        =      -0.8091980649877455 [Eh]
	 Total Energy              =    -191.5691723063572169 [Eh]

	 ================> DF-SCS-MP2 Energies <==================
	-----------------------------------------------------------
	 SCS Same-Spin Scale       =       0.3333333333333333 [-]
	 SCS Opposite-Spin Scale   =       1.2000000000000000 [-]
	 SCS Same-Spin Energy      =      -0.0635217532490053 [Eh]
	 SCS Opposite-Spin Energy  =      -0.7423593662888756 [Eh]
	 SCS Correlation Energy    =      -0.8058811195378809 [Eh]
	 SCS Total Energy          =    -191.5658553609073351 [Eh]
	-----------------------------------------------------------

  Dipole Moment: [D]
     X:    -4.0872      Y:     0.3650      Z:     0.0003     Total:     4.1035

*** Psi4 exiting successfully. Buy a developer a beer!
