                               Psi4 1.3.2 release

  ==> Input File <==

--------------------------------------------------------------------------
#psi4
#
memory 32 gb

molecule  {
0 1
  O        1.8013450    -0.1222670    -0.0001450
  C       -0.5611510    -0.4520200    -0.0000120
  C        0.7239721     0.2667182    -0.0000177
  C       -1.7652780     0.1406350     0.0001500
  H       -0.4438600    -1.5324100    -0.0001440
  H        0.5134400     1.4540710     0.0000460
  H       -2.6894370    -0.4270490     0.0001690
  H       -1.8565530     1.2241520     0.0002830
units angstrom
no_reorient  #important for SAPT in psi4, default
symmetry c1  #important for SAPT in psi4, default
}

set PROPERTIES_ORIGIN ["COM"]
properties('MP2/aug-cc-pvtz', properties = ['dipole'])
--------------------------------------------------------------------------

    Molecular point group: c1
  Charge       = 0
  Multiplicity = 1
  Basis Set: AUG-CC-PVTZ
    Blend: AUG-CC-PVTZ
  Basis Set: (AUG-CC-PVTZ AUX)
    Blend: AUG-CC-PVTZ-JKFIT

    Orbital Energies [Eh]
    ---------------------

    Doubly Occupied:

       1A    -20.565955     2A    -11.338074     3A    -11.275296
       4A    -11.258556     5A     -1.444019     6A     -1.086027
       7A     -0.887265     8A     -0.771637     9A     -0.686048
      10A     -0.671614    11A     -0.615893    12A     -0.575705
      13A     -0.560642    14A     -0.415692    15A     -0.404647

  @DF-RHF Final Energy:  -190.82559525914860

   => Energetics <=

    Nuclear Repulsion Energy =            103.6922360403652448
    One-Electron Energy =                -463.9215252906927276
    Two-Electron Energy =                 169.4036939911788977
    Total Energy =                       -190.8255952591485993
  Basis Set: (AUG-CC-PVTZ AUX)
    Blend: AUG-CC-PVTZ-RI
    Molecular point group: c1

    Geometry (in Angstrom), charge = 0, multiplicity = 1:

       Center              X                  Y                   Z               Mass
    ------------   -----------------  -----------------  -----------------  -----------------
         O            1.710825969835    -0.090723489837    -0.000135738397    15.994914619570
         C           -0.651670030165    -0.420476489837    -0.000002738397    12.000000000000
         C            0.633453069835     0.298261710163    -0.000008438397    12.000000000000
         C           -1.855797030165     0.172178510163     0.000159261603    12.000000000000
         H           -0.534379030165    -1.500866489837    -0.000134738397     1.007825032230
         H            0.422920969835     1.485614510163     0.000055261603     1.007825032230
         H           -2.779956030165    -0.395505489837     0.000178261603     1.007825032230
         H           -1.947072030165     1.255695510163     0.000292261603     1.007825032230

  Basis Set: AUG-CC-PVTZ
    Blend: AUG-CC-PVTZ
  Basis Set: (AUG-CC-PVTZ AUX)
    Blend: AUG-CC-PVTZ-JKFIT
	 Reference Energy          =    -190.8255952591485993 [Eh]
	 Singles Energy            =      -0.0000000000000000 [Eh]
	 Same-Spin Energy          =      -0.1821574097533500 [Eh]
	 Opposite-Spin Energy      =      -0.6022765723111252 [Eh]
	 Correlation Energy        =      -0.7844339820644752 [Eh]
	 Total Energy              =    -191.6100292412130841 [Eh]

	 ================> DF-SCS-MP2 Energies <==================
	-----------------------------------------------------------
	 SCS Same-Spin Scale       =       0.3333333333333333 [-]
	 SCS Opposite-Spin Scale   =       1.2000000000000000 [-]
	 SCS Same-Spin Energy      =      -0.0607191365844500 [Eh]
	 SCS Opposite-Spin Energy  =      -0.7227318867733502 [Eh]
	 SCS Correlation Energy    =      -0.7834510233578003 [Eh]
	 SCS Total Energy          =    -191.6090462825063980 [Eh]
	-----------------------------------------------------------

  Dipole Moment: [D]
     X:    -2.9180      Y:     0.2674      Z:     0.0002     Total:     2.9302

*** Psi4 exiting successfully. Buy a developer a beer!
