                               Psi4 1.3.2 release

  ==> Input File <==

--------------------------------------------------------------------------
#psi4
#
memory 32 gb

molecule  {
0 1
  O        1.8013450    -0.1222670    -0.0001450
  C       -0.5018824    -0.5359850    -0.0000168
  C        0.6707050     0.3546130    -0.0000040
  C       -1.7652780     0.1406350     0.0001500
  H       -0.4438600    -1.5324100    -0.0001440
  H        0.5134400     1.4540710     0.0000460
  H       -2.6894370    -0.4270490     0.0001690
  H       -1.8565530     1.2241520     0.0002830
units angstrom
no_reorient  #important for SAPT in psi4, default
symmetry c1  #important for SAPT in psi4, default
}

set PROPERTIES_ORIGIN ["COM"]
properties('MP2/aug-cc-pvtz', properties = ['dipole'])
--------------------------------------------------------------------------

    Molecular point group: c1
  Charge       = 0
  Multiplicity = 1
  Basis Set: AUG-CC-PVTZ
    Blend: AUG-CC-PVTZ
  Basis Set: (AUG-CC-PVTZ AUX)
    Blend: AUG-CC-PVTZ-JKFIT

    Orbital Energies [Eh]
    ---------------------

    Doubly Occupied:

       1A    -20.554170     2A    -11.338901     3A    -11.289459
       4A    -11.266144     5A     -1.380722     6A     -1.071416
       7A     -0.885532     8A     -0.806039     9A     -0.671537
      10A     -0.662747    11A     -0.591811    12A     -0.581531
      13A     -0.535507    14A     -0.432914    15A     -0.380966

  @DF-RHF Final Energy:  -190.81428421745727

   => Energetics <=

    Nuclear Repulsion Energy =            102.0233513440583266
    One-Electron Energy =                -460.7764780328113829
    Two-Electron Energy =                 167.9388424712957999
    Total Energy =                       -190.8142842174572706
  Basis Set: (AUG-CC-PVTZ AUX)
    Blend: AUG-CC-PVTZ-RI
    Molecular point group: c1

    Geometry (in Angstrom), charge = 0, multiplicity = 1:

       Center              X                  Y                   Z               Mass
    ------------   -----------------  -----------------  -----------------  -----------------
         O            1.709540535858    -0.091565195817    -0.000137644648    15.994914619570
         C           -0.593686864142    -0.505283195817    -0.000009444648    12.000000000000
         C            0.578900535858     0.385314804183     0.000003355352    12.000000000000
         C           -1.857082464142     0.171336804183     0.000157355352    12.000000000000
         H           -0.535664464142    -1.501708195817    -0.000136644648     1.007825032230
         H            0.421635535858     1.484772804183     0.000053355352     1.007825032230
         H           -2.781241464142    -0.396347195817     0.000176355352     1.007825032230
         H           -1.948357464142     1.254853804183     0.000290355352     1.007825032230

  Basis Set: AUG-CC-PVTZ
    Blend: AUG-CC-PVTZ
  Basis Set: (AUG-CC-PVTZ AUX)
    Blend: AUG-CC-PVTZ-JKFIT
	 Reference Energy          =    -190.8142842174572706 [Eh]
	 Singles Energy            =      -0.0000000000000000 [Eh]
	 Same-Spin Energy          =      -0.1845523304133838 [Eh]
	 Opposite-Spin Energy      =      -0.6089307302562216 [Eh]
	 Correlation Energy        =      -0.7934830606696054 [Eh]
	 Total Energy              =    -191.6077672781268859 [Eh]

	 ================> DF-SCS-MP2 Energies <==================
	-----------------------------------------------------------
	 SCS Same-Spin Scale       =       0.3333333333333333 [-]
	 SCS Opposite-Spin Scale   =       1.2000000000000000 [-]
	 SCS Same-Spin Energy      =      -0.0615174434711279 [Eh]
	 SCS Opposite-Spin Energy  =      -0.7307168763074658 [Eh]
	 SCS Correlation Energy    =      -0.7922343197785938 [Eh]
	 SCS Total Energy          =    -191.6065185372358712 [Eh]
	-----------------------------------------------------------

  Dipole Moment: [D]
     X:    -3.2252      Y:     0.6560      Z:     0.0003     Total:     3.2912

*** Psi4 exiting successfully. Buy a developer a beer!
