                               Psi4 1.3.2 release

  ==> Input File <==

--------------------------------------------------------------------------
#psi4
#
memory 32 gb

molecule  {
0 1
  O        1.8449988    -0.0014705    -0.0001335
  C       -0.5611510    -0.4520200    -0.0000120
  C        0.6707050     0.3546130    -0.0000040
  C       -1.7652780     0.1406350     0.0001500
  H       -0.4438600    -1.5324100    -0.0001440
  H        0.5134400     1.4540710     0.0000460
  H       -2.6894370    -0.4270490     0.0001690
  H       -1.8565530     1.2241520     0.0002830
units angstrom
no_reorient  #important for SAPT in psi4, default
symmetry c1  #important for SAPT in psi4, default
}

set PROPERTIES_ORIGIN ["COM"]
properties('MP2/aug-cc-pvtz', properties = ['dipole'])
--------------------------------------------------------------------------

    Molecular point group: c1
  Charge       = 0
  Multiplicity = 1
  Basis Set: AUG-CC-PVTZ
    Blend: AUG-CC-PVTZ
  Basis Set: (AUG-CC-PVTZ AUX)
    Blend: AUG-CC-PVTZ-JKFIT

    Orbital Energies [Eh]
    ---------------------

    Doubly Occupied:

       1A    -20.559494     2A    -11.339574     3A    -11.279359
       4A    -11.265085     5A     -1.381850     6A     -1.092924
       7A     -0.891551     8A     -0.787389     9A     -0.672493
      10A     -0.668135    11A     -0.603869    12A     -0.564179
      13A     -0.537730    14A     -0.430615    15A     -0.404174

  @DF-RHF Final Energy:  -190.83114762980577

   => Energetics <=

    Nuclear Repulsion Energy =            102.2523631734127463
    One-Electron Energy =                -461.2101833023702966
    Two-Electron Energy =                 168.1266724991517947
    Total Energy =                       -190.8311476298057698
  Basis Set: (AUG-CC-PVTZ AUX)
    Blend: AUG-CC-PVTZ-RI
    Molecular point group: c1

    Geometry (in Angstrom), charge = 0, multiplicity = 1:

       Center              X                  Y                   Z               Mass
    ------------   -----------------  -----------------  -----------------  -----------------
         O            1.753426091586    -0.023238949555    -0.000130455871    15.994914619570
         C           -0.652723708414    -0.473788449555    -0.000008955871    12.000000000000
         C            0.579132291586     0.332844550445    -0.000000955871    12.000000000000
         C           -1.856850708414     0.118866550445     0.000153044129    12.000000000000
         H           -0.535432708414    -1.554178449555    -0.000140955871     1.007825032230
         H            0.421867291586     1.432302550445     0.000049044129     1.007825032230
         H           -2.781009708414    -0.448817449555     0.000172044129     1.007825032230
         H           -1.948125708414     1.202383550445     0.000286044129     1.007825032230

  Basis Set: AUG-CC-PVTZ
    Blend: AUG-CC-PVTZ
  Basis Set: (AUG-CC-PVTZ AUX)
    Blend: AUG-CC-PVTZ-JKFIT
	 Reference Energy          =    -190.8311476298057698 [Eh]
	 Singles Energy            =      -0.0000000000000000 [Eh]
	 Same-Spin Energy          =      -0.1837673517393525 [Eh]
	 Opposite-Spin Energy      =      -0.6064981140903511 [Eh]
	 Correlation Energy        =      -0.7902654658297037 [Eh]
	 Total Energy              =    -191.6214130956354609 [Eh]

	 ================> DF-SCS-MP2 Energies <==================
	-----------------------------------------------------------
	 SCS Same-Spin Scale       =       0.3333333333333333 [-]
	 SCS Opposite-Spin Scale   =       1.2000000000000000 [-]
	 SCS Same-Spin Energy      =      -0.0612557839131175 [Eh]
	 SCS Opposite-Spin Energy  =      -0.7277977369084213 [Eh]
	 SCS Correlation Energy    =      -0.7890535208215388 [Eh]
	 SCS Total Energy          =    -191.6202011506273095 [Eh]
	-----------------------------------------------------------

  Dipole Moment: [D]
     X:    -3.3572      Y:     0.4109      Z:     0.0003     Total:     3.3822

*** Psi4 exiting successfully. Buy a developer a beer!
