                               Psi4 1.4a3.dev225

  ==> Input File <==

--------------------------------------------------------------------------
#psi4
#
memory 32 gb

molecule  {
0 1
  O        1.8012870    -0.1222550    -0.0001540
  C       -0.5611720    -0.4521110    -0.0000010
  C        0.6874200     0.3656357    -0.0000213
  C       -1.7652280     0.1406020     0.0001560
  H       -0.4434470    -1.5324470    -0.0001170
  H        0.5133250     1.4540820     0.0000960
  H       -2.6895930    -0.4267550     0.0001780
  H       -1.8563190     1.2241470     0.0002720
units angstrom
no_reorient  #important for SAPT in psi4, default
symmetry c1  #important for SAPT in psi4, default
}

set PROPERTIES_ORIGIN ["COM"]
properties('MP2/aug-cc-pvtz', properties = ['dipole'])
--------------------------------------------------------------------------

    Molecular point group: c1
  Charge       = 0
  Multiplicity = 1
  Basis Set: AUG-CC-PVTZ
    Blend: AUG-CC-PVTZ
  Basis Set: (AUG-CC-PVTZ AUX)
    Blend: AUG-CC-PVTZ-JKFIT

    Orbital Energies [Eh]
    ---------------------

    Doubly Occupied:

       1A    -20.561641     2A    -11.340506     3A    -11.272547
       4A    -11.260482     5A     -1.391372     6A     -1.085180
       7A     -0.885850     8A     -0.789652     9A     -0.672602
      10A     -0.665908    11A     -0.607323    12A     -0.559887
      13A     -0.542307    14A     -0.433415    15A     -0.400237

  @DF-RHF Final Energy:  -190.83450044589713

   => Energetics <=

    Nuclear Repulsion Energy =            102.5602632644740595
    One-Electron Energy =                -461.8517086168923811
    Two-Electron Energy =                 168.4569449065212154
    Total Energy =                       -190.8345004458971346
  Basis Set: (AUG-CC-PVTZ AUX)
    Blend: AUG-CC-PVTZ-RI
    Molecular point group: c1

    Geometry (in Angstrom), charge = 0, multiplicity = 1:

       Center              X                  Y                   Z               Mass
    ------------   -----------------  -----------------  -----------------  -----------------
         O            1.718600481183    -0.111879776902    -0.000146388208    15.994914619570
         C           -0.643858518817    -0.441735776902     0.000006611792    12.000000000000
         C            0.604733481183     0.376010923098    -0.000013688208    12.000000000000
         C           -1.847914518817     0.150977223098     0.000163611792    12.000000000000
         H           -0.526133518817    -1.522071776902    -0.000109388208     1.007825032230
         H            0.430638481183     1.464457223098     0.000103611792     1.007825032230
         H           -2.772279518817    -0.416379776902     0.000185611792     1.007825032230
         H           -1.939005518817     1.234522223098     0.000279611792     1.007825032230

  Basis Set: AUG-CC-PVTZ
    Blend: AUG-CC-PVTZ
  Basis Set: (AUG-CC-PVTZ AUX)
    Blend: AUG-CC-PVTZ-JKFIT
	 Reference Energy          =    -190.8345004458971346 [Eh]
	 Singles Energy            =      -0.0000000000000000 [Eh]
	 Same-Spin Energy          =      -0.1832864828856917 [Eh]
	 Opposite-Spin Energy      =      -0.6054853972530161 [Eh]
	 Correlation Energy        =      -0.7887718801387078 [Eh]
	 Total Energy              =    -191.6232723260358455 [Eh]

	 ================> DF-SCS-MP2 Energies <==================
	-----------------------------------------------------------
	 SCS Same-Spin Scale       =       0.3333333333333333 [-]
	 SCS Opposite-Spin Scale   =       1.2000000000000000 [-]
	 SCS Same-Spin Energy      =      -0.0610954942952306 [Eh]
	 SCS Opposite-Spin Energy  =      -0.7265824767036193 [Eh]
	 SCS Correlation Energy    =      -0.7876779709988498 [Eh]
	 SCS Total Energy          =    -191.6221784168959914 [Eh]
	-----------------------------------------------------------

  Dipole Moment: [D]
     X:    -3.0898      Y:     0.6901      Z:     0.0003     Total:     3.1659

*** Psi4 exiting successfully. Buy a developer a beer!
