                               Psi4 1.3.2 release

  ==> Input File <==

--------------------------------------------------------------------------
#psi4
#
memory 32 gb

molecule  {
0 1
  O        1.8013450    -0.1222670    -0.0001450
  C       -0.5611510    -0.4520200    -0.0000120
  C        0.5870450     0.2998315    -0.0000045
  C       -1.7652780     0.1406350     0.0001500
  H       -0.4438600    -1.5324100    -0.0001440
  H        0.5134400     1.4540710     0.0000460
  H       -2.6894370    -0.4270490     0.0001690
  H       -1.8565530     1.2241520     0.0002830
units angstrom
no_reorient  #important for SAPT in psi4, default
symmetry c1  #important for SAPT in psi4, default
}

set PROPERTIES_ORIGIN ["COM"]
properties('MP2/aug-cc-pvtz', properties = ['dipole'])
--------------------------------------------------------------------------

    Molecular point group: c1
  Charge       = 0
  Multiplicity = 1
  Basis Set: AUG-CC-PVTZ
    Blend: AUG-CC-PVTZ
  Basis Set: (AUG-CC-PVTZ AUX)
    Blend: AUG-CC-PVTZ-JKFIT

    Orbital Energies [Eh]
    ---------------------

    Doubly Occupied:

       1A    -20.552194     2A    -11.340166     3A    -11.289857
       4A    -11.259986     5A     -1.342381     6A     -1.113134
       7A     -0.911696     8A     -0.783376     9A     -0.674896
      10A     -0.668198    11A     -0.582933    12A     -0.566262
      13A     -0.526157    14A     -0.432340    15A     -0.400144

  @DF-RHF Final Energy:  -190.81229350522494

   => Energetics <=

    Nuclear Repulsion Energy =            102.8930559677073973
    One-Electron Energy =                -462.5232564602817433
    Two-Electron Energy =                 168.8179069873493745
    Total Energy =                       -190.8122935052249431
  Basis Set: (AUG-CC-PVTZ AUX)
    Blend: AUG-CC-PVTZ-RI
    Molecular point group: c1

    Geometry (in Angstrom), charge = 0, multiplicity = 1:

       Center              X                  Y                   Z               Mass
    ------------   -----------------  -----------------  -----------------  -----------------
         O            1.740153762322    -0.097815876888    -0.000138565645    15.994914619570
         C           -0.622342237678    -0.427568876888    -0.000005565645    12.000000000000
         C            0.525853762322     0.324282623112     0.000001934355    12.000000000000
         C           -1.826469237678     0.165086123112     0.000156434355    12.000000000000
         H           -0.505051237678    -1.507958876888    -0.000137565645     1.007825032230
         H            0.452248762322     1.478522123112     0.000052434355     1.007825032230
         H           -2.750628237678    -0.402597876888     0.000175434355     1.007825032230
         H           -1.917744237678     1.248603123112     0.000289434355     1.007825032230

  Basis Set: AUG-CC-PVTZ
    Blend: AUG-CC-PVTZ
  Basis Set: (AUG-CC-PVTZ AUX)
    Blend: AUG-CC-PVTZ-JKFIT
	 Reference Energy          =    -190.8122935052249431 [Eh]
	 Singles Energy            =      -0.0000000000000000 [Eh]
	 Same-Spin Energy          =      -0.1866915372241953 [Eh]
	 Opposite-Spin Energy      =      -0.6115941909930673 [Eh]
	 Correlation Energy        =      -0.7982857282172626 [Eh]
	 Total Energy              =    -191.6105792334421949 [Eh]

	 ================> DF-SCS-MP2 Energies <==================
	-----------------------------------------------------------
	 SCS Same-Spin Scale       =       0.3333333333333333 [-]
	 SCS Opposite-Spin Scale   =       1.2000000000000000 [-]
	 SCS Same-Spin Energy      =      -0.0622305124080651 [Eh]
	 SCS Opposite-Spin Energy  =      -0.7339130291916808 [Eh]
	 SCS Correlation Energy    =      -0.7961435415997459 [Eh]
	 SCS Total Energy          =    -191.6084370468246902 [Eh]
	-----------------------------------------------------------

  Dipole Moment: [D]
     X:    -3.7188      Y:     0.5123      Z:     0.0003     Total:     3.7539

*** Psi4 exiting successfully. Buy a developer a beer!
