                               Psi4 1.3.2 release

  ==> Input File <==

--------------------------------------------------------------------------
#psi4
#
memory 32 gb

molecule  {
0 1
  O        1.8013450    -0.1222670    -0.0001450
  C       -0.5885517    -0.4085375    -0.0000096
  C        0.6707050     0.3546130    -0.0000040
  C       -1.7652780     0.1406350     0.0001500
  H       -0.4438600    -1.5324100    -0.0001440
  H        0.5134400     1.4540710     0.0000460
  H       -2.6894370    -0.4270490     0.0001690
  H       -1.8565530     1.2241520     0.0002830
units angstrom
no_reorient  #important for SAPT in psi4, default
symmetry c1  #important for SAPT in psi4, default
}

set PROPERTIES_ORIGIN ["COM"]
properties('MP2/aug-cc-pvtz', properties = ['dipole'])
--------------------------------------------------------------------------

    Molecular point group: c1
  Charge       = 0
  Multiplicity = 1
  Basis Set: AUG-CC-PVTZ
    Blend: AUG-CC-PVTZ
  Basis Set: (AUG-CC-PVTZ AUX)
    Blend: AUG-CC-PVTZ-JKFIT

    Orbital Energies [Eh]
    ---------------------

    Doubly Occupied:

       1A    -20.563332     2A    -11.342007     3A    -11.268130
       4A    -11.258429     5A     -1.384658     6A     -1.099856
       7A     -0.892837     8A     -0.781103     9A     -0.676532
      10A     -0.666310    11A     -0.610696    12A     -0.546392
      13A     -0.540787    14A     -0.434044    15A     -0.411504

  @DF-RHF Final Energy:  -190.83071367821594

   => Energetics <=

    Nuclear Repulsion Energy =            102.9343811666772126
    One-Electron Energy =                -462.5769563740489048
    Two-Electron Energy =                 168.8118615291557489
    Total Energy =                       -190.8307136782159432
  Basis Set: (AUG-CC-PVTZ AUX)
    Blend: AUG-CC-PVTZ-RI
    Molecular point group: c1

    Geometry (in Angstrom), charge = 0, multiplicity = 1:

       Center              X                  Y                   Z               Mass
    ------------   -----------------  -----------------  -----------------  -----------------
         O            1.728103838853    -0.118862595916    -0.000139186783    15.994914619570
         C           -0.661792861147    -0.405133095916    -0.000003786783    12.000000000000
         C            0.597463838853     0.358017404084     0.000001813217    12.000000000000
         C           -1.838519161147     0.144039404084     0.000155813217    12.000000000000
         H           -0.517101161147    -1.529005595916    -0.000138186783     1.007825032230
         H            0.440198838853     1.457475404084     0.000051813217     1.007825032230
         H           -2.762678161147    -0.423644595916     0.000174813217     1.007825032230
         H           -1.929794161147     1.227556404084     0.000288813217     1.007825032230

  Basis Set: AUG-CC-PVTZ
    Blend: AUG-CC-PVTZ
  Basis Set: (AUG-CC-PVTZ AUX)
    Blend: AUG-CC-PVTZ-JKFIT
	 Reference Energy          =    -190.8307136782159432 [Eh]
	 Singles Energy            =      -0.0000000000000000 [Eh]
	 Same-Spin Energy          =      -0.1836133406717278 [Eh]
	 Opposite-Spin Energy      =      -0.6056907215221426 [Eh]
	 Correlation Energy        =      -0.7893040621938705 [Eh]
	 Total Energy              =    -191.6200177404098213 [Eh]

	 ================> DF-SCS-MP2 Energies <==================
	-----------------------------------------------------------
	 SCS Same-Spin Scale       =       0.3333333333333333 [-]
	 SCS Opposite-Spin Scale   =       1.2000000000000000 [-]
	 SCS Same-Spin Energy      =      -0.0612044468905759 [Eh]
	 SCS Opposite-Spin Energy  =      -0.7268288658265711 [Eh]
	 SCS Correlation Energy    =      -0.7880333127171470 [Eh]
	 SCS Total Energy          =    -191.6187469909330900 [Eh]
	-----------------------------------------------------------

  Dipole Moment: [D]
     X:    -3.1829      Y:     0.6721      Z:     0.0003     Total:     3.2531

*** Psi4 exiting successfully. Buy a developer a beer!
