                               Psi4 1.3.2 release

  ==> Input File <==

--------------------------------------------------------------------------
#psi4
#
memory 32 gb

molecule  {
0 1
  O        1.8013450    -0.1222670    -0.0001450
  C       -0.5611510    -0.4520200    -0.0000120
  C        0.6707050     0.3546130    -0.0000040
  C       -1.7652780     0.1406350     0.0001500
  H       -0.4438600    -1.5324100    -0.0001440
  H        0.5275997     1.3550786     0.0000415
  H       -2.6894370    -0.4270490     0.0001690
  H       -1.8565530     1.2241520     0.0002830
units angstrom
no_reorient  #important for SAPT in psi4, default
symmetry c1  #important for SAPT in psi4, default
}

set PROPERTIES_ORIGIN ["COM"]
properties('MP2/aug-cc-pvtz', properties = ['dipole'])
--------------------------------------------------------------------------

    Molecular point group: c1
  Charge       = 0
  Multiplicity = 1
  Basis Set: AUG-CC-PVTZ
    Blend: AUG-CC-PVTZ
  Basis Set: (AUG-CC-PVTZ AUX)
    Blend: AUG-CC-PVTZ-JKFIT

    Orbital Energies [Eh]
    ---------------------

    Doubly Occupied:

       1A    -20.558139     2A    -11.328645     3A    -11.274537
       4A    -11.259286     5A     -1.382047     6A     -1.089892
       7A     -0.897310     8A     -0.804156     9A     -0.675394
      10A     -0.668674    11A     -0.606551    12A     -0.560350
      13A     -0.537251    14A     -0.437614    15A     -0.399982

  @DF-RHF Final Energy:  -190.82909837180230

   => Energetics <=

    Nuclear Repulsion Energy =            103.0509260063903696
    One-Electron Energy =                -462.8003938821142356
    Two-Electron Energy =                 168.9203695039215916
    Total Energy =                       -190.8290983718023028
  Basis Set: (AUG-CC-PVTZ AUX)
    Blend: AUG-CC-PVTZ-RI
    Molecular point group: c1

    Geometry (in Angstrom), charge = 0, multiplicity = 1:

       Center              X                  Y                   Z               Mass
    ------------   -----------------  -----------------  -----------------  -----------------
         O            1.721980296478    -0.107768556786    -0.000138591790    15.994914619570
         C           -0.640515703522    -0.437521556786    -0.000005591790    12.000000000000
         C            0.591340296478     0.369111443214     0.000002408210    12.000000000000
         C           -1.844642703522     0.155133443214     0.000156408210    12.000000000000
         H           -0.523224703522    -1.517911556786    -0.000137591790     1.007825032230
         H            0.448234996478     1.369577043214     0.000047908210     1.007825032230
         H           -2.768801703522    -0.412550556786     0.000175408210     1.007825032230
         H           -1.935917703522     1.238650443214     0.000289408210     1.007825032230

  Basis Set: AUG-CC-PVTZ
    Blend: AUG-CC-PVTZ
  Basis Set: (AUG-CC-PVTZ AUX)
    Blend: AUG-CC-PVTZ-JKFIT
	 Reference Energy          =    -190.8290983718023028 [Eh]
	 Singles Energy            =      -0.0000000000000000 [Eh]
	 Same-Spin Energy          =      -0.1833717347193538 [Eh]
	 Opposite-Spin Energy      =      -0.6057157578588275 [Eh]
	 Correlation Energy        =      -0.7890874925781813 [Eh]
	 Total Energy              =    -191.6181858643804787 [Eh]

	 ================> DF-SCS-MP2 Energies <==================
	-----------------------------------------------------------
	 SCS Same-Spin Scale       =       0.3333333333333333 [-]
	 SCS Opposite-Spin Scale   =       1.2000000000000000 [-]
	 SCS Same-Spin Energy      =      -0.0611239115731179 [Eh]
	 SCS Opposite-Spin Energy  =      -0.7268589094305929 [Eh]
	 SCS Correlation Energy    =      -0.7879828210037109 [Eh]
	 SCS Total Energy          =    -191.6170811928060118 [Eh]
	-----------------------------------------------------------

  Dipole Moment: [D]
     X:    -3.2180      Y:     0.7526      Z:     0.0003     Total:     3.3048

*** Psi4 exiting successfully. Buy a developer a beer!
