                               Psi4 1.3.2 release

  ==> Input File <==

--------------------------------------------------------------------------
#psi4
#
memory 32 gb

molecule  {
0 1
  O        1.8013450    -0.1222670    -0.0001450
  C       -0.5322495    -0.4945198    -0.0000144
  C        0.6707050     0.3546130    -0.0000040
  C       -1.7652780     0.1406350     0.0001500
  H       -0.4438600    -1.5324100    -0.0001440
  H        0.5134400     1.4540710     0.0000460
  H       -2.6894370    -0.4270490     0.0001690
  H       -1.8565530     1.2241520     0.0002830
units angstrom
no_reorient  #important for SAPT in psi4, default
symmetry c1  #important for SAPT in psi4, default
}

set PROPERTIES_ORIGIN ["COM"]
properties('MP2/aug-cc-pvtz', properties = ['dipole'])
--------------------------------------------------------------------------

    Molecular point group: c1
  Charge       = 0
  Multiplicity = 1
  Basis Set: AUG-CC-PVTZ
    Blend: AUG-CC-PVTZ
  Basis Set: (AUG-CC-PVTZ AUX)
    Blend: AUG-CC-PVTZ-JKFIT

    Orbital Energies [Eh]
    ---------------------

    Doubly Occupied:

       1A    -20.557112     2A    -11.339471     3A    -11.282405
       4A    -11.263387     5A     -1.381831     6A     -1.079931
       7A     -0.887173     8A     -0.797022     9A     -0.668263
      10A     -0.667187    11A     -0.597000    12A     -0.573677
      13A     -0.536955    14A     -0.433898    15A     -0.390643

  @DF-RHF Final Energy:  -190.82794614834023

   => Energetics <=

    Nuclear Repulsion Energy =            102.2970919678851942
    One-Electron Energy =                -461.3381659189888637
    Two-Electron Energy =                 168.2131278027634380
    Total Energy =                       -190.8279461483402315
  Basis Set: (AUG-CC-PVTZ AUX)
    Blend: AUG-CC-PVTZ-RI
    Molecular point group: c1

    Geometry (in Angstrom), charge = 0, multiplicity = 1:

       Center              X                  Y                   Z               Mass
    ------------   -----------------  -----------------  -----------------  -----------------
         O            1.716044726828    -0.100446438325    -0.000138158693    15.994914619570
         C           -0.617549773172    -0.472699238325    -0.000007558693    12.000000000000
         C            0.585404726828     0.376433561675     0.000002841307    12.000000000000
         C           -1.850578273172     0.162455561675     0.000156841307    12.000000000000
         H           -0.529160273172    -1.510589438325    -0.000137158693     1.007825032230
         H            0.428139726828     1.475891561675     0.000052841307     1.007825032230
         H           -2.774737273172    -0.405228438325     0.000175841307     1.007825032230
         H           -1.941853273172     1.245972561675     0.000289841307     1.007825032230

  Basis Set: AUG-CC-PVTZ
    Blend: AUG-CC-PVTZ
  Basis Set: (AUG-CC-PVTZ AUX)
    Blend: AUG-CC-PVTZ-JKFIT
	 Reference Energy          =    -190.8279461483402315 [Eh]
	 Singles Energy            =      -0.0000000000000000 [Eh]
	 Same-Spin Energy          =      -0.1840613226209218 [Eh]
	 Opposite-Spin Energy      =      -0.6073828120527487 [Eh]
	 Correlation Energy        =      -0.7914441346736705 [Eh]
	 Total Energy              =    -191.6193902830138995 [Eh]

	 ================> DF-SCS-MP2 Energies <==================
	-----------------------------------------------------------
	 SCS Same-Spin Scale       =       0.3333333333333333 [-]
	 SCS Opposite-Spin Scale   =       1.2000000000000000 [-]
	 SCS Same-Spin Energy      =      -0.0613537742069739 [Eh]
	 SCS Opposite-Spin Energy  =      -0.7288593744632984 [Eh]
	 SCS Correlation Energy    =      -0.7902131486702724 [Eh]
	 SCS Total Energy          =    -191.6181592970104930 [Eh]
	-----------------------------------------------------------

  Dipole Moment: [D]
     X:    -3.2205      Y:     0.6546      Z:     0.0003     Total:     3.2864

*** Psi4 exiting successfully. Buy a developer a beer!
