                               Psi4 1.3.2 release

  ==> Input File <==

--------------------------------------------------------------------------
#psi4
#
memory 32 gb

molecule  {
0 1
  O        1.8013450    -0.1222670    -0.0001450
  C       -0.5468857    -0.4733960    -0.0000132
  C        0.6707050     0.3546130    -0.0000040
  C       -1.7652780     0.1406350     0.0001500
  H       -0.4438600    -1.5324100    -0.0001440
  H        0.5134400     1.4540710     0.0000460
  H       -2.6894370    -0.4270490     0.0001690
  H       -1.8565530     1.2241520     0.0002830
units angstrom
no_reorient  #important for SAPT in psi4, default
symmetry c1  #important for SAPT in psi4, default
}

set PROPERTIES_ORIGIN ["COM"]
properties('MP2/aug-cc-pvtz', properties = ['dipole'])
--------------------------------------------------------------------------

    Molecular point group: c1
  Charge       = 0
  Multiplicity = 1
  Basis Set: AUG-CC-PVTZ
    Blend: AUG-CC-PVTZ
  Basis Set: (AUG-CC-PVTZ AUX)
    Blend: AUG-CC-PVTZ-JKFIT

    Orbital Energies [Eh]
    ---------------------

    Doubly Occupied:

       1A    -20.558623     2A    -11.339930     3A    -11.278823
       4A    -11.262071     5A     -1.382462     6A     -1.084571
       7A     -0.888299     8A     -0.792758     9A     -0.669570
      10A     -0.667151    11A     -0.600567    12A     -0.567628
      13A     -0.537792    14A     -0.434184    15A     -0.395675

  @DF-RHF Final Energy:  -190.83173838308045

   => Energetics <=

    Nuclear Repulsion Energy =            102.4454613924849156
    One-Electron Energy =                -461.6341949721511924
    Two-Electron Energy =                 168.3569951965858422
    Total Energy =                       -190.8317383830804488
  Basis Set: (AUG-CC-PVTZ AUX)
    Blend: AUG-CC-PVTZ-RI
    Molecular point group: c1

    Geometry (in Angstrom), charge = 0, multiplicity = 1:

       Center              X                  Y                   Z               Mass
    ------------   -----------------  -----------------  -----------------  -----------------
         O            1.719179587906    -0.104970848927    -0.000138415715    15.994914619570
         C           -0.629051112094    -0.456099848927    -0.000006615715    12.000000000000
         C            0.588539587906     0.371909151073     0.000002584285    12.000000000000
         C           -1.847443412094     0.157931151073     0.000156584285    12.000000000000
         H           -0.526025412094    -1.515113848927    -0.000137415715     1.007825032230
         H            0.431274587906     1.471367151073     0.000052584285     1.007825032230
         H           -2.771602412094    -0.409752848927     0.000175584285     1.007825032230
         H           -1.938718412094     1.241448151073     0.000289584285     1.007825032230

  Basis Set: AUG-CC-PVTZ
    Blend: AUG-CC-PVTZ
  Basis Set: (AUG-CC-PVTZ AUX)
    Blend: AUG-CC-PVTZ-JKFIT
	 Reference Energy          =    -190.8317383830804488 [Eh]
	 Singles Energy            =      -0.0000000000000000 [Eh]
	 Same-Spin Energy          =      -0.1838834933479627 [Eh]
	 Opposite-Spin Energy      =      -0.6067879000803634 [Eh]
	 Correlation Energy        =      -0.7906713934283260 [Eh]
	 Total Energy              =    -191.6224097765087890 [Eh]

	 ================> DF-SCS-MP2 Energies <==================
	-----------------------------------------------------------
	 SCS Same-Spin Scale       =       0.3333333333333333 [-]
	 SCS Opposite-Spin Scale   =       1.2000000000000000 [-]
	 SCS Same-Spin Energy      =      -0.0612944977826542 [Eh]
	 SCS Opposite-Spin Energy  =      -0.7281454800964361 [Eh]
	 SCS Correlation Energy    =      -0.7894399778790904 [Eh]
	 SCS Total Energy          =    -191.6211783609595329 [Eh]
	-----------------------------------------------------------

  Dipole Moment: [D]
     X:    -3.2140      Y:     0.6560      Z:     0.0003     Total:     3.2803

*** Psi4 exiting successfully. Buy a developer a beer!
