                               Psi4 1.3.2 release

  ==> Input File <==

--------------------------------------------------------------------------
#psi4
#
memory 32 gb

molecule  {
0 1
  O        1.8013450    -0.1222670    -0.0001450
  C       -0.5716777    -0.4729446    -0.0000133
  C        0.6707050     0.3546130    -0.0000040
  C       -1.7652780     0.1406350     0.0001500
  H       -0.4438600    -1.5324100    -0.0001440
  H        0.5134400     1.4540710     0.0000460
  H       -2.6894370    -0.4270490     0.0001690
  H       -1.8565530     1.2241520     0.0002830
units angstrom
no_reorient  #important for SAPT in psi4, default
symmetry c1  #important for SAPT in psi4, default
}

set PROPERTIES_ORIGIN ["COM"]
properties('MP2/aug-cc-pvtz', properties = ['dipole'])
--------------------------------------------------------------------------

    Molecular point group: c1
  Charge       = 0
  Multiplicity = 1
  Basis Set: AUG-CC-PVTZ
    Blend: AUG-CC-PVTZ
  Basis Set: (AUG-CC-PVTZ AUX)
    Blend: AUG-CC-PVTZ-JKFIT

    Orbital Energies [Eh]
    ---------------------

    Doubly Occupied:

       1A    -20.560426     2A    -11.341827     3A    -11.273926
       4A    -11.260668     5A     -1.383097     6A     -1.087403
       7A     -0.885137     8A     -0.791839     9A     -0.670548
      10A     -0.665984    11A     -0.604632    12A     -0.564603
      13A     -0.537531    14A     -0.432868    15A     -0.400756

  @DF-RHF Final Energy:  -190.83313068392550

   => Energetics <=

    Nuclear Repulsion Energy =            102.4040096251867453
    One-Electron Energy =                -461.5517896017049679
    Two-Electron Energy =                 168.3146492925927191
    Total Energy =                       -190.8331306839255035
  Basis Set: (AUG-CC-PVTZ AUX)
    Blend: AUG-CC-PVTZ-RI
    Molecular point group: c1

    Geometry (in Angstrom), charge = 0, multiplicity = 1:

       Center              X                  Y                   Z               Mass
    ------------   -----------------  -----------------  -----------------  -----------------
         O            1.724489673575    -0.105067532239    -0.000138394297    15.994914619570
         C           -0.648533026425    -0.455745132239    -0.000006694297    12.000000000000
         C            0.593849673575     0.371812467761     0.000002605703    12.000000000000
         C           -1.842133326425     0.157834467761     0.000156605703    12.000000000000
         H           -0.520715326425    -1.515210532239    -0.000137394297     1.007825032230
         H            0.436584673575     1.471270467761     0.000052605703     1.007825032230
         H           -2.766292326425    -0.409849532239     0.000175605703     1.007825032230
         H           -1.933408326425     1.241351467761     0.000289605703     1.007825032230

  Basis Set: AUG-CC-PVTZ
    Blend: AUG-CC-PVTZ
  Basis Set: (AUG-CC-PVTZ AUX)
    Blend: AUG-CC-PVTZ-JKFIT
	 Reference Energy          =    -190.8331306839255035 [Eh]
	 Singles Energy            =      -0.0000000000000000 [Eh]
	 Same-Spin Energy          =      -0.1835796932872067 [Eh]
	 Opposite-Spin Energy      =      -0.6061792105021961 [Eh]
	 Correlation Energy        =      -0.7897589037894028 [Eh]
	 Total Energy              =    -191.6228895877148943 [Eh]

	 ================> DF-SCS-MP2 Energies <==================
	-----------------------------------------------------------
	 SCS Same-Spin Scale       =       0.3333333333333333 [-]
	 SCS Opposite-Spin Scale   =       1.2000000000000000 [-]
	 SCS Same-Spin Energy      =      -0.0611932310957356 [Eh]
	 SCS Opposite-Spin Energy  =      -0.7274150526026354 [Eh]
	 SCS Correlation Energy    =      -0.7886082836983710 [Eh]
	 SCS Total Energy          =    -191.6217389676238838 [Eh]
	-----------------------------------------------------------

  Dipole Moment: [D]
     X:    -3.1599      Y:     0.6642      Z:     0.0003     Total:     3.2290

*** Psi4 exiting successfully. Buy a developer a beer!
