                               Psi4 1.3.2 release

  ==> Input File <==

--------------------------------------------------------------------------
#psi4
#
memory 32 gb

molecule  {
0 1
  O        1.8013450    -0.1222670    -0.0001450
  C       -0.5611510    -0.4520200    -0.0000120
  C        0.7628446     0.3157505    -0.0000155
  C       -1.7652780     0.1406350     0.0001500
  H       -0.4438600    -1.5324100    -0.0001440
  H        0.5134400     1.4540710     0.0000460
  H       -2.6894370    -0.4270490     0.0001690
  H       -1.8565530     1.2241520     0.0002830
units angstrom
no_reorient  #important for SAPT in psi4, default
symmetry c1  #important for SAPT in psi4, default
}

set PROPERTIES_ORIGIN ["COM"]
properties('MP2/aug-cc-pvtz', properties = ['dipole'])
--------------------------------------------------------------------------

    Molecular point group: c1
  Charge       = 0
  Multiplicity = 1
  Basis Set: AUG-CC-PVTZ
    Blend: AUG-CC-PVTZ
  Basis Set: (AUG-CC-PVTZ AUX)
    Blend: AUG-CC-PVTZ-JKFIT

    Orbital Energies [Eh]
    ---------------------

    Doubly Occupied:

       1A    -20.568418     2A    -11.337352     3A    -11.267212
       4A    -11.256501     5A     -1.459758     6A     -1.074218
       7A     -0.873638     8A     -0.777407     9A     -0.689112
      10A     -0.671164    11A     -0.618153    12A     -0.583520
      13A     -0.558635    14A     -0.415813    15A     -0.400116

  @DF-RHF Final Energy:  -190.82558309979228

   => Energetics <=

    Nuclear Repulsion Energy =            103.4657778907650538
    One-Electron Energy =                -463.4806880700057263
    Two-Electron Energy =                 169.1893270794484181
    Total Energy =                       -190.8255830997922828
  Basis Set: (AUG-CC-PVTZ AUX)
    Blend: AUG-CC-PVTZ-RI
    Molecular point group: c1

    Geometry (in Angstrom), charge = 0, multiplicity = 1:

       Center              X                  Y                   Z               Mass
    ------------   -----------------  -----------------  -----------------  -----------------
         O            1.702500045942    -0.101225495061    -0.000136209605    15.994914619570
         C           -0.659995954058    -0.430978495061    -0.000003209605    12.000000000000
         C            0.663999645942     0.336792004939    -0.000006709605    12.000000000000
         C           -1.864122954058     0.161676504939     0.000158790395    12.000000000000
         H           -0.542704954058    -1.511368495061    -0.000135209605     1.007825032230
         H            0.414595045942     1.475112504939     0.000054790395     1.007825032230
         H           -2.788281954058    -0.406007495061     0.000177790395     1.007825032230
         H           -1.955397954058     1.245193504939     0.000291790395     1.007825032230

  Basis Set: AUG-CC-PVTZ
    Blend: AUG-CC-PVTZ
  Basis Set: (AUG-CC-PVTZ AUX)
    Blend: AUG-CC-PVTZ-JKFIT
	 Reference Energy          =    -190.8255830997922828 [Eh]
	 Singles Energy            =      -0.0000000000000000 [Eh]
	 Same-Spin Energy          =      -0.1812134027184891 [Eh]
	 Opposite-Spin Energy      =      -0.6006017541810103 [Eh]
	 Correlation Energy        =      -0.7818151568994993 [Eh]
	 Total Energy              =    -191.6073982566917948 [Eh]

	 ================> DF-SCS-MP2 Energies <==================
	-----------------------------------------------------------
	 SCS Same-Spin Scale       =       0.3333333333333333 [-]
	 SCS Opposite-Spin Scale   =       1.2000000000000000 [-]
	 SCS Same-Spin Energy      =      -0.0604044675728297 [Eh]
	 SCS Opposite-Spin Energy  =      -0.7207221050172122 [Eh]
	 SCS Correlation Energy    =      -0.7811265725900419 [Eh]
	 SCS Total Energy          =    -191.6067096723823227 [Eh]
	-----------------------------------------------------------

  Dipole Moment: [D]
     X:    -2.5919      Y:     0.4494      Z:     0.0002     Total:     2.6306

*** Psi4 exiting successfully. Buy a developer a beer!
