                               Psi4 1.3.2 release

  ==> Input File <==

--------------------------------------------------------------------------
#psi4
#
memory 32 gb

molecule  {
0 1
  O        1.8013450    -0.1222670    -0.0001450
  C       -0.5611510    -0.4520200    -0.0000120
  C        0.6707050     0.3546130    -0.0000040
  C       -1.7438611     0.1822974     0.0001531
  H       -0.4438600    -1.5324100    -0.0001440
  H        0.5134400     1.4540710     0.0000460
  H       -2.6894370    -0.4270490     0.0001690
  H       -1.8565530     1.2241520     0.0002830
units angstrom
no_reorient  #important for SAPT in psi4, default
symmetry c1  #important for SAPT in psi4, default
}

set PROPERTIES_ORIGIN ["COM"]
properties('MP2/aug-cc-pvtz', properties = ['dipole'])
--------------------------------------------------------------------------

    Molecular point group: c1
  Charge       = 0
  Multiplicity = 1
  Basis Set: AUG-CC-PVTZ
    Blend: AUG-CC-PVTZ
  Basis Set: (AUG-CC-PVTZ AUX)
    Blend: AUG-CC-PVTZ-JKFIT

    Orbital Energies [Eh]
    ---------------------

    Doubly Occupied:

       1A    -20.558839     2A    -11.339088     3A    -11.275433
       4A    -11.261411     5A     -1.382145     6A     -1.090823
       7A     -0.887488     8A     -0.791787     9A     -0.673192
      10A     -0.664788    11A     -0.599860    12A     -0.564466
      13A     -0.538231    14A     -0.432575    15A     -0.401071

  @DF-RHF Final Energy:  -190.83090839812519

   => Energetics <=

    Nuclear Repulsion Energy =            102.7261209735127920
    One-Electron Energy =                -462.1916679802198473
    Two-Electron Energy =                 168.6346386085818949
    Total Energy =                       -190.8309083981251888
  Basis Set: (AUG-CC-PVTZ AUX)
    Blend: AUG-CC-PVTZ-RI
    Molecular point group: c1

    Geometry (in Angstrom), charge = 0, multiplicity = 1:

       Center              X                  Y                   Z               Mass
    ------------   -----------------  -----------------  -----------------  -----------------
         O            1.717647819244    -0.118472756979    -0.000139336713    15.994914619570
         C           -0.644848180756    -0.448225756979    -0.000006336713    12.000000000000
         C            0.587007819244     0.358407243021     0.000001663287    12.000000000000
         C           -1.827558280756     0.186091643021     0.000158763287    12.000000000000
         H           -0.527557180756    -1.528615756979    -0.000138336713     1.007825032230
         H            0.429742819244     1.457865243021     0.000051663287     1.007825032230
         H           -2.773134180756    -0.423254756979     0.000174663287     1.007825032230
         H           -1.940250180756     1.227946243021     0.000288663287     1.007825032230

  Basis Set: AUG-CC-PVTZ
    Blend: AUG-CC-PVTZ
  Basis Set: (AUG-CC-PVTZ AUX)
    Blend: AUG-CC-PVTZ-JKFIT
	 Reference Energy          =    -190.8309083981251888 [Eh]
	 Singles Energy            =      -0.0000000000000000 [Eh]
	 Same-Spin Energy          =      -0.1837767258427524 [Eh]
	 Opposite-Spin Energy      =      -0.6063635492363559 [Eh]
	 Correlation Energy        =      -0.7901402750791083 [Eh]
	 Total Energy              =    -191.6210486732042853 [Eh]

	 ================> DF-SCS-MP2 Energies <==================
	-----------------------------------------------------------
	 SCS Same-Spin Scale       =       0.3333333333333333 [-]
	 SCS Opposite-Spin Scale   =       1.2000000000000000 [-]
	 SCS Same-Spin Energy      =      -0.0612589086142508 [Eh]
	 SCS Opposite-Spin Energy  =      -0.7276362590836271 [Eh]
	 SCS Correlation Energy    =      -0.7888951676978778 [Eh]
	 SCS Total Energy          =    -191.6198035658230765 [Eh]
	-----------------------------------------------------------

  Dipole Moment: [D]
     X:    -3.2040      Y:     0.6749      Z:     0.0003     Total:     3.2743

*** Psi4 exiting successfully. Buy a developer a beer!
