                               Psi4 1.3.2 release

  ==> Input File <==

--------------------------------------------------------------------------
#psi4
#
memory 32 gb

molecule  {
0 1
  O        1.8013450    -0.1222670    -0.0001450
  C       -0.5611510    -0.4520200    -0.0000120
  C        0.8380249     0.4641760    -0.0000029
  C       -1.7652780     0.1406350     0.0001500
  H       -0.4438600    -1.5324100    -0.0001440
  H        0.5134400     1.4540710     0.0000460
  H       -2.6894370    -0.4270490     0.0001690
  H       -1.8565530     1.2241520     0.0002830
units angstrom
no_reorient  #important for SAPT in psi4, default
symmetry c1  #important for SAPT in psi4, default
}

set PROPERTIES_ORIGIN ["COM"]
properties('MP2/aug-cc-pvtz', properties = ['dipole'])
--------------------------------------------------------------------------

    Molecular point group: c1
  Charge       = 0
  Multiplicity = 1
  Basis Set: AUG-CC-PVTZ
    Blend: AUG-CC-PVTZ
  Basis Set: (AUG-CC-PVTZ AUX)
    Blend: AUG-CC-PVTZ-JKFIT

    Orbital Energies [Eh]
    ---------------------

    Doubly Occupied:

       1A    -20.577358     2A    -11.344668     3A    -11.250321
       4A    -11.248607     5A     -1.465744     6A     -1.051765
       7A     -0.868169     8A     -0.790533     9A     -0.698959
      10A     -0.662429    11A     -0.616517    12A     -0.585541
      13A     -0.553878    14A     -0.405683    15A     -0.387416

  @DF-RHF Final Energy:  -190.80427913533123

   => Energetics <=

    Nuclear Repulsion Energy =            102.3252974168293719
    One-Electron Energy =                -461.2439779110479208
    Two-Electron Energy =                 168.1144013588873349
    Total Energy =                       -190.8042791353312282
  Basis Set: (AUG-CC-PVTZ AUX)
    Blend: AUG-CC-PVTZ-RI
    Molecular point group: c1

    Geometry (in Angstrom), charge = 0, multiplicity = 1:

       Center              X                  Y                   Z               Mass
    ------------   -----------------  -----------------  -----------------  -----------------
         O            1.686397519579    -0.133016077523    -0.000138908342    15.994914619570
         C           -0.676098480421    -0.462769077523    -0.000005908342    12.000000000000
         C            0.723077419579     0.453426922477     0.000003191658    12.000000000000
         C           -1.880225480421     0.129885922477     0.000156091658    12.000000000000
         H           -0.558807480421    -1.543159077523    -0.000137908342     1.007825032230
         H            0.398492519579     1.443321922477     0.000052091658     1.007825032230
         H           -2.804384480421    -0.437798077523     0.000175091658     1.007825032230
         H           -1.971500480421     1.213402922477     0.000289091658     1.007825032230

  Basis Set: AUG-CC-PVTZ
    Blend: AUG-CC-PVTZ
  Basis Set: (AUG-CC-PVTZ AUX)
    Blend: AUG-CC-PVTZ-JKFIT
	 Reference Energy          =    -190.8042791353312282 [Eh]
	 Singles Energy            =      -0.0000000000000000 [Eh]
	 Same-Spin Energy          =      -0.1809713839593973 [Eh]
	 Opposite-Spin Energy      =      -0.6014050097255823 [Eh]
	 Correlation Energy        =      -0.7823763936849796 [Eh]
	 Total Energy              =    -191.5866555290162125 [Eh]

	 ================> DF-SCS-MP2 Energies <==================
	-----------------------------------------------------------
	 SCS Same-Spin Scale       =       0.3333333333333333 [-]
	 SCS Opposite-Spin Scale   =       1.2000000000000000 [-]
	 SCS Same-Spin Energy      =      -0.0603237946531324 [Eh]
	 SCS Opposite-Spin Energy  =      -0.7216860116706988 [Eh]
	 SCS Correlation Energy    =      -0.7820098063238312 [Eh]
	 SCS Total Energy          =    -191.5862889416550559 [Eh]
	-----------------------------------------------------------

  Dipole Moment: [D]
     X:    -1.8707      Y:     1.0165      Z:     0.0002     Total:     2.1290

*** Psi4 exiting successfully. Buy a developer a beer!
