                               Psi4 1.3.2 release

  ==> Input File <==

--------------------------------------------------------------------------
#psi4
#
memory 32 gb

molecule  {
0 1
  O        1.8013450    -0.1222670    -0.0001450
  C       -0.5611510    -0.4520200    -0.0000120
  C        0.6707050     0.3546130    -0.0000040
  C       -1.7210033     0.2231870     0.0001559
  H       -0.4438600    -1.5324100    -0.0001440
  H        0.5134400     1.4540710     0.0000460
  H       -2.6894370    -0.4270490     0.0001690
  H       -1.8565530     1.2241520     0.0002830
units angstrom
no_reorient  #important for SAPT in psi4, default
symmetry c1  #important for SAPT in psi4, default
}

set PROPERTIES_ORIGIN ["COM"]
properties('MP2/aug-cc-pvtz', properties = ['dipole'])
--------------------------------------------------------------------------

    Molecular point group: c1
  Charge       = 0
  Multiplicity = 1
  Basis Set: AUG-CC-PVTZ
    Blend: AUG-CC-PVTZ
  Basis Set: (AUG-CC-PVTZ AUX)
    Blend: AUG-CC-PVTZ-JKFIT

    Orbital Energies [Eh]
    ---------------------

    Doubly Occupied:

       1A    -20.557687     2A    -11.337871     3A    -11.276152
       4A    -11.262590     5A     -1.381314     6A     -1.092621
       7A     -0.886658     8A     -0.795748     9A     -0.679169
      10A     -0.660440    11A     -0.600845    12A     -0.559630
      13A     -0.537956    14A     -0.430870    15A     -0.401650

  @DF-RHF Final Energy:  -190.82302997729889

   => Energetics <=

    Nuclear Repulsion Energy =            102.8668846331741094
    One-Electron Energy =                -462.4574302529900365
    Two-Electron Energy =                 168.7675156425170542
    Total Energy =                       -190.8230299772988872
  Basis Set: (AUG-CC-PVTZ AUX)
    Blend: AUG-CC-PVTZ-RI
    Molecular point group: c1

    Geometry (in Angstrom), charge = 0, multiplicity = 1:

       Center              X                  Y                   Z               Mass
    ------------   -----------------  -----------------  -----------------  -----------------
         O            1.712752011072    -0.127230714342    -0.000139936432    15.994914619570
         C           -0.649743988928    -0.456983714342    -0.000006936432    12.000000000000
         C            0.582112011072     0.349649285658     0.000001063568    12.000000000000
         C           -1.809596288928     0.218223285658     0.000160963568    12.000000000000
         H           -0.532452988928    -1.537373714342    -0.000138936432     1.007825032230
         H            0.424847011072     1.449107285658     0.000051063568     1.007825032230
         H           -2.778029988928    -0.432012714342     0.000174063568     1.007825032230
         H           -1.945145988928     1.219188285658     0.000288063568     1.007825032230

  Basis Set: AUG-CC-PVTZ
    Blend: AUG-CC-PVTZ
  Basis Set: (AUG-CC-PVTZ AUX)
    Blend: AUG-CC-PVTZ-JKFIT
	 Reference Energy          =    -190.8230299772988872 [Eh]
	 Singles Energy            =      -0.0000000000000000 [Eh]
	 Same-Spin Energy          =      -0.1838768316529610 [Eh]
	 Opposite-Spin Energy      =      -0.6066927541743341 [Eh]
	 Correlation Energy        =      -0.7905695858272952 [Eh]
	 Total Energy              =    -191.6135995631261721 [Eh]

	 ================> DF-SCS-MP2 Energies <==================
	-----------------------------------------------------------
	 SCS Same-Spin Scale       =       0.3333333333333333 [-]
	 SCS Opposite-Spin Scale   =       1.2000000000000000 [-]
	 SCS Same-Spin Energy      =      -0.0612922772176537 [Eh]
	 SCS Opposite-Spin Energy  =      -0.7280313050092009 [Eh]
	 SCS Correlation Energy    =      -0.7893235822268545 [Eh]
	 SCS Total Energy          =    -191.6123535595257295 [Eh]
	-----------------------------------------------------------

  Dipole Moment: [D]
     X:    -3.1897      Y:     0.6856      Z:     0.0003     Total:     3.2626

*** Psi4 exiting successfully. Buy a developer a beer!
