                               Psi4 1.4a3.dev225

  ==> Input File <==

--------------------------------------------------------------------------
#psi4
#
memory 32 gb

molecule  {
0 1
  O        1.8012870    -0.1222550    -0.0001540
  C       -0.5611720    -0.4521110    -0.0000010
  C        0.6706890     0.3546780    -0.0000210
  C       -1.7472843     0.1317690     0.0001537
  H       -0.4434470    -1.5324470    -0.0001170
  H        0.5133250     1.4540820     0.0000960
  H       -2.6895930    -0.4267550     0.0001780
  H       -1.8563190     1.2241470     0.0002720
units angstrom
no_reorient  #important for SAPT in psi4, default
symmetry c1  #important for SAPT in psi4, default
}

set PROPERTIES_ORIGIN ["COM"]
properties('MP2/aug-cc-pvtz', properties = ['dipole'])
--------------------------------------------------------------------------

    Molecular point group: c1
  Charge       = 0
  Multiplicity = 1
  Basis Set: AUG-CC-PVTZ
    Blend: AUG-CC-PVTZ
  Basis Set: (AUG-CC-PVTZ AUX)
    Blend: AUG-CC-PVTZ-JKFIT

    Orbital Energies [Eh]
    ---------------------

    Doubly Occupied:

       1A    -20.560346     2A    -11.340485     3A    -11.273491
       4A    -11.257751     5A     -1.383301     6A     -1.094040
       7A     -0.887609     8A     -0.788176     9A     -0.673228
      10A     -0.665816    11A     -0.605493    12A     -0.555565
      13A     -0.539314    14A     -0.434200    15A     -0.405162

  @DF-RHF Final Energy:  -190.83355767854761

   => Energetics <=

    Nuclear Repulsion Energy =            102.8697776998671003
    One-Electron Energy =                -462.4787170452731857
    Two-Electron Energy =                 168.7753816668584932
    Total Energy =                       -190.8335576785476064
  Basis Set: (AUG-CC-PVTZ AUX)
    Blend: AUG-CC-PVTZ-RI
    Molecular point group: c1

    Geometry (in Angstrom), charge = 0, multiplicity = 1:

       Center              X                  Y                   Z               Mass
    ------------   -----------------  -----------------  -----------------  -----------------
         O            1.718340738488    -0.107640896923    -0.000145959837    15.994914619570
         C           -0.644118261512    -0.437496896923     0.000007040163    12.000000000000
         C            0.587742738488     0.369292103077    -0.000012959837    12.000000000000
         C           -1.830230561512     0.146383103077     0.000161740163    12.000000000000
         H           -0.526393261512    -1.517832896923    -0.000108959837     1.007825032230
         H            0.430378738488     1.468696103077     0.000104040163     1.007825032230
         H           -2.772539261512    -0.412140896923     0.000186040163     1.007825032230
         H           -1.939265261512     1.238761103077     0.000280040163     1.007825032230

  Basis Set: AUG-CC-PVTZ
    Blend: AUG-CC-PVTZ
  Basis Set: (AUG-CC-PVTZ AUX)
    Blend: AUG-CC-PVTZ-JKFIT
	 Reference Energy          =    -190.8335576785476064 [Eh]
	 Singles Energy            =      -0.0000000000000000 [Eh]
	 Same-Spin Energy          =      -0.1836334413086680 [Eh]
	 Opposite-Spin Energy      =      -0.6058821700685300 [Eh]
	 Correlation Energy        =      -0.7895156113771979 [Eh]
	 Total Energy              =    -191.6230732899248039 [Eh]

	 ================> DF-SCS-MP2 Energies <==================
	-----------------------------------------------------------
	 SCS Same-Spin Scale       =       0.3333333333333333 [-]
	 SCS Opposite-Spin Scale   =       1.2000000000000000 [-]
	 SCS Same-Spin Energy      =      -0.0612111471028893 [Eh]
	 SCS Opposite-Spin Energy  =      -0.7270586040822359 [Eh]
	 SCS Correlation Energy    =      -0.7882697511851252 [Eh]
	 SCS Total Energy          =    -191.6218274297327184 [Eh]
	-----------------------------------------------------------

  Dipole Moment: [D]
     X:    -3.1982      Y:     0.6593      Z:     0.0003     Total:     3.2654

*** Psi4 exiting successfully. Buy a developer a beer!
