                               Psi4 1.3.2 release

  ==> Input File <==

--------------------------------------------------------------------------
#psi4
#
memory 32 gb

molecule  {
0 1
  O        1.7453037    -0.2378387    -0.0001421
  C       -0.5611510    -0.4520200    -0.0000120
  C        0.6707050     0.3546130    -0.0000040
  C       -1.7652780     0.1406350     0.0001500
  H       -0.4438600    -1.5324100    -0.0001440
  H        0.5134400     1.4540710     0.0000460
  H       -2.6894370    -0.4270490     0.0001690
  H       -1.8565530     1.2241520     0.0002830
units angstrom
no_reorient  #important for SAPT in psi4, default
symmetry c1  #important for SAPT in psi4, default
}

set PROPERTIES_ORIGIN ["COM"]
properties('MP2/aug-cc-pvtz', properties = ['dipole'])
--------------------------------------------------------------------------

    Molecular point group: c1
  Charge       = 0
  Multiplicity = 1
  Basis Set: AUG-CC-PVTZ
    Blend: AUG-CC-PVTZ
  Basis Set: (AUG-CC-PVTZ AUX)
    Blend: AUG-CC-PVTZ-JKFIT

    Orbital Energies [Eh]
    ---------------------

    Doubly Occupied:

       1A    -20.560677     2A    -11.341581     3A    -11.270484
       4A    -11.256334     5A     -1.385218     6A     -1.085401
       7A     -0.887451     8A     -0.789984     9A     -0.672116
      10A     -0.663840    11A     -0.604272    12A     -0.557078
      13A     -0.540054    14A     -0.435625    15A     -0.396991

  @DF-RHF Final Energy:  -190.83082729479594

   => Energetics <=

    Nuclear Repulsion Energy =            103.0369004624087950
    One-Electron Energy =                -462.8412435258595679
    Two-Electron Energy =                 168.9735157686548632
    Total Energy =                       -190.8308272947959381
  Basis Set: (AUG-CC-PVTZ AUX)
    Blend: AUG-CC-PVTZ-RI
    Molecular point group: c1

    Geometry (in Angstrom), charge = 0, multiplicity = 1:

       Center              X                  Y                   Z               Mass
    ------------   -----------------  -----------------  -----------------  -----------------
         O            1.682192928907    -0.192126431917    -0.000136600658    15.994914619570
         C           -0.624261771093    -0.406307731917    -0.000006500658    12.000000000000
         C            0.607594228907     0.400325268083     0.000001499342    12.000000000000
         C           -1.828388771093     0.186347268083     0.000155499342    12.000000000000
         H           -0.506970771093    -1.486697731917    -0.000138500658     1.007825032230
         H            0.450329228907     1.499783268083     0.000051499342     1.007825032230
         H           -2.752547771093    -0.381336731917     0.000174499342     1.007825032230
         H           -1.919663771093     1.269864268083     0.000288499342     1.007825032230

  Basis Set: AUG-CC-PVTZ
    Blend: AUG-CC-PVTZ
  Basis Set: (AUG-CC-PVTZ AUX)
    Blend: AUG-CC-PVTZ-JKFIT
	 Reference Energy          =    -190.8308272947959381 [Eh]
	 Singles Energy            =      -0.0000000000000000 [Eh]
	 Same-Spin Energy          =      -0.1838789300126247 [Eh]
	 Opposite-Spin Energy      =      -0.6064273302756648 [Eh]
	 Correlation Energy        =      -0.7903062602882894 [Eh]
	 Total Energy              =    -191.6211335550842136 [Eh]

	 ================> DF-SCS-MP2 Energies <==================
	-----------------------------------------------------------
	 SCS Same-Spin Scale       =       0.3333333333333333 [-]
	 SCS Opposite-Spin Scale   =       1.2000000000000000 [-]
	 SCS Same-Spin Energy      =      -0.0612929766708749 [Eh]
	 SCS Opposite-Spin Energy  =      -0.7277127963307977 [Eh]
	 SCS Correlation Energy    =      -0.7890057730016725 [Eh]
	 SCS Total Energy          =    -191.6198330677976003 [Eh]
	-----------------------------------------------------------

  Dipole Moment: [D]
     X:    -3.0165      Y:     0.8958      Z:     0.0003     Total:     3.1466

*** Psi4 exiting successfully. Buy a developer a beer!
