                               Psi4 1.3.2 release

  ==> Input File <==

--------------------------------------------------------------------------
#psi4
#
memory 32 gb

molecule  {
0 1
  O        1.8013450    -0.1222670    -0.0001450
  C       -0.5509911    -0.4309148    -0.0000107
  C        0.6707050     0.3546130    -0.0000040
  C       -1.7652780     0.1406350     0.0001500
  H       -0.4438600    -1.5324100    -0.0001440
  H        0.5134400     1.4540710     0.0000460
  H       -2.6894370    -0.4270490     0.0001690
  H       -1.8565530     1.2241520     0.0002830
units angstrom
no_reorient  #important for SAPT in psi4, default
symmetry c1  #important for SAPT in psi4, default
}

set PROPERTIES_ORIGIN ["COM"]
properties('MP2/aug-cc-pvtz', properties = ['dipole'])
--------------------------------------------------------------------------

    Molecular point group: c1
  Charge       = 0
  Multiplicity = 1
  Basis Set: AUG-CC-PVTZ
    Blend: AUG-CC-PVTZ
  Basis Set: (AUG-CC-PVTZ AUX)
    Blend: AUG-CC-PVTZ-JKFIT

    Orbital Energies [Eh]
    ---------------------

    Doubly Occupied:

       1A    -20.559894     2A    -11.339112     3A    -11.276708
       4A    -11.261009     5A     -1.383173     6A     -1.091666
       7A     -0.894379     8A     -0.785648     9A     -0.673567
      10A     -0.666825    11A     -0.604547    12A     -0.556004
      13A     -0.539944    14A     -0.435520    15A     -0.400954

  @DF-RHF Final Energy:  -190.83250825728334

   => Energetics <=

    Nuclear Repulsion Energy =            102.8008283888089238
    One-Electron Energy =                -462.3287732738066325
    Two-Electron Energy =                 168.6954366277144004
    Total Energy =                       -190.8325082572833367
  Basis Set: (AUG-CC-PVTZ AUX)
    Blend: AUG-CC-PVTZ-RI
    Molecular point group: c1

    Geometry (in Angstrom), charge = 0, multiplicity = 1:

       Center              X                  Y                   Z               Mass
    ------------   -----------------  -----------------  -----------------  -----------------
         O            1.720058904851    -0.114069703852    -0.000138951179    15.994914619570
         C           -0.632277195149    -0.422717503852    -0.000004651179    12.000000000000
         C            0.589418904851     0.362810296148     0.000002048821    12.000000000000
         C           -1.846564095149     0.148832296148     0.000156048821    12.000000000000
         H           -0.525146095149    -1.524212703852    -0.000137951179     1.007825032230
         H            0.432153904851     1.462268296148     0.000052048821     1.007825032230
         H           -2.770723095149    -0.418851703852     0.000175048821     1.007825032230
         H           -1.937839095149     1.232349296148     0.000289048821     1.007825032230

  Basis Set: AUG-CC-PVTZ
    Blend: AUG-CC-PVTZ
  Basis Set: (AUG-CC-PVTZ AUX)
    Blend: AUG-CC-PVTZ-JKFIT
	 Reference Energy          =    -190.8325082572833367 [Eh]
	 Singles Energy            =      -0.0000000000000000 [Eh]
	 Same-Spin Energy          =      -0.1839573588863774 [Eh]
	 Opposite-Spin Energy      =      -0.6065338376789742 [Eh]
	 Correlation Energy        =      -0.7904911965653516 [Eh]
	 Total Energy              =    -191.6229994538486778 [Eh]

	 ================> DF-SCS-MP2 Energies <==================
	-----------------------------------------------------------
	 SCS Same-Spin Scale       =       0.3333333333333333 [-]
	 SCS Opposite-Spin Scale   =       1.2000000000000000 [-]
	 SCS Same-Spin Energy      =      -0.0613191196287925 [Eh]
	 SCS Opposite-Spin Energy  =      -0.7278406052147690 [Eh]
	 SCS Correlation Energy    =      -0.7891597248435614 [Eh]
	 SCS Total Energy          =    -191.6216679821268940 [Eh]
	-----------------------------------------------------------

  Dipole Moment: [D]
     X:    -3.2514      Y:     0.6549      Z:     0.0003     Total:     3.3167

*** Psi4 exiting successfully. Buy a developer a beer!
