                               Psi4 1.3.2 release

  ==> Input File <==

--------------------------------------------------------------------------
#psi4
#
memory 32 gb

molecule  {
0 1
  O        1.8013450    -0.1222670    -0.0001450
  C       -0.5611510    -0.4520200    -0.0000120
  C        0.6707050     0.3546130    -0.0000040
  C       -1.7652780     0.1406350     0.0001500
  H       -0.4222741    -1.7312417    -0.0001683
  H        0.5134400     1.4540710     0.0000460
  H       -2.6894370    -0.4270490     0.0001690
  H       -1.8565530     1.2241520     0.0002830
units angstrom
no_reorient  #important for SAPT in psi4, default
symmetry c1  #important for SAPT in psi4, default
}

set PROPERTIES_ORIGIN ["COM"]
properties('MP2/aug-cc-pvtz', properties = ['dipole'])
--------------------------------------------------------------------------

    Molecular point group: c1
  Charge       = 0
  Multiplicity = 1
  Basis Set: AUG-CC-PVTZ
    Blend: AUG-CC-PVTZ
  Basis Set: (AUG-CC-PVTZ AUX)
    Blend: AUG-CC-PVTZ-JKFIT

    Orbital Energies [Eh]
    ---------------------

    Doubly Occupied:

       1A    -20.560926     2A    -11.342704     3A    -11.280906
       4A    -11.276286     5A     -1.383637     6A     -1.085777
       7A     -0.890044     8A     -0.770050     9A     -0.672047
      10A     -0.659777    11A     -0.601046    12A     -0.539341
      13A     -0.531860    14A     -0.434809    15A     -0.401791

  @DF-RHF Final Energy:  -190.81135161290058

   => Energetics <=

    Nuclear Repulsion Energy =            101.8531195296271221
    One-Electron Energy =                -460.4669390781014613
    Two-Electron Energy =                 167.8024679355737590
    Total Energy =                       -190.8113516129005802
  Basis Set: (AUG-CC-PVTZ AUX)
    Blend: AUG-CC-PVTZ-RI
    Molecular point group: c1

    Geometry (in Angstrom), charge = 0, multiplicity = 1:

       Center              X                  Y                   Z               Mass
    ------------   -----------------  -----------------  -----------------  -----------------
         O            1.721846710615    -0.105972602049    -0.000138235618    15.994914619570
         C           -0.640649289385    -0.435725602049    -0.000005235618    12.000000000000
         C            0.591206710615     0.370907397951     0.000002764382    12.000000000000
         C           -1.844776289385     0.156929397951     0.000156764382    12.000000000000
         H           -0.501772389385    -1.714947302049    -0.000161535618     1.007825032230
         H            0.433941710615     1.470365397951     0.000052764382     1.007825032230
         H           -2.768935289385    -0.410754602049     0.000175764382     1.007825032230
         H           -1.936051289385     1.240446397951     0.000289764382     1.007825032230

  Basis Set: AUG-CC-PVTZ
    Blend: AUG-CC-PVTZ
  Basis Set: (AUG-CC-PVTZ AUX)
    Blend: AUG-CC-PVTZ-JKFIT
	 Reference Energy          =    -190.8113516129005802 [Eh]
	 Singles Energy            =      -0.0000000000000000 [Eh]
	 Same-Spin Energy          =      -0.1842299606401371 [Eh]
	 Opposite-Spin Energy      =      -0.6081119037110350 [Eh]
	 Correlation Energy        =      -0.7923418643511722 [Eh]
	 Total Energy              =    -191.6036934772517384 [Eh]

	 ================> DF-SCS-MP2 Energies <==================
	-----------------------------------------------------------
	 SCS Same-Spin Scale       =       0.3333333333333333 [-]
	 SCS Opposite-Spin Scale   =       1.2000000000000000 [-]
	 SCS Same-Spin Energy      =      -0.0614099868800457 [Eh]
	 SCS Opposite-Spin Energy  =      -0.7297342844532420 [Eh]
	 SCS Correlation Energy    =      -0.7911442713332877 [Eh]
	 SCS Total Energy          =    -191.6024958842338606 [Eh]
	-----------------------------------------------------------

  Dipole Moment: [D]
     X:    -3.1824      Y:     0.7055      Z:     0.0003     Total:     3.2596

*** Psi4 exiting successfully. Buy a developer a beer!
