                               Psi4 1.3.2 release

  ==> Input File <==

--------------------------------------------------------------------------
#psi4
#
memory 32 gb

molecule  {
0 1
  O        1.8013450    -0.1222670    -0.0001450
  C       -0.5611510    -0.4520200    -0.0000120
  C        0.6707050     0.3546130    -0.0000040
  C       -1.9447208     0.2289543     0.0001741
  H       -0.4438600    -1.5324100    -0.0001440
  H        0.5134400     1.4540710     0.0000460
  H       -2.6894370    -0.4270490     0.0001690
  H       -1.8565530     1.2241520     0.0002830
units angstrom
no_reorient  #important for SAPT in psi4, default
symmetry c1  #important for SAPT in psi4, default
}

set PROPERTIES_ORIGIN ["COM"]
properties('MP2/aug-cc-pvtz', properties = ['dipole'])
--------------------------------------------------------------------------

    Molecular point group: c1
  Charge       = 0
  Multiplicity = 1
  Basis Set: AUG-CC-PVTZ
    Blend: AUG-CC-PVTZ
  Basis Set: (AUG-CC-PVTZ AUX)
    Blend: AUG-CC-PVTZ-JKFIT

    Orbital Energies [Eh]
    ---------------------

    Doubly Occupied:

       1A    -20.559545     2A    -11.341437     3A    -11.292935
       4A    -11.287148     5A     -1.382720     6A     -1.056526
       7A     -0.912104     8A     -0.790598     9A     -0.697157
      10A     -0.656201    11A     -0.613639    12A     -0.559747
      13A     -0.535380    14A     -0.434519    15A     -0.364619

  @DF-RHF Final Energy:  -190.77725880826395

   => Energetics <=

    Nuclear Repulsion Energy =            100.2552612984587341
    One-Electron Energy =                -457.0964916351267107
    Two-Electron Energy =                 166.0639715284040392
    Total Energy =                       -190.7772588082639516
  Basis Set: (AUG-CC-PVTZ AUX)
    Blend: AUG-CC-PVTZ-RI
    Molecular point group: c1

    Geometry (in Angstrom), charge = 0, multiplicity = 1:

       Center              X                  Y                   Z               Mass
    ------------   -----------------  -----------------  -----------------  -----------------
         O            1.760669044412    -0.128465986086    -0.000143834607    15.994914619570
         C           -0.601826955588    -0.458218986086    -0.000010834607    12.000000000000
         C            0.630029044412     0.348414013914    -0.000002834607    12.000000000000
         C           -1.985396755588     0.222755313914     0.000175265393    12.000000000000
         H           -0.484535955588    -1.538608986086    -0.000142834607     1.007825032230
         H            0.472764044412     1.447872013914     0.000047165393     1.007825032230
         H           -2.730112955588    -0.433247986086     0.000170165393     1.007825032230
         H           -1.897228955588     1.217953013914     0.000284165393     1.007825032230

  Basis Set: AUG-CC-PVTZ
    Blend: AUG-CC-PVTZ
  Basis Set: (AUG-CC-PVTZ AUX)
    Blend: AUG-CC-PVTZ-JKFIT
	 Reference Energy          =    -190.7772588082639516 [Eh]
	 Singles Energy            =      -0.0000000000000000 [Eh]
	 Same-Spin Energy          =      -0.1864975651440808 [Eh]
	 Opposite-Spin Energy      =      -0.6139056615609795 [Eh]
	 Correlation Energy        =      -0.8004032267050603 [Eh]
	 Total Energy              =    -191.5776620349690234 [Eh]

	 ================> DF-SCS-MP2 Energies <==================
	-----------------------------------------------------------
	 SCS Same-Spin Scale       =       0.3333333333333333 [-]
	 SCS Opposite-Spin Scale   =       1.2000000000000000 [-]
	 SCS Same-Spin Energy      =      -0.0621658550480269 [Eh]
	 SCS Opposite-Spin Energy  =      -0.7366867938731754 [Eh]
	 SCS Correlation Energy    =      -0.7988526489212023 [Eh]
	 SCS Total Energy          =    -191.5761114571851635 [Eh]
	-----------------------------------------------------------

  Dipole Moment: [D]
     X:    -3.1746      Y:     0.6296      Z:     0.0003     Total:     3.2364

*** Psi4 exiting successfully. Buy a developer a beer!
