                               Psi4 1.3.2 release

  ==> Input File <==

--------------------------------------------------------------------------
#psi4
#
memory 32 gb

molecule  {
0 1
  O        1.7840134    -0.1614353    -0.0001442
  C       -0.5611510    -0.4520200    -0.0000120
  C        0.6707050     0.3546130    -0.0000040
  C       -1.7652780     0.1406350     0.0001500
  H       -0.4438600    -1.5324100    -0.0001440
  H        0.5134400     1.4540710     0.0000460
  H       -2.6894370    -0.4270490     0.0001690
  H       -1.8565530     1.2241520     0.0002830
units angstrom
no_reorient  #important for SAPT in psi4, default
symmetry c1  #important for SAPT in psi4, default
}

set PROPERTIES_ORIGIN ["COM"]
properties('MP2/aug-cc-pvtz', properties = ['dipole'])
--------------------------------------------------------------------------

    Molecular point group: c1
  Charge       = 0
  Multiplicity = 1
  Basis Set: AUG-CC-PVTZ
    Blend: AUG-CC-PVTZ
  Basis Set: (AUG-CC-PVTZ AUX)
    Blend: AUG-CC-PVTZ-JKFIT

    Orbital Energies [Eh]
    ---------------------

    Doubly Occupied:

       1A    -20.560353     2A    -11.340847     3A    -11.273721
       4A    -11.259331     5A     -1.383745     6A     -1.088164
       7A     -0.888923     8A     -0.789109     9A     -0.671879
      10A     -0.665743    11A     -0.604137    12A     -0.559742
      13A     -0.539112    14A     -0.435023    15A     -0.399608

  @DF-RHF Final Energy:  -190.83315773014061

   => Energetics <=

    Nuclear Repulsion Energy =            102.7365482456680468
    One-Electron Energy =                -462.2205409931758595
    Two-Electron Energy =                 168.6508350173672284
    Total Energy =                       -190.8331577301406128
  Basis Set: (AUG-CC-PVTZ AUX)
    Blend: AUG-CC-PVTZ-RI
    Molecular point group: c1

    Geometry (in Angstrom), charge = 0, multiplicity = 1:

       Center              X                  Y                   Z               Mass
    ------------   -----------------  -----------------  -----------------  -----------------
         O            1.709851403169    -0.137535425725    -0.000138101130    15.994914619570
         C           -0.635312996831    -0.428120125725    -0.000005901130    12.000000000000
         C            0.596543003169     0.378512874275     0.000002098870    12.000000000000
         C           -1.839439996831     0.164534874275     0.000156098870    12.000000000000
         H           -0.518021996831    -1.508510125725    -0.000137901130     1.007825032230
         H            0.439278003169     1.477970874275     0.000052098870     1.007825032230
         H           -2.763598996831    -0.403149125725     0.000175098870     1.007825032230
         H           -1.930714996831     1.248051874275     0.000289098870     1.007825032230

  Basis Set: AUG-CC-PVTZ
    Blend: AUG-CC-PVTZ
  Basis Set: (AUG-CC-PVTZ AUX)
    Blend: AUG-CC-PVTZ-JKFIT
	 Reference Energy          =    -190.8331577301406128 [Eh]
	 Singles Energy            =      -0.0000000000000000 [Eh]
	 Same-Spin Energy          =      -0.1837763462341990 [Eh]
	 Opposite-Spin Energy      =      -0.6063145628001242 [Eh]
	 Correlation Energy        =      -0.7900909090343231 [Eh]
	 Total Energy              =    -191.6232486391749319 [Eh]

	 ================> DF-SCS-MP2 Energies <==================
	-----------------------------------------------------------
	 SCS Same-Spin Scale       =       0.3333333333333333 [-]
	 SCS Opposite-Spin Scale   =       1.2000000000000000 [-]
	 SCS Same-Spin Energy      =      -0.0612587820780663 [Eh]
	 SCS Opposite-Spin Energy  =      -0.7275774753601491 [Eh]
	 SCS Correlation Energy    =      -0.7888362574382154 [Eh]
	 SCS Total Energy          =    -191.6219939875788327 [Eh]
	-----------------------------------------------------------

  Dipole Moment: [D]
     X:    -3.1465      Y:     0.7395      Z:     0.0003     Total:     3.2322

*** Psi4 exiting successfully. Buy a developer a beer!
