                               Psi4 1.4a3.dev225

  ==> Input File <==

--------------------------------------------------------------------------
#psi4
#
memory 32 gb

molecule  {
0 1
  O        1.8012870    -0.1222550    -0.0001540
  C       -0.5611720    -0.4521110    -0.0000010
  C        0.6706890     0.3546780    -0.0000210
  C       -1.8100873     0.1626846     0.0001618
  H       -0.4434470    -1.5324470    -0.0001170
  H        0.5133250     1.4540820     0.0000960
  H       -2.6895930    -0.4267550     0.0001780
  H       -1.8563190     1.2241470     0.0002720
units angstrom
no_reorient  #important for SAPT in psi4, default
symmetry c1  #important for SAPT in psi4, default
}

set PROPERTIES_ORIGIN ["COM"]
properties('MP2/aug-cc-pvtz', properties = ['dipole'])
--------------------------------------------------------------------------

    Molecular point group: c1
  Charge       = 0
  Multiplicity = 1
  Basis Set: AUG-CC-PVTZ
    Blend: AUG-CC-PVTZ
  Basis Set: (AUG-CC-PVTZ AUX)
    Blend: AUG-CC-PVTZ-JKFIT

    Orbital Energies [Eh]
    ---------------------

    Doubly Occupied:

       1A    -20.559803     2A    -11.340617     3A    -11.279565
       4A    -11.268108     5A     -1.382881     6A     -1.079042
       7A     -0.894974     8A     -0.789582     9A     -0.672072
      10A     -0.666042    11A     -0.601727    12A     -0.571233
      13A     -0.537471    14A     -0.434478    15A     -0.390602

  @DF-RHF Final Energy:  -190.82803519136471

   => Energetics <=

    Nuclear Repulsion Energy =            101.9630344292269939
    One-Electron Energy =                -460.6457470182509155
    Two-Electron Energy =                 167.8546773976592306
    Total Energy =                       -190.8280351913647053
  Basis Set: (AUG-CC-PVTZ AUX)
    Blend: AUG-CC-PVTZ-RI
    Molecular point group: c1

    Geometry (in Angstrom), charge = 0, multiplicity = 1:

       Center              X                  Y                   Z               Mass
    ------------   -----------------  -----------------  -----------------  -----------------
         O            1.731792227285    -0.114262568611    -0.000147694739    15.994914619570
         C           -0.630666772715    -0.444118568611     0.000005305261    12.000000000000
         C            0.601194227285     0.362670431389    -0.000014694739    12.000000000000
         C           -1.879582072715     0.170677031389     0.000168105261    12.000000000000
         H           -0.512941772715    -1.524454568611    -0.000110694739     1.007825032230
         H            0.443830227285     1.462074431389     0.000102305261     1.007825032230
         H           -2.759087772715    -0.418762568611     0.000184305261     1.007825032230
         H           -1.925813772715     1.232139431389     0.000278305261     1.007825032230

  Basis Set: AUG-CC-PVTZ
    Blend: AUG-CC-PVTZ
  Basis Set: (AUG-CC-PVTZ AUX)
    Blend: AUG-CC-PVTZ-JKFIT
	 Reference Energy          =    -190.8280351913647053 [Eh]
	 Singles Energy            =      -0.0000000000000000 [Eh]
	 Same-Spin Energy          =      -0.1841649779263915 [Eh]
	 Opposite-Spin Energy      =      -0.6076357682741866 [Eh]
	 Correlation Energy        =      -0.7918007462005781 [Eh]
	 Total Energy              =    -191.6198359375652842 [Eh]

	 ================> DF-SCS-MP2 Energies <==================
	-----------------------------------------------------------
	 SCS Same-Spin Scale       =       0.3333333333333333 [-]
	 SCS Opposite-Spin Scale   =       1.2000000000000000 [-]
	 SCS Same-Spin Energy      =      -0.0613883259754638 [Eh]
	 SCS Opposite-Spin Energy  =      -0.7291629219290240 [Eh]
	 SCS Correlation Energy    =      -0.7905512479044878 [Eh]
	 SCS Total Energy          =    -191.6185864392691940 [Eh]
	-----------------------------------------------------------

  Dipole Moment: [D]
     X:    -3.2135      Y:     0.6566      Z:     0.0003     Total:     3.2799

*** Psi4 exiting successfully. Buy a developer a beer!
