                               Psi4 1.3.2 release

  ==> Input File <==

--------------------------------------------------------------------------
#psi4
#
memory 32 gb

molecule  {
0 1
  O        1.8013450    -0.1222670    -0.0001450
  C       -0.5611510    -0.4520200    -0.0000120
  C        0.6707050     0.3546130    -0.0000040
  C       -1.7652780     0.1406350     0.0001500
  H       -0.4330671    -1.6318259    -0.0001561
  H        0.5134400     1.4540710     0.0000460
  H       -2.6894370    -0.4270490     0.0001690
  H       -1.8565530     1.2241520     0.0002830
units angstrom
no_reorient  #important for SAPT in psi4, default
symmetry c1  #important for SAPT in psi4, default
}

set PROPERTIES_ORIGIN ["COM"]
properties('MP2/aug-cc-pvtz', properties = ['dipole'])
--------------------------------------------------------------------------

    Molecular point group: c1
  Charge       = 0
  Multiplicity = 1
  Basis Set: AUG-CC-PVTZ
    Blend: AUG-CC-PVTZ
  Basis Set: (AUG-CC-PVTZ AUX)
    Blend: AUG-CC-PVTZ-JKFIT

    Orbital Energies [Eh]
    ---------------------

    Doubly Occupied:

       1A    -20.560494     2A    -11.341513     3A    -11.275818
       4A    -11.271142     5A     -1.383340     6A     -1.087033
       7A     -0.889593     8A     -0.777667     9A     -0.671627
      10A     -0.662849    11A     -0.602118    12A     -0.547597
      13A     -0.538967    14A     -0.434617    15A     -0.401190

  @DF-RHF Final Energy:  -190.82617560152923

   => Energetics <=

    Nuclear Repulsion Energy =            102.2050783614430571
    One-Electron Energy =                -461.1713768348615758
    Two-Electron Energy =                 168.1401228718893037
    Total Energy =                       -190.8261756015292292
  Basis Set: (AUG-CC-PVTZ AUX)
    Blend: AUG-CC-PVTZ-RI
    Molecular point group: c1

    Geometry (in Angstrom), charge = 0, multiplicity = 1:

       Center              X                  Y                   Z               Mass
    ------------   -----------------  -----------------  -----------------  -----------------
         O            1.722040860008    -0.107760938675    -0.000138455077    15.994914619570
         C           -0.640455139992    -0.437513938675    -0.000005455077    12.000000000000
         C            0.591400860008     0.369119061325     0.000002544923    12.000000000000
         C           -1.844582139992     0.155141061325     0.000156544923    12.000000000000
         H           -0.512371239992    -1.617319838675    -0.000149555077     1.007825032230
         H            0.434135860008     1.468577061325     0.000052544923     1.007825032230
         H           -2.768741139992    -0.412542938675     0.000175544923     1.007825032230
         H           -1.935857139992     1.238658061325     0.000289544923     1.007825032230

  Basis Set: AUG-CC-PVTZ
    Blend: AUG-CC-PVTZ
  Basis Set: (AUG-CC-PVTZ AUX)
    Blend: AUG-CC-PVTZ-JKFIT
	 Reference Energy          =    -190.8261756015292292 [Eh]
	 Singles Energy            =      -0.0000000000000000 [Eh]
	 Same-Spin Energy          =      -0.1839658189446420 [Eh]
	 Opposite-Spin Energy      =      -0.6070259888900430 [Eh]
	 Correlation Energy        =      -0.7909918078346850 [Eh]
	 Total Energy              =    -191.6171674093639012 [Eh]

	 ================> DF-SCS-MP2 Energies <==================
	-----------------------------------------------------------
	 SCS Same-Spin Scale       =       0.3333333333333333 [-]
	 SCS Opposite-Spin Scale   =       1.2000000000000000 [-]
	 SCS Same-Spin Energy      =      -0.0613219396482140 [Eh]
	 SCS Opposite-Spin Energy  =      -0.7284311866680516 [Eh]
	 SCS Correlation Energy    =      -0.7897531263162656 [Eh]
	 SCS Total Energy          =    -191.6159287278454997 [Eh]
	-----------------------------------------------------------

  Dipole Moment: [D]
     X:    -3.1936      Y:     0.6767      Z:     0.0003     Total:     3.2645

*** Psi4 exiting successfully. Buy a developer a beer!
