                               Psi4 1.4a3.dev225

  ==> Input File <==

--------------------------------------------------------------------------
#psi4
#
memory 32 gb

molecule  {
0 1
  O        1.8012870    -0.1222550    -0.0001540
  C       -0.5611720    -0.4521110    -0.0000010
  C        0.6706890     0.3546780    -0.0000210
  C       -1.7652280     0.1406020     0.0001560
  H       -0.4434470    -1.5324470    -0.0001170
  H        0.5204096     1.4045865     0.0000907
  H       -2.6895930    -0.4267550     0.0001780
  H       -1.8563190     1.2241470     0.0002720
units angstrom
no_reorient  #important for SAPT in psi4, default
symmetry c1  #important for SAPT in psi4, default
}

set PROPERTIES_ORIGIN ["COM"]
properties('MP2/aug-cc-pvtz', properties = ['dipole'])
--------------------------------------------------------------------------

    Molecular point group: c1
  Charge       = 0
  Multiplicity = 1
  Basis Set: AUG-CC-PVTZ
    Blend: AUG-CC-PVTZ
  Basis Set: (AUG-CC-PVTZ AUX)
    Blend: AUG-CC-PVTZ-JKFIT

    Orbital Energies [Eh]
    ---------------------

    Doubly Occupied:

       1A    -20.559057     2A    -11.334633     3A    -11.274846
       4A    -11.259997     5A     -1.382514     6A     -1.089579
       7A     -0.892787     8A     -0.796229     9A     -0.673039
      10A     -0.668226    11A     -0.605448    12A     -0.560618
      13A     -0.537916    14A     -0.436047    15A     -0.400382

  @DF-RHF Final Energy:  -190.83315706820886

   => Energetics <=

    Nuclear Repulsion Energy =            102.8192524531023651
    One-Electron Energy =                -462.3621808578035939
    Two-Electron Energy =                 168.7097713364923663
    Total Energy =                       -190.8331570682088625
  Basis Set: (AUG-CC-PVTZ AUX)
    Blend: AUG-CC-PVTZ-RI
    Molecular point group: c1

    Geometry (in Angstrom), charge = 0, multiplicity = 1:

       Center              X                  Y                   Z               Mass
    ------------   -----------------  -----------------  -----------------  -----------------
         O            1.722056576935    -0.108642449435    -0.000146357124    15.994914619570
         C           -0.640402423065    -0.438498449435     0.000006642876    12.000000000000
         C            0.591458576935     0.368290550565    -0.000013357124    12.000000000000
         C           -1.844458423065     0.154214550565     0.000163642876    12.000000000000
         H           -0.522677423065    -1.518834449435    -0.000109357124     1.007825032230
         H            0.441179176935     1.418199050565     0.000098342876     1.007825032230
         H           -2.768823423065    -0.413142449435     0.000185642876     1.007825032230
         H           -1.935549423065     1.237759550565     0.000279642876     1.007825032230

  Basis Set: AUG-CC-PVTZ
    Blend: AUG-CC-PVTZ
  Basis Set: (AUG-CC-PVTZ AUX)
    Blend: AUG-CC-PVTZ-JKFIT
	 Reference Energy          =    -190.8331570682088625 [Eh]
	 Singles Energy            =      -0.0000000000000000 [Eh]
	 Same-Spin Energy          =      -0.1835407567965485 [Eh]
	 Opposite-Spin Energy      =      -0.6059454369026103 [Eh]
	 Correlation Energy        =      -0.7894861936991588 [Eh]
	 Total Energy              =    -191.6226432619080242 [Eh]

	 ================> DF-SCS-MP2 Energies <==================
	-----------------------------------------------------------
	 SCS Same-Spin Scale       =       0.3333333333333333 [-]
	 SCS Opposite-Spin Scale   =       1.2000000000000000 [-]
	 SCS Same-Spin Energy      =      -0.0611802522655162 [Eh]
	 SCS Opposite-Spin Energy  =      -0.7271345242831323 [Eh]
	 SCS Correlation Energy    =      -0.7883147765486485 [Eh]
	 SCS Total Energy          =    -191.6214718447575081 [Eh]
	-----------------------------------------------------------

  Dipole Moment: [D]
     X:    -3.2116      Y:     0.7100      Z:     0.0003     Total:     3.2891

*** Psi4 exiting successfully. Buy a developer a beer!
