                               Psi4 1.3.2 release

  ==> Input File <==

--------------------------------------------------------------------------
#psi4
#
memory 32 gb

molecule  {
0 1
  O        1.8013450    -0.1222670    -0.0001450
  C       -0.5611510    -0.4520200    -0.0000120
  C        0.7543650     0.4093945    -0.0000035
  C       -1.7652780     0.1406350     0.0001500
  H       -0.4438600    -1.5324100    -0.0001440
  H        0.5134400     1.4540710     0.0000460
  H       -2.6894370    -0.4270490     0.0001690
  H       -1.8565530     1.2241520     0.0002830
units angstrom
no_reorient  #important for SAPT in psi4, default
symmetry c1  #important for SAPT in psi4, default
}

set PROPERTIES_ORIGIN ["COM"]
properties('MP2/aug-cc-pvtz', properties = ['dipole'])
--------------------------------------------------------------------------

    Molecular point group: c1
  Charge       = 0
  Multiplicity = 1
  Basis Set: AUG-CC-PVTZ
    Blend: AUG-CC-PVTZ
  Basis Set: (AUG-CC-PVTZ AUX)
    Blend: AUG-CC-PVTZ-JKFIT

    Orbital Energies [Eh]
    ---------------------

    Doubly Occupied:

       1A    -20.567772     2A    -11.341098     3A    -11.262367
       4A    -11.257356     5A     -1.424341     6A     -1.069439
       7A     -0.874069     8A     -0.792165     9A     -0.680586
      10A     -0.663348    11A     -0.615240    12A     -0.559422
      13A     -0.556714    14A     -0.425267    15A     -0.395979

  @DF-RHF Final Energy:  -190.82917553829182

   => Energetics <=

    Nuclear Repulsion Energy =            102.4320228744072807
    One-Electron Energy =                -461.5520700023207610
    Two-Electron Energy =                 168.2908715896216734
    Total Energy =                       -190.8291755382918211
  Basis Set: (AUG-CC-PVTZ AUX)
    Blend: AUG-CC-PVTZ-RI
    Molecular point group: c1

    Geometry (in Angstrom), charge = 0, multiplicity = 1:

       Center              X                  Y                   Z               Mass
    ------------   -----------------  -----------------  -----------------  -----------------
         O            1.704316252881    -0.121282677312    -0.000138779830    15.994914619570
         C           -0.658179747119    -0.451035677312    -0.000005779830    12.000000000000
         C            0.657336252881     0.410378822688     0.000002720170    12.000000000000
         C           -1.862306747119     0.141619322688     0.000156220170    12.000000000000
         H           -0.540888747119    -1.531425677312    -0.000137779830     1.007825032230
         H            0.416411252881     1.455055322688     0.000052220170     1.007825032230
         H           -2.786465747119    -0.426064677312     0.000175220170     1.007825032230
         H           -1.953581747119     1.225136322688     0.000289220170     1.007825032230

  Basis Set: AUG-CC-PVTZ
    Blend: AUG-CC-PVTZ
  Basis Set: (AUG-CC-PVTZ AUX)
    Blend: AUG-CC-PVTZ-JKFIT
	 Reference Energy          =    -190.8291755382918211 [Eh]
	 Singles Energy            =      -0.0000000000000000 [Eh]
	 Same-Spin Energy          =      -0.1818602817558673 [Eh]
	 Opposite-Spin Energy      =      -0.6029692356345564 [Eh]
	 Correlation Energy        =      -0.7848295173904237 [Eh]
	 Total Energy              =    -191.6140050556822416 [Eh]

	 ================> DF-SCS-MP2 Energies <==================
	-----------------------------------------------------------
	 SCS Same-Spin Scale       =       0.3333333333333333 [-]
	 SCS Opposite-Spin Scale   =       1.2000000000000000 [-]
	 SCS Same-Spin Energy      =      -0.0606200939186224 [Eh]
	 SCS Opposite-Spin Energy  =      -0.7235630827614676 [Eh]
	 SCS Correlation Energy    =      -0.7841831766800901 [Eh]
	 SCS Total Energy          =    -191.6133587149719233 [Eh]
	-----------------------------------------------------------

  Dipole Moment: [D]
     X:    -2.5908      Y:     0.8222      Z:     0.0003     Total:     2.7181

*** Psi4 exiting successfully. Buy a developer a beer!
