                               Psi4 1.4a3.dev225

  ==> Input File <==

--------------------------------------------------------------------------
#psi4
#
memory 32 gb

molecule  {
0 1
  O        1.8012870    -0.1222550    -0.0001540
  C       -0.5611720    -0.4521110    -0.0000010
  C        0.6706890     0.3546780    -0.0000210
  C       -1.7652280     0.1406020     0.0001560
  H       -0.4380305    -1.5821528    -0.0001223
  H        0.5133250     1.4540820     0.0000960
  H       -2.6895930    -0.4267550     0.0001780
  H       -1.8563190     1.2241470     0.0002720
units angstrom
no_reorient  #important for SAPT in psi4, default
symmetry c1  #important for SAPT in psi4, default
}

set PROPERTIES_ORIGIN ["COM"]
properties('MP2/aug-cc-pvtz', properties = ['dipole'])
--------------------------------------------------------------------------

    Molecular point group: c1
  Charge       = 0
  Multiplicity = 1
  Basis Set: AUG-CC-PVTZ
    Blend: AUG-CC-PVTZ
  Basis Set: (AUG-CC-PVTZ AUX)
    Blend: AUG-CC-PVTZ-JKFIT

    Orbital Energies [Eh]
    ---------------------

    Doubly Occupied:

       1A    -20.560319     2A    -11.340982     3A    -11.275452
       4A    -11.266112     5A     -1.383244     6A     -1.088066
       7A     -0.889512     8A     -0.782715     9A     -0.671625
      10A     -0.664652    11A     -0.602997    12A     -0.554643
      13A     -0.538828    14A     -0.434469    15A     -0.400985

  @DF-RHF Final Energy:  -190.83106480009937

   => Energetics <=

    Nuclear Repulsion Energy =            102.3977746274992739
    One-Electron Energy =                -461.5484770448567815
    Two-Electron Energy =                 168.3196376172581097
    Total Energy =                       -190.8310648000993694
  Basis Set: (AUG-CC-PVTZ AUX)
    Blend: AUG-CC-PVTZ-RI
    Molecular point group: c1

    Geometry (in Angstrom), charge = 0, multiplicity = 1:

       Center              X                  Y                   Z               Mass
    ------------   -----------------  -----------------  -----------------  -----------------
         O            1.722086583476    -0.108638666463    -0.000146357124    15.994914619570
         C           -0.640372416524    -0.438494666463     0.000006642876    12.000000000000
         C            0.591488583476     0.368294333537    -0.000013357124    12.000000000000
         C           -1.844428416524     0.154218333537     0.000163642876    12.000000000000
         H           -0.517230916524    -1.568536466463    -0.000114657124     1.007825032230
         H            0.434124583476     1.467698333537     0.000103642876     1.007825032230
         H           -2.768793416524    -0.413138666463     0.000185642876     1.007825032230
         H           -1.935519416524     1.237763333537     0.000279642876     1.007825032230

  Basis Set: AUG-CC-PVTZ
    Blend: AUG-CC-PVTZ
  Basis Set: (AUG-CC-PVTZ AUX)
    Blend: AUG-CC-PVTZ-JKFIT
	 Reference Energy          =    -190.8310648000993694 [Eh]
	 Singles Energy            =      -0.0000000000000000 [Eh]
	 Same-Spin Energy          =      -0.1838491024409040 [Eh]
	 Opposite-Spin Energy      =      -0.6066138893163168 [Eh]
	 Correlation Energy        =      -0.7904629917572208 [Eh]
	 Total Energy              =    -191.6215277918565789 [Eh]

	 ================> DF-SCS-MP2 Energies <==================
	-----------------------------------------------------------
	 SCS Same-Spin Scale       =       0.3333333333333333 [-]
	 SCS Opposite-Spin Scale   =       1.2000000000000000 [-]
	 SCS Same-Spin Energy      =      -0.0612830341469680 [Eh]
	 SCS Opposite-Spin Energy  =      -0.7279366671795801 [Eh]
	 SCS Correlation Energy    =      -0.7892197013265481 [Eh]
	 SCS Total Energy          =    -191.6202845014259140 [Eh]
	-----------------------------------------------------------

  Dipole Moment: [D]
     X:    -3.1989      Y:     0.6667      Z:     0.0003     Total:     3.2677

*** Psi4 exiting successfully. Buy a developer a beer!
