                               Psi4 1.3.2 release

  ==> Input File <==

--------------------------------------------------------------------------
#psi4
#
memory 32 gb

molecule  {
0 1
  O        1.8013450    -0.1222670    -0.0001450
  C       -0.5611510    -0.4520200    -0.0000120
  C        0.6707050     0.3546130    -0.0000040
  C       -1.7754379     0.1195298     0.0001484
  H       -0.4438600    -1.5324100    -0.0001440
  H        0.5134400     1.4540710     0.0000460
  H       -2.6894370    -0.4270490     0.0001690
  H       -1.8565530     1.2241520     0.0002830
units angstrom
no_reorient  #important for SAPT in psi4, default
symmetry c1  #important for SAPT in psi4, default
}

set PROPERTIES_ORIGIN ["COM"]
properties('MP2/aug-cc-pvtz', properties = ['dipole'])
--------------------------------------------------------------------------

    Molecular point group: c1
  Charge       = 0
  Multiplicity = 1
  Basis Set: AUG-CC-PVTZ
    Blend: AUG-CC-PVTZ
  Basis Set: (AUG-CC-PVTZ AUX)
    Blend: AUG-CC-PVTZ-JKFIT

    Orbital Energies [Eh]
    ---------------------

    Doubly Occupied:

       1A    -20.560886     2A    -11.341283     3A    -11.275323
       4A    -11.260712     5A     -1.383704     6A     -1.088922
       7A     -0.891109     8A     -0.787556     9A     -0.674929
      10A     -0.664510    11A     -0.607262    12A     -0.556861
      13A     -0.539016    14A     -0.435205    15A     -0.400840

  @DF-RHF Final Energy:  -190.83276415467870

   => Energetics <=

    Nuclear Repulsion Energy =            102.5448600082573307
    One-Electron Energy =                -461.8190134083794760
    Two-Electron Energy =                 168.4413892454434460
    Total Energy =                       -190.8327641546786992
  Basis Set: (AUG-CC-PVTZ AUX)
    Blend: AUG-CC-PVTZ-RI
    Molecular point group: c1

    Geometry (in Angstrom), charge = 0, multiplicity = 1:

       Center              X                  Y                   Z               Mass
    ------------   -----------------  -----------------  -----------------  -----------------
         O            1.724411110352    -0.105028850347    -0.000138330041    15.994914619570
         C           -0.638084889648    -0.434781850347    -0.000005330041    12.000000000000
         C            0.593771110352     0.371851149653     0.000002669959    12.000000000000
         C           -1.852371789648     0.136767949653     0.000155069959    12.000000000000
         H           -0.520793889648    -1.515171850347    -0.000137330041     1.007825032230
         H            0.436506110352     1.471309149653     0.000052669959     1.007825032230
         H           -2.766370889648    -0.409810850347     0.000175669959     1.007825032230
         H           -1.933486889648     1.241390149653     0.000289669959     1.007825032230

  Basis Set: AUG-CC-PVTZ
    Blend: AUG-CC-PVTZ
  Basis Set: (AUG-CC-PVTZ AUX)
    Blend: AUG-CC-PVTZ-JKFIT
	 Reference Energy          =    -190.8327641546786992 [Eh]
	 Singles Energy            =      -0.0000000000000000 [Eh]
	 Same-Spin Energy          =      -0.1837639598066291 [Eh]
	 Opposite-Spin Energy      =      -0.6063871070590585 [Eh]
	 Correlation Energy        =      -0.7901510668656877 [Eh]
	 Total Energy              =    -191.6229152215443889 [Eh]

	 ================> DF-SCS-MP2 Energies <==================
	-----------------------------------------------------------
	 SCS Same-Spin Scale       =       0.3333333333333333 [-]
	 SCS Opposite-Spin Scale   =       1.2000000000000000 [-]
	 SCS Same-Spin Energy      =      -0.0612546532688764 [Eh]
	 SCS Opposite-Spin Energy  =      -0.7276645284708702 [Eh]
	 SCS Correlation Energy    =      -0.7889191817397465 [Eh]
	 SCS Total Energy          =    -191.6216833364184424 [Eh]
	-----------------------------------------------------------

  Dipole Moment: [D]
     X:    -3.2012      Y:     0.6491      Z:     0.0003     Total:     3.2664

*** Psi4 exiting successfully. Buy a developer a beer!
