                               Psi4 1.4a3.dev225

  ==> Input File <==

--------------------------------------------------------------------------
#psi4
#
memory 32 gb

molecule  {
0 1
  O        1.8012870    -0.1222550    -0.0001540
  C       -0.5611720    -0.4521110    -0.0000010
  C        0.6706890     0.3546780    -0.0000210
  C       -1.7652280     0.1406020     0.0001560
  H       -0.4434470    -1.5324470    -0.0001170
  H        0.5062404     1.5035775     0.0001013
  H       -2.6895930    -0.4267550     0.0001780
  H       -1.8563190     1.2241470     0.0002720
units angstrom
no_reorient  #important for SAPT in psi4, default
symmetry c1  #important for SAPT in psi4, default
}

set PROPERTIES_ORIGIN ["COM"]
properties('MP2/aug-cc-pvtz', properties = ['dipole'])
--------------------------------------------------------------------------

    Molecular point group: c1
  Charge       = 0
  Multiplicity = 1
  Basis Set: AUG-CC-PVTZ
    Blend: AUG-CC-PVTZ
  Basis Set: (AUG-CC-PVTZ AUX)
    Blend: AUG-CC-PVTZ-JKFIT

    Orbital Energies [Eh]
    ---------------------

    Doubly Occupied:

       1A    -20.561463     2A    -11.346198     3A    -11.275652
       4A    -11.261696     5A     -1.383983     6A     -1.089453
       7A     -0.887407     8A     -0.781863     9A     -0.671877
      10A     -0.663677    11A     -0.602505    12A     -0.561320
      13A     -0.539640    14A     -0.432368    15A     -0.401354

  @DF-RHF Final Energy:  -190.83098640854419

   => Energetics <=

    Nuclear Repulsion Energy =            102.3983306022025630
    One-Electron Energy =                -461.5377206207573408
    Two-Electron Energy =                 168.3084036100105720
    Total Energy =                       -190.8309864085441916
  Basis Set: (AUG-CC-PVTZ AUX)
    Blend: AUG-CC-PVTZ-RI
    Molecular point group: c1

    Geometry (in Angstrom), charge = 0, multiplicity = 1:

       Center              X                  Y                   Z               Mass
    ------------   -----------------  -----------------  -----------------  -----------------
         O            1.722311458949    -0.110423144565    -0.000146547802    15.994914619570
         C           -0.640147541051    -0.440279144565     0.000006452198    12.000000000000
         C            0.591713458949     0.366509855435    -0.000013547802    12.000000000000
         C           -1.844203541051     0.152433855435     0.000163452198    12.000000000000
         H           -0.522422541051    -1.520615144565    -0.000109547802     1.007825032230
         H            0.427264858949     1.515409355435     0.000108752198     1.007825032230
         H           -2.768568541051    -0.414923144565     0.000185452198     1.007825032230
         H           -1.935294541051     1.235978855435     0.000279452198     1.007825032230

  Basis Set: AUG-CC-PVTZ
    Blend: AUG-CC-PVTZ
  Basis Set: (AUG-CC-PVTZ AUX)
    Blend: AUG-CC-PVTZ-JKFIT
	 Reference Energy          =    -190.8309864085441916 [Eh]
	 Singles Energy            =      -0.0000000000000000 [Eh]
	 Same-Spin Energy          =      -0.1839904798801664 [Eh]
	 Opposite-Spin Energy      =      -0.6067984082172030 [Eh]
	 Correlation Energy        =      -0.7907888880973694 [Eh]
	 Total Energy              =    -191.6217752966415730 [Eh]

	 ================> DF-SCS-MP2 Energies <==================
	-----------------------------------------------------------
	 SCS Same-Spin Scale       =       0.3333333333333333 [-]
	 SCS Opposite-Spin Scale   =       1.2000000000000000 [-]
	 SCS Same-Spin Energy      =      -0.0613301599600555 [Eh]
	 SCS Opposite-Spin Energy  =      -0.7281580898606436 [Eh]
	 SCS Correlation Energy    =      -0.7894882498206990 [Eh]
	 SCS Total Energy          =    -191.6204746583648841 [Eh]
	-----------------------------------------------------------

  Dipole Moment: [D]
     X:    -3.1974      Y:     0.6003      Z:     0.0003     Total:     3.2533

*** Psi4 exiting successfully. Buy a developer a beer!
