                               Psi4 1.4a3.dev225

  ==> Input File <==

--------------------------------------------------------------------------
#psi4
#
memory 32 gb

molecule  {
0 1
  O        1.8012870    -0.1222550    -0.0001540
  C       -0.5611720    -0.4521110    -0.0000010
  C        0.6706890     0.3546780    -0.0000210
  C       -1.7652280     0.1406020     0.0001560
  H       -0.4434470    -1.5324470    -0.0001170
  H        0.5161588     1.4342838     0.0000939
  H       -2.6895930    -0.4267550     0.0001780
  H       -1.8563190     1.2241470     0.0002720
units angstrom
no_reorient  #important for SAPT in psi4, default
symmetry c1  #important for SAPT in psi4, default
}

set PROPERTIES_ORIGIN ["COM"]
properties('MP2/aug-cc-pvtz', properties = ['dipole'])
--------------------------------------------------------------------------

    Molecular point group: c1
  Charge       = 0
  Multiplicity = 1
  Basis Set: AUG-CC-PVTZ
    Blend: AUG-CC-PVTZ
  Basis Set: (AUG-CC-PVTZ AUX)
    Blend: AUG-CC-PVTZ-JKFIT

    Orbital Energies [Eh]
    ---------------------

    Doubly Occupied:

       1A    -20.559698     2A    -11.338173     3A    -11.275064
       4A    -11.260469     5A     -1.382878     6A     -1.089478
       7A     -0.890738     8A     -0.791635     9A     -0.672170
      10A     -0.667375    11A     -0.604672    12A     -0.560809
      13A     -0.538377    14A     -0.435029    15A     -0.400648

  @DF-RHF Final Energy:  -190.83373483789637

   => Energetics <=

    Nuclear Repulsion Energy =            102.6872221269337047
    One-Electron Energy =                -462.1074857316859266
    Two-Electron Energy =                 168.5865287668558494
    Total Energy =                       -190.8337348378963725
  Basis Set: (AUG-CC-PVTZ AUX)
    Blend: AUG-CC-PVTZ-RI
    Molecular point group: c1

    Geometry (in Angstrom), charge = 0, multiplicity = 1:

       Center              X                  Y                   Z               Mass
    ------------   -----------------  -----------------  -----------------  -----------------
         O            1.722133042259    -0.109176657974    -0.000146414688    15.994914619570
         C           -0.640325957741    -0.439032657974     0.000006585312    12.000000000000
         C            0.591535042259     0.367756342026    -0.000013414688    12.000000000000
         C           -1.844381957741     0.153680342026     0.000163585312    12.000000000000
         H           -0.522600957741    -1.519368657974    -0.000109414688     1.007825032230
         H            0.437004842259     1.447362142026     0.000101485312     1.007825032230
         H           -2.768746957741    -0.413676657974     0.000185585312     1.007825032230
         H           -1.935472957741     1.237225342026     0.000279585312     1.007825032230

  Basis Set: AUG-CC-PVTZ
    Blend: AUG-CC-PVTZ
  Basis Set: (AUG-CC-PVTZ AUX)
    Blend: AUG-CC-PVTZ-JKFIT
	 Reference Energy          =    -190.8337348378963725 [Eh]
	 Singles Energy            =      -0.0000000000000000 [Eh]
	 Same-Spin Energy          =      -0.1836613474331285 [Eh]
	 Opposite-Spin Energy      =      -0.6061469658336684 [Eh]
	 Correlation Energy        =      -0.7898083132667970 [Eh]
	 Total Energy              =    -191.6235431511631759 [Eh]

	 ================> DF-SCS-MP2 Energies <==================
	-----------------------------------------------------------
	 SCS Same-Spin Scale       =       0.3333333333333333 [-]
	 SCS Opposite-Spin Scale   =       1.2000000000000000 [-]
	 SCS Same-Spin Energy      =      -0.0612204491443762 [Eh]
	 SCS Opposite-Spin Energy  =      -0.7273763590004021 [Eh]
	 SCS Correlation Energy    =      -0.7885968081447783 [Eh]
	 SCS Total Energy          =    -191.6223316460411468 [Eh]
	-----------------------------------------------------------

  Dipole Moment: [D]
     X:    -3.2077      Y:     0.6806      Z:     0.0003     Total:     3.2791

*** Psi4 exiting successfully. Buy a developer a beer!
