                               Psi4 1.3.2 release

  ==> Input File <==

--------------------------------------------------------------------------
#psi4
#
memory 32 gb

molecule  {
0 1
  O        1.8013450    -0.1222670    -0.0001450
  C       -0.5227427    -0.3665807    -0.0000064
  C        0.6707050     0.3546130    -0.0000040
  C       -1.7652780     0.1406350     0.0001500
  H       -0.4438600    -1.5324100    -0.0001440
  H        0.5134400     1.4540710     0.0000460
  H       -2.6894370    -0.4270490     0.0001690
  H       -1.8565530     1.2241520     0.0002830
units angstrom
no_reorient  #important for SAPT in psi4, default
symmetry c1  #important for SAPT in psi4, default
}

set PROPERTIES_ORIGIN ["COM"]
properties('MP2/aug-cc-pvtz', properties = ['dipole'])
--------------------------------------------------------------------------

    Molecular point group: c1
  Charge       = 0
  Multiplicity = 1
  Basis Set: AUG-CC-PVTZ
    Blend: AUG-CC-PVTZ
  Basis Set: (AUG-CC-PVTZ AUX)
    Blend: AUG-CC-PVTZ-JKFIT

    Orbital Energies [Eh]
    ---------------------

    Doubly Occupied:

       1A    -20.559088     2A    -11.334617     3A    -11.282134
       4A    -11.262046     5A     -1.383161     6A     -1.099335
       7A     -0.910008     8A     -0.777404     9A     -0.680128
      10A     -0.666963    11A     -0.609285    12A     -0.544075
      13A     -0.536197    14A     -0.437728    15A     -0.401587

  @DF-RHF Final Energy:  -190.82174712359654

   => Energetics <=

    Nuclear Repulsion Energy =            103.4101797617765470
    One-Electron Energy =                -463.4963417042159790
    Two-Electron Energy =                 169.2644148188429085
    Total Energy =                       -190.8217471235965377
  Basis Set: (AUG-CC-PVTZ AUX)
    Blend: AUG-CC-PVTZ-RI
    Molecular point group: c1

    Geometry (in Angstrom), charge = 0, multiplicity = 1:

       Center              X                  Y                   Z               Mass
    ------------   -----------------  -----------------  -----------------  -----------------
         O            1.714008508594    -0.127849131991    -0.000139872176    15.994914619570
         C           -0.610079191406    -0.372162831991    -0.000001272176    12.000000000000
         C            0.583368508594     0.349030868009     0.000001127824    12.000000000000
         C           -1.852614491406     0.135052868009     0.000155127824    12.000000000000
         H           -0.531196491406    -1.537992131991    -0.000138872176     1.007825032230
         H            0.426103508594     1.448488868009     0.000051127824     1.007825032230
         H           -2.776773491406    -0.432631131991     0.000174127824     1.007825032230
         H           -1.943889491406     1.218569868009     0.000288127824     1.007825032230

  Basis Set: AUG-CC-PVTZ
    Blend: AUG-CC-PVTZ
  Basis Set: (AUG-CC-PVTZ AUX)
    Blend: AUG-CC-PVTZ-JKFIT
	 Reference Energy          =    -190.8217471235965377 [Eh]
	 Singles Energy            =      -0.0000000000000000 [Eh]
	 Same-Spin Energy          =      -0.1847969825456029 [Eh]
	 Opposite-Spin Energy      =      -0.6077502634142420 [Eh]
	 Correlation Energy        =      -0.7925472459598448 [Eh]
	 Total Energy              =    -191.6142943695563758 [Eh]

	 ================> DF-SCS-MP2 Energies <==================
	-----------------------------------------------------------
	 SCS Same-Spin Scale       =       0.3333333333333333 [-]
	 SCS Opposite-Spin Scale   =       1.2000000000000000 [-]
	 SCS Same-Spin Energy      =      -0.0615989941818676 [Eh]
	 SCS Opposite-Spin Energy  =      -0.7293003160970903 [Eh]
	 SCS Correlation Energy    =      -0.7908993102789580 [Eh]
	 SCS Total Energy          =    -191.6126464338754829 [Eh]
	-----------------------------------------------------------

  Dipole Moment: [D]
     X:    -3.3910      Y:     0.6490      Z:     0.0003     Total:     3.4526

*** Psi4 exiting successfully. Buy a developer a beer!
