                               Psi4 1.3.2 release

  ==> Input File <==

--------------------------------------------------------------------------
#psi4
#
memory 32 gb

molecule  {
0 1
  O        1.8013450    -0.1222670    -0.0001450
  C       -0.5611510    -0.4520200    -0.0000120
  C        0.6707050     0.3546130    -0.0000040
  C       -1.7652780     0.1406350     0.0001500
  H       -0.4438600    -1.5324100    -0.0001440
  H        0.5417595     1.2560861     0.0000370
  H       -2.6894370    -0.4270490     0.0001690
  H       -1.8565530     1.2241520     0.0002830
units angstrom
no_reorient  #important for SAPT in psi4, default
symmetry c1  #important for SAPT in psi4, default
}

set PROPERTIES_ORIGIN ["COM"]
properties('MP2/aug-cc-pvtz', properties = ['dipole'])
--------------------------------------------------------------------------

    Molecular point group: c1
  Charge       = 0
  Multiplicity = 1
  Basis Set: AUG-CC-PVTZ
    Blend: AUG-CC-PVTZ
  Basis Set: (AUG-CC-PVTZ AUX)
    Blend: AUG-CC-PVTZ-JKFIT

    Orbital Energies [Eh]
    ---------------------

    Doubly Occupied:

       1A    -20.556894     2A    -11.316702     3A    -11.274042
       4A    -11.258165     5A     -1.381749     6A     -1.091125
       7A     -0.911736     8A     -0.819513     9A     -0.680603
      10A     -0.668506    11A     -0.608366    12A     -0.559940
      13A     -0.536327    14A     -0.440337    15A     -0.399359

  @DF-RHF Final Energy:  -190.80460474881212

   => Energetics <=

    Nuclear Repulsion Energy =            103.5704351612568246
    One-Electron Energy =                -463.7433494339761069
    Two-Electron Energy =                 169.3683095239071292
    Total Energy =                       -190.8046047488121246
  Basis Set: (AUG-CC-PVTZ AUX)
    Blend: AUG-CC-PVTZ-RI
    Molecular point group: c1

    Geometry (in Angstrom), charge = 0, multiplicity = 1:

       Center              X                  Y                   Z               Mass
    ------------   -----------------  -----------------  -----------------  -----------------
         O            1.721725583556    -0.105987834673    -0.000138510842    15.994914619570
         C           -0.640770416444    -0.435740834673    -0.000005510842    12.000000000000
         C            0.591085583556     0.370892165327     0.000002489158    12.000000000000
         C           -1.844897416444     0.156914165327     0.000156489158    12.000000000000
         H           -0.523479416444    -1.516130834673    -0.000137510842     1.007825032230
         H            0.462140083556     1.272365265327     0.000043489158     1.007825032230
         H           -2.769056416444    -0.410769834673     0.000175489158     1.007825032230
         H           -1.936172416444     1.240431165327     0.000289489158     1.007825032230

  Basis Set: AUG-CC-PVTZ
    Blend: AUG-CC-PVTZ
  Basis Set: (AUG-CC-PVTZ AUX)
    Blend: AUG-CC-PVTZ-JKFIT
	 Reference Energy          =    -190.8046047488121246 [Eh]
	 Singles Energy            =      -0.0000000000000000 [Eh]
	 Same-Spin Energy          =      -0.1831566350645479 [Eh]
	 Opposite-Spin Energy      =      -0.6056164462652768 [Eh]
	 Correlation Energy        =      -0.7887730813298246 [Eh]
	 Total Energy              =    -191.5933778301419466 [Eh]

	 ================> DF-SCS-MP2 Energies <==================
	-----------------------------------------------------------
	 SCS Same-Spin Scale       =       0.3333333333333333 [-]
	 SCS Opposite-Spin Scale   =       1.2000000000000000 [-]
	 SCS Same-Spin Energy      =      -0.0610522116881826 [Eh]
	 SCS Opposite-Spin Energy  =      -0.7267397355183322 [Eh]
	 SCS Correlation Energy    =      -0.7877919472065148 [Eh]
	 SCS Total Energy          =    -191.5923966960186533 [Eh]
	-----------------------------------------------------------

  Dipole Moment: [D]
     X:    -3.2278      Y:     0.8151      Z:     0.0003     Total:     3.3291

*** Psi4 exiting successfully. Buy a developer a beer!
