                               Psi4 1.3.2 release

  ==> Input File <==

--------------------------------------------------------------------------
#psi4
#
memory 32 gb

molecule  {
0 1
  O        1.8013450    -0.1222670    -0.0001450
  C       -0.5611510    -0.4520200    -0.0000120
  C        0.6418035     0.3971128     0.0000029
  C       -1.7652780     0.1406350     0.0001500
  H       -0.4438600    -1.5324100    -0.0001440
  H        0.5134400     1.4540710     0.0000460
  H       -2.6894370    -0.4270490     0.0001690
  H       -1.8565530     1.2241520     0.0002830
units angstrom
no_reorient  #important for SAPT in psi4, default
symmetry c1  #important for SAPT in psi4, default
}

set PROPERTIES_ORIGIN ["COM"]
properties('MP2/aug-cc-pvtz', properties = ['dipole'])
--------------------------------------------------------------------------

    Molecular point group: c1
  Charge       = 0
  Multiplicity = 1
  Basis Set: AUG-CC-PVTZ
    Blend: AUG-CC-PVTZ
  Basis Set: (AUG-CC-PVTZ AUX)
    Blend: AUG-CC-PVTZ-JKFIT

    Orbital Energies [Eh]
    ---------------------

    Doubly Occupied:

       1A    -20.558220     2A    -11.342597     3A    -11.275863
       4A    -11.263052     5A     -1.355095     6A     -1.091867
       7A     -0.893089     8A     -0.798565     9A     -0.669288
      10A     -0.666201    11A     -0.595133    12A     -0.561694
      13A     -0.523466    14A     -0.439030    15A     -0.398422

  @DF-RHF Final Energy:  -190.82491731530359

   => Energetics <=

    Nuclear Repulsion Energy =            102.1047407645943252
    One-Electron Energy =                -460.9961523164105870
    Two-Electron Energy =                 168.0664942365126535
    Total Energy =                       -190.8249173153035940
  Basis Set: (AUG-CC-PVTZ AUX)
    Blend: AUG-CC-PVTZ-RI
    Molecular point group: c1

    Geometry (in Angstrom), charge = 0, multiplicity = 1:

       Center              X                  Y                   Z               Mass
    ------------   -----------------  -----------------  -----------------  -----------------
         O            1.728425288376    -0.118652115874    -0.000140150617    15.994914619570
         C           -0.634070711624    -0.448405115874    -0.000007150617    12.000000000000
         C            0.568883788376     0.400727684126     0.000007749383    12.000000000000
         C           -1.838197711624     0.144249884126     0.000154849383    12.000000000000
         H           -0.516779711624    -1.528795115874    -0.000139150617     1.007825032230
         H            0.440520288376     1.457685884126     0.000050849383     1.007825032230
         H           -2.762356711624    -0.423434115874     0.000173849383     1.007825032230
         H           -1.929472711624     1.227766884126     0.000287849383     1.007825032230

  Basis Set: AUG-CC-PVTZ
    Blend: AUG-CC-PVTZ
  Basis Set: (AUG-CC-PVTZ AUX)
    Blend: AUG-CC-PVTZ-JKFIT
	 Reference Energy          =    -190.8249173153035940 [Eh]
	 Singles Energy            =      -0.0000000000000000 [Eh]
	 Same-Spin Energy          =      -0.1848337957649249 [Eh]
	 Opposite-Spin Energy      =      -0.6090711876197143 [Eh]
	 Correlation Energy        =      -0.7939049833846392 [Eh]
	 Total Energy              =    -191.6188222986882295 [Eh]

	 ================> DF-SCS-MP2 Energies <==================
	-----------------------------------------------------------
	 SCS Same-Spin Scale       =       0.3333333333333333 [-]
	 SCS Opposite-Spin Scale   =       1.2000000000000000 [-]
	 SCS Same-Spin Energy      =      -0.0616112652549750 [Eh]
	 SCS Opposite-Spin Energy  =      -0.7308854251436572 [Eh]
	 SCS Correlation Energy    =      -0.7924966903986321 [Eh]
	 SCS Total Energy          =    -191.6174140057022157 [Eh]
	-----------------------------------------------------------

  Dipole Moment: [D]
     X:    -3.3218      Y:     0.7823      Z:     0.0003     Total:     3.4127

*** Psi4 exiting successfully. Buy a developer a beer!
