                               Psi4 1.3.2 release

  ==> Input File <==

--------------------------------------------------------------------------
#psi4
#
memory 32 gb

molecule  {
0 1
  O        1.8013450    -0.1222670    -0.0001450
  C       -0.6387189    -0.3188372    -0.0000047
  C        0.6707050     0.3546130    -0.0000040
  C       -1.7652780     0.1406350     0.0001500
  H       -0.4438600    -1.5324100    -0.0001440
  H        0.5134400     1.4540710     0.0000460
  H       -2.6894370    -0.4270490     0.0001690
  H       -1.8565530     1.2241520     0.0002830
units angstrom
no_reorient  #important for SAPT in psi4, default
symmetry c1  #important for SAPT in psi4, default
}

set PROPERTIES_ORIGIN ["COM"]
properties('MP2/aug-cc-pvtz', properties = ['dipole'])
--------------------------------------------------------------------------

    Molecular point group: c1
  Charge       = 0
  Multiplicity = 1
  Basis Set: AUG-CC-PVTZ
    Blend: AUG-CC-PVTZ
  Basis Set: (AUG-CC-PVTZ AUX)
    Blend: AUG-CC-PVTZ-JKFIT

    Orbital Energies [Eh]
    ---------------------

    Doubly Occupied:

       1A    -20.570050     2A    -11.346443     3A    -11.256548
       4A    -11.253149     5A     -1.388270     6A     -1.122712
       7A     -0.901384     8A     -0.768382     9A     -0.685705
      10A     -0.669106    11A     -0.622313    12A     -0.546074
      13A     -0.515633    14A     -0.434090    15A     -0.430231

  @DF-RHF Final Energy:  -190.79994853299678

   => Energetics <=

    Nuclear Repulsion Energy =            103.6753641747376946
    One-Electron Energy =                -463.9304403606821552
    Two-Electron Energy =                 169.4551276529476809
    Total Energy =                       -190.7999485329967797
  Basis Set: (AUG-CC-PVTZ AUX)
    Blend: AUG-CC-PVTZ-RI
    Molecular point group: c1

    Geometry (in Angstrom), charge = 0, multiplicity = 1:

       Center              X                  Y                   Z               Mass
    ------------   -----------------  -----------------  -----------------  -----------------
         O            1.738848923144    -0.138075095008    -0.000140236291    15.994914619570
         C           -0.701214976856    -0.334645295008     0.000000063709    12.000000000000
         C            0.608208923144     0.338804904992     0.000000763709    12.000000000000
         C           -1.827774076856     0.124826904992     0.000154763709    12.000000000000
         H           -0.506356076856    -1.548218095008    -0.000139236291     1.007825032230
         H            0.450943923144     1.438262904992     0.000050763709     1.007825032230
         H           -2.751933076856    -0.442857095008     0.000173763709     1.007825032230
         H           -1.919049076856     1.208343904992     0.000287763709     1.007825032230

  Basis Set: AUG-CC-PVTZ
    Blend: AUG-CC-PVTZ
  Basis Set: (AUG-CC-PVTZ AUX)
    Blend: AUG-CC-PVTZ-JKFIT
	 Reference Energy          =    -190.7999485329967797 [Eh]
	 Singles Energy            =      -0.0000000000000000 [Eh]
	 Same-Spin Energy          =      -0.1838310110105857 [Eh]
	 Opposite-Spin Energy      =      -0.6056539144398896 [Eh]
	 Correlation Energy        =      -0.7894849254504753 [Eh]
	 Total Energy              =    -191.5894334584472460 [Eh]

	 ================> DF-SCS-MP2 Energies <==================
	-----------------------------------------------------------
	 SCS Same-Spin Scale       =       0.3333333333333333 [-]
	 SCS Opposite-Spin Scale   =       1.2000000000000000 [-]
	 SCS Same-Spin Energy      =      -0.0612770036701952 [Eh]
	 SCS Opposite-Spin Energy  =      -0.7267846973278674 [Eh]
	 SCS Correlation Energy    =      -0.7880617009980627 [Eh]
	 SCS Total Energy          =    -191.5880102339948508 [Eh]
	-----------------------------------------------------------

  Dipole Moment: [D]
     X:    -3.1277      Y:     0.7342      Z:     0.0003     Total:     3.2127

*** Psi4 exiting successfully. Buy a developer a beer!
