                               Psi4 1.3.2 release

  ==> Input File <==

--------------------------------------------------------------------------
#psi4
#
memory 32 gb

molecule  {
0 1
  O        1.8013450    -0.1222670    -0.0001450
  C       -0.5611510    -0.4520200    -0.0000120
  C        0.6707050     0.3546130    -0.0000040
  C       -1.8036863     0.0551957     0.0001433
  H       -0.4438600    -1.5324100    -0.0001440
  H        0.5134400     1.4540710     0.0000460
  H       -2.6894370    -0.4270490     0.0001690
  H       -1.8565530     1.2241520     0.0002830
units angstrom
no_reorient  #important for SAPT in psi4, default
symmetry c1  #important for SAPT in psi4, default
}

set PROPERTIES_ORIGIN ["COM"]
properties('MP2/aug-cc-pvtz', properties = ['dipole'])
--------------------------------------------------------------------------

    Molecular point group: c1
  Charge       = 0
  Multiplicity = 1
  Basis Set: AUG-CC-PVTZ
    Blend: AUG-CC-PVTZ
  Basis Set: (AUG-CC-PVTZ AUX)
    Blend: AUG-CC-PVTZ-JKFIT

    Orbital Energies [Eh]
    ---------------------

    Doubly Occupied:

       1A    -20.563296     2A    -11.343877     3A    -11.276364
       4A    -11.261299     5A     -1.385615     6A     -1.087984
       7A     -0.897005     8A     -0.786371     9A     -0.686666
      10A     -0.658859    11A     -0.616505    12A     -0.540216
      13A     -0.539780    14A     -0.437939    15A     -0.401386

  @DF-RHF Final Energy:  -190.82274584324477

   => Energetics <=

    Nuclear Repulsion Energy =            102.3987284469666719
    One-Electron Energy =                -461.4766263390179120
    Two-Electron Energy =                 168.2551520488064511
    Total Energy =                       -190.8227458432447747
  Basis Set: (AUG-CC-PVTZ AUX)
    Blend: AUG-CC-PVTZ-RI
    Molecular point group: c1

    Geometry (in Angstrom), charge = 0, multiplicity = 1:

       Center              X                  Y                   Z               Mass
    ------------   -----------------  -----------------  -----------------  -----------------
         O            1.730461506609    -0.091249422208    -0.000137237695    15.994914619570
         C           -0.632034493391    -0.421002422208    -0.000004237695    12.000000000000
         C            0.599821506609     0.385630577792     0.000003762305    12.000000000000
         C           -1.874569793391     0.086213277792     0.000151062305    12.000000000000
         H           -0.514743493391    -1.501392422208    -0.000136237695     1.007825032230
         H            0.442556506609     1.485088577792     0.000053762305     1.007825032230
         H           -2.760320493391    -0.396031422208     0.000176762305     1.007825032230
         H           -1.927436493391     1.255169577792     0.000290762305     1.007825032230

  Basis Set: AUG-CC-PVTZ
    Blend: AUG-CC-PVTZ
  Basis Set: (AUG-CC-PVTZ AUX)
    Blend: AUG-CC-PVTZ-JKFIT
	 Reference Energy          =    -190.8227458432447747 [Eh]
	 Singles Energy            =      -0.0000000000000000 [Eh]
	 Same-Spin Energy          =      -0.1839123978655991 [Eh]
	 Opposite-Spin Energy      =      -0.6070154004628945 [Eh]
	 Correlation Energy        =      -0.7909277983284936 [Eh]
	 Total Energy              =    -191.6136736415732571 [Eh]

	 ================> DF-SCS-MP2 Energies <==================
	-----------------------------------------------------------
	 SCS Same-Spin Scale       =       0.3333333333333333 [-]
	 SCS Opposite-Spin Scale   =       1.2000000000000000 [-]
	 SCS Same-Spin Energy      =      -0.0613041326218664 [Eh]
	 SCS Opposite-Spin Energy  =      -0.7284184805554733 [Eh]
	 SCS Correlation Energy    =      -0.7897226131773397 [Eh]
	 SCS Total Energy          =    -191.6124684564221070 [Eh]
	-----------------------------------------------------------

  Dipole Moment: [D]
     X:    -3.1707      Y:     0.6089      Z:     0.0003     Total:     3.2286

*** Psi4 exiting successfully. Buy a developer a beer!
