                               Psi4 1.3.2 release

  ==> Input File <==

--------------------------------------------------------------------------
#psi4
#
memory 32 gb

molecule  {
0 1
  O        1.8013450    -0.1222670    -0.0001450
  C       -0.5750411    -0.4303983    -0.0000108
  C        0.6707050     0.3546130    -0.0000040
  C       -1.7652780     0.1406350     0.0001500
  H       -0.4438600    -1.5324100    -0.0001440
  H        0.5134400     1.4540710     0.0000460
  H       -2.6894370    -0.4270490     0.0001690
  H       -1.8565530     1.2241520     0.0002830
units angstrom
no_reorient  #important for SAPT in psi4, default
symmetry c1  #important for SAPT in psi4, default
}

set PROPERTIES_ORIGIN ["COM"]
properties('MP2/aug-cc-pvtz', properties = ['dipole'])
--------------------------------------------------------------------------

    Molecular point group: c1
  Charge       = 0
  Multiplicity = 1
  Basis Set: AUG-CC-PVTZ
    Blend: AUG-CC-PVTZ
  Basis Set: (AUG-CC-PVTZ AUX)
    Blend: AUG-CC-PVTZ-JKFIT

    Orbital Energies [Eh]
    ---------------------

    Doubly Occupied:

       1A    -20.561732     2A    -11.341197     3A    -11.271658
       4A    -11.259587     5A     -1.383876     6A     -1.094550
       7A     -0.891136     8A     -0.784791     9A     -0.674205
      10A     -0.666257    11A     -0.607464    12A     -0.553838
      13A     -0.539704    14A     -0.434279    15A     -0.406109

  @DF-RHF Final Energy:  -190.83313949002871

   => Energetics <=

    Nuclear Repulsion Energy =            102.7643694800033813
    One-Electron Energy =                -462.2542533691484437
    Two-Electron Energy =                 168.6567443991163486
    Total Energy =                       -190.8331394900287137
  Basis Set: (AUG-CC-PVTZ AUX)
    Blend: AUG-CC-PVTZ-RI
    Molecular point group: c1

    Geometry (in Angstrom), charge = 0, multiplicity = 1:

       Center              X                  Y                   Z               Mass
    ------------   -----------------  -----------------  -----------------  -----------------
         O            1.725210064916    -0.114180330637    -0.000138929760    15.994914619570
         C           -0.651176035084    -0.422311630637    -0.000004729760    12.000000000000
         C            0.594570064916     0.362699669363     0.000002070240    12.000000000000
         C           -1.841412935084     0.148721669363     0.000156070240    12.000000000000
         H           -0.519994935084    -1.524323330637    -0.000137929760     1.007825032230
         H            0.437305064916     1.462157669363     0.000052070240     1.007825032230
         H           -2.765571935084    -0.418962330637     0.000175070240     1.007825032230
         H           -1.932687935084     1.232238669363     0.000289070240     1.007825032230

  Basis Set: AUG-CC-PVTZ
    Blend: AUG-CC-PVTZ
  Basis Set: (AUG-CC-PVTZ AUX)
    Blend: AUG-CC-PVTZ-JKFIT
	 Reference Energy          =    -190.8331394900287137 [Eh]
	 Singles Energy            =      -0.0000000000000000 [Eh]
	 Same-Spin Energy          =      -0.1836602967252046 [Eh]
	 Opposite-Spin Energy      =      -0.6059459453445268 [Eh]
	 Correlation Energy        =      -0.7896062420697314 [Eh]
	 Total Energy              =    -191.6227457320984513 [Eh]

	 ================> DF-SCS-MP2 Energies <==================
	-----------------------------------------------------------
	 SCS Same-Spin Scale       =       0.3333333333333333 [-]
	 SCS Opposite-Spin Scale   =       1.2000000000000000 [-]
	 SCS Same-Spin Energy      =      -0.0612200989084015 [Eh]
	 SCS Opposite-Spin Energy  =      -0.7271351344134321 [Eh]
	 SCS Correlation Energy    =      -0.7883552333218337 [Eh]
	 SCS Total Energy          =    -191.6214947233505370 [Eh]
	-----------------------------------------------------------

  Dipole Moment: [D]
     X:    -3.1949      Y:     0.6644      Z:     0.0003     Total:     3.2632

*** Psi4 exiting successfully. Buy a developer a beer!
