                               Psi4 1.4a3.dev225

  ==> Input File <==

--------------------------------------------------------------------------
#psi4
#
memory 32 gb

molecule  {
0 1
  O        1.8012870    -0.1222550    -0.0001540
  C       -0.5611720    -0.4521110    -0.0000010
  C        0.6288614     0.3272836    -0.0000203
  C       -1.7652280     0.1406020     0.0001560
  H       -0.4434470    -1.5324470    -0.0001170
  H        0.5133250     1.4540820     0.0000960
  H       -2.6895930    -0.4267550     0.0001780
  H       -1.8563190     1.2241470     0.0002720
units angstrom
no_reorient  #important for SAPT in psi4, default
symmetry c1  #important for SAPT in psi4, default
}

set PROPERTIES_ORIGIN ["COM"]
properties('MP2/aug-cc-pvtz', properties = ['dipole'])
--------------------------------------------------------------------------

    Molecular point group: c1
  Charge       = 0
  Multiplicity = 1
  Basis Set: AUG-CC-PVTZ
    Blend: AUG-CC-PVTZ
  Basis Set: (AUG-CC-PVTZ AUX)
    Blend: AUG-CC-PVTZ-JKFIT

    Orbital Energies [Eh]
    ---------------------

    Doubly Occupied:

       1A    -20.556367     2A    -11.340485     3A    -11.282233
       4A    -11.260873     5A     -1.362697     6A     -1.100773
       7A     -0.900045     8A     -0.786040     9A     -0.672223
      10A     -0.667647    11A     -0.594133    12A     -0.563941
      13A     -0.531201    14A     -0.434613    15A     -0.401331

  @DF-RHF Final Energy:  -190.82639353566938

   => Energetics <=

    Nuclear Repulsion Energy =            102.7289909416167433
    One-Electron Energy =                -462.2015635251652839
    Two-Electron Energy =                 168.6461790478791443
    Total Energy =                       -190.8263935356693821
  Basis Set: (AUG-CC-PVTZ AUX)
    Blend: AUG-CC-PVTZ-RI
    Molecular point group: c1

    Geometry (in Angstrom), charge = 0, multiplicity = 1:

       Center              X                  Y                   Z               Mass
    ------------   -----------------  -----------------  -----------------  -----------------
         O            1.731142881257    -0.103665315117    -0.000146602393    15.994914619570
         C           -0.631316118743    -0.433521315117     0.000006397607    12.000000000000
         C            0.558717281257     0.345873284883    -0.000012902393    12.000000000000
         C           -1.835372118743     0.159191684883     0.000163397607    12.000000000000
         H           -0.513591118743    -1.513857315117    -0.000109602393     1.007825032230
         H            0.443180881257     1.472671684883     0.000103397607     1.007825032230
         H           -2.759737118743    -0.408165315117     0.000185397607     1.007825032230
         H           -1.926463118743     1.242736684883     0.000279397607     1.007825032230

  Basis Set: AUG-CC-PVTZ
    Blend: AUG-CC-PVTZ
  Basis Set: (AUG-CC-PVTZ AUX)
    Blend: AUG-CC-PVTZ-JKFIT
	 Reference Energy          =    -190.8263935356693821 [Eh]
	 Singles Energy            =      -0.0000000000000000 [Eh]
	 Same-Spin Energy          =      -0.1850904611349153 [Eh]
	 Opposite-Spin Energy      =      -0.6087071255865413 [Eh]
	 Correlation Energy        =      -0.7937975867214566 [Eh]
	 Total Energy              =    -191.6201911223908496 [Eh]

	 ================> DF-SCS-MP2 Energies <==================
	-----------------------------------------------------------
	 SCS Same-Spin Scale       =       0.3333333333333333 [-]
	 SCS Opposite-Spin Scale   =       1.2000000000000000 [-]
	 SCS Same-Spin Energy      =      -0.0616968203783051 [Eh]
	 SCS Opposite-Spin Energy  =      -0.7304485507038495 [Eh]
	 SCS Correlation Energy    =      -0.7921453710821545 [Eh]
	 SCS Total Energy          =    -191.6185389067515246 [Eh]
	-----------------------------------------------------------

  Dipole Moment: [D]
     X:    -3.4753      Y:     0.5849      Z:     0.0003     Total:     3.5242

*** Psi4 exiting successfully. Buy a developer a beer!
