                               Psi4 1.3.2 release

  ==> Input File <==

--------------------------------------------------------------------------
#psi4
#
memory 32 gb

molecule  {
0 1
  O        1.8094955    -0.1024620    -0.0001453
  C       -0.5611510    -0.4520200    -0.0000120
  C        0.6707050     0.3546130    -0.0000040
  C       -1.7652780     0.1406350     0.0001500
  H       -0.4438600    -1.5324100    -0.0001440
  H        0.5134400     1.4540710     0.0000460
  H       -2.6894370    -0.4270490     0.0001690
  H       -1.8565530     1.2241520     0.0002830
units angstrom
no_reorient  #important for SAPT in psi4, default
symmetry c1  #important for SAPT in psi4, default
}

set PROPERTIES_ORIGIN ["COM"]
properties('MP2/aug-cc-pvtz', properties = ['dipole'])
--------------------------------------------------------------------------

    Molecular point group: c1
  Charge       = 0
  Multiplicity = 1
  Basis Set: AUG-CC-PVTZ
    Blend: AUG-CC-PVTZ
  Basis Set: (AUG-CC-PVTZ AUX)
    Blend: AUG-CC-PVTZ-JKFIT

    Orbital Energies [Eh]
    ---------------------

    Doubly Occupied:

       1A    -20.560061     2A    -11.340340     3A    -11.275963
       4A    -11.261531     5A     -1.382876     6A     -1.090068
       7A     -0.889961     8A     -0.788463     9A     -0.671914
      10A     -0.666875    11A     -0.604052    12A     -0.561539
      13A     -0.538520    14A     -0.433864    15A     -0.401422

  @DF-RHF Final Energy:  -190.83342751412434

   => Energetics <=

    Nuclear Repulsion Energy =            102.5372910136341744
    One-Electron Energy =                -461.8065447347747750
    Two-Electron Energy =                 168.4358262070162766
    Total Energy =                       -190.8334275141243381
  Basis Set: (AUG-CC-PVTZ AUX)
    Blend: AUG-CC-PVTZ-RI
    Molecular point group: c1

    Geometry (in Angstrom), charge = 0, multiplicity = 1:

       Center              X                  Y                   Z               Mass
    ------------   -----------------  -----------------  -----------------  -----------------
         O            1.728058622728    -0.095398403217    -0.000138887091    15.994914619570
         C           -0.642587877272    -0.444956403217    -0.000005587091    12.000000000000
         C            0.589268122728     0.361676596783     0.000002412909    12.000000000000
         C           -1.846714877272     0.147698596783     0.000156412909    12.000000000000
         H           -0.525296877272    -1.525346403217    -0.000137587091     1.007825032230
         H            0.432003122728     1.461134596783     0.000052412909     1.007825032230
         H           -2.770873877272    -0.419985403217     0.000175412909     1.007825032230
         H           -1.937989877272     1.231215596783     0.000289412909     1.007825032230

  Basis Set: AUG-CC-PVTZ
    Blend: AUG-CC-PVTZ
  Basis Set: (AUG-CC-PVTZ AUX)
    Blend: AUG-CC-PVTZ-JKFIT
	 Reference Energy          =    -190.8334275141243381 [Eh]
	 Singles Energy            =      -0.0000000000000000 [Eh]
	 Same-Spin Energy          =      -0.1837429917013371 [Eh]
	 Opposite-Spin Energy      =      -0.6063207241141852 [Eh]
	 Correlation Energy        =      -0.7900637158155224 [Eh]
	 Total Energy              =    -191.6234912299398729 [Eh]

	 ================> DF-SCS-MP2 Energies <==================
	-----------------------------------------------------------
	 SCS Same-Spin Scale       =       0.3333333333333333 [-]
	 SCS Opposite-Spin Scale   =       1.2000000000000000 [-]
	 SCS Same-Spin Energy      =      -0.0612476639004457 [Eh]
	 SCS Opposite-Spin Energy  =      -0.7275848689370222 [Eh]
	 SCS Correlation Energy    =      -0.7888325328374679 [Eh]
	 SCS Total Energy          =    -191.6222600469617987 [Eh]
	-----------------------------------------------------------

  Dipole Moment: [D]
     X:    -3.2332      Y:     0.6184      Z:     0.0003     Total:     3.2919

*** Psi4 exiting successfully. Buy a developer a beer!
