                               Psi4 1.3.2 release

  ==> Input File <==

--------------------------------------------------------------------------
#psi4
#
memory 32 gb

molecule  {
0 1
  O        1.8013450    -0.1222670    -0.0001450
  C       -0.5611510    -0.4520200    -0.0000120
  C        0.5796407     0.4789582     0.0000165
  C       -1.7652780     0.1406350     0.0001500
  H       -0.4438600    -1.5324100    -0.0001440
  H        0.5134400     1.4540710     0.0000460
  H       -2.6894370    -0.4270490     0.0001690
  H       -1.8565530     1.2241520     0.0002830
units angstrom
no_reorient  #important for SAPT in psi4, default
symmetry c1  #important for SAPT in psi4, default
}

set PROPERTIES_ORIGIN ["COM"]
properties('MP2/aug-cc-pvtz', properties = ['dipole'])
--------------------------------------------------------------------------

    Molecular point group: c1
  Charge       = 0
  Multiplicity = 1
  Basis Set: AUG-CC-PVTZ
    Blend: AUG-CC-PVTZ
  Basis Set: (AUG-CC-PVTZ AUX)
    Blend: AUG-CC-PVTZ-JKFIT

    Orbital Energies [Eh]
    ---------------------

    Doubly Occupied:

       1A    -20.554688     2A    -11.347664     3A    -11.278338
       4A    -11.269318     5A     -1.304803     6A     -1.097783
       7A     -0.905631     8A     -0.818024     9A     -0.681075
      10A     -0.658628    11A     -0.578874    12A     -0.556782
      13A     -0.499980    14A     -0.440902    15A     -0.391782

  @DF-RHF Final Energy:  -190.78426730173356

   => Energetics <=

    Nuclear Repulsion Energy =            101.2284700579966170
    One-Electron Energy =                -459.2569347532637494
    Two-Electron Energy =                 167.2441973935335682
    Total Energy =                       -190.7842673017335642
  Basis Set: (AUG-CC-PVTZ AUX)
    Blend: AUG-CC-PVTZ-RI
    Molecular point group: c1

    Geometry (in Angstrom), charge = 0, multiplicity = 1:

       Center              X                  Y                   Z               Mass
    ------------   -----------------  -----------------  -----------------  -----------------
         O            1.741739655647    -0.136182209678    -0.000143063539    15.994914619570
         C           -0.620756344353    -0.465935209678    -0.000010063539    12.000000000000
         C            0.520035355647     0.465042990322     0.000018436461    12.000000000000
         C           -1.824883344353     0.126719790322     0.000151936461    12.000000000000
         H           -0.503465344353    -1.546325209678    -0.000142063539     1.007825032230
         H            0.453834655647     1.440155790322     0.000047936461     1.007825032230
         H           -2.749042344353    -0.440964209678     0.000170936461     1.007825032230
         H           -1.916158344353     1.210236790322     0.000284936461     1.007825032230

  Basis Set: AUG-CC-PVTZ
    Blend: AUG-CC-PVTZ
  Basis Set: (AUG-CC-PVTZ AUX)
    Blend: AUG-CC-PVTZ-JKFIT
	 Reference Energy          =    -190.7842673017335642 [Eh]
	 Singles Energy            =      -0.0000000000000000 [Eh]
	 Same-Spin Energy          =      -0.1876484397513180 [Eh]
	 Opposite-Spin Energy      =      -0.6161184999975459 [Eh]
	 Correlation Energy        =      -0.8037669397488638 [Eh]
	 Total Energy              =    -191.5880342414824327 [Eh]

	 ================> DF-SCS-MP2 Energies <==================
	-----------------------------------------------------------
	 SCS Same-Spin Scale       =       0.3333333333333333 [-]
	 SCS Opposite-Spin Scale   =       1.2000000000000000 [-]
	 SCS Same-Spin Energy      =      -0.0625494799171060 [Eh]
	 SCS Opposite-Spin Energy  =      -0.7393421999970550 [Eh]
	 SCS Correlation Energy    =      -0.8018916799141610 [Eh]
	 SCS Total Energy          =    -191.5861589816477135 [Eh]
	-----------------------------------------------------------

  Dipole Moment: [D]
     X:    -3.4743      Y:     0.9058      Z:     0.0003     Total:     3.5904

*** Psi4 exiting successfully. Buy a developer a beer!
