                               Psi4 1.4a3.dev225

  ==> Input File <==

--------------------------------------------------------------------------
#psi4
#
memory 32 gb

molecule  {
0 1
  O        1.8012870    -0.1222550    -0.0001540
  C       -0.5611720    -0.4521110    -0.0000010
  C        0.6706890     0.3546780    -0.0000210
  C       -1.7652280     0.1406020     0.0001560
  H       -0.4434470    -1.5324470    -0.0001170
  H        0.5104912     1.4738802     0.0000981
  H       -2.6895930    -0.4267550     0.0001780
  H       -1.8563190     1.2241470     0.0002720
units angstrom
no_reorient  #important for SAPT in psi4, default
symmetry c1  #important for SAPT in psi4, default
}

set PROPERTIES_ORIGIN ["COM"]
properties('MP2/aug-cc-pvtz', properties = ['dipole'])
--------------------------------------------------------------------------

    Molecular point group: c1
  Charge       = 0
  Multiplicity = 1
  Basis Set: AUG-CC-PVTZ
    Blend: AUG-CC-PVTZ
  Basis Set: (AUG-CC-PVTZ AUX)
    Blend: AUG-CC-PVTZ-JKFIT

    Orbital Energies [Eh]
    ---------------------

    Doubly Occupied:

       1A    -20.560661     2A    -11.342803     3A    -11.275386
       4A    -11.261149     5A     -1.383467     6A     -1.089429
       7A     -0.888619     8A     -0.785863     9A     -0.671799
      10A     -0.665447    11A     -0.603499    12A     -0.561090
      13A     -0.539067    14A     -0.433561    15A     -0.401036

  @DF-RHF Final Energy:  -190.83277636284322

   => Energetics <=

    Nuclear Repulsion Energy =            102.5190334816251578
    One-Electron Energy =                -461.7778693253890197
    Two-Electron Energy =                 168.4260594809206282
    Total Energy =                       -190.8327763628432194
  Basis Set: (AUG-CC-PVTZ AUX)
    Blend: AUG-CC-PVTZ-RI
    Molecular point group: c1

    Geometry (in Angstrom), charge = 0, multiplicity = 1:

       Center              X                  Y                   Z               Mass
    ------------   -----------------  -----------------  -----------------  -----------------
         O            1.722234993625    -0.109888936026    -0.000146490239    15.994914619570
         C           -0.640224006375    -0.439744936026     0.000006509761    12.000000000000
         C            0.591636993625     0.367044063974    -0.000013490239    12.000000000000
         C           -1.844280006375     0.152968063974     0.000163509761    12.000000000000
         H           -0.522499006375    -1.520080936026    -0.000109490239     1.007825032230
         H            0.431439193625     1.486246263974     0.000105609761     1.007825032230
         H           -2.768645006375    -0.414388936026     0.000185509761     1.007825032230
         H           -1.935371006375     1.236513063974     0.000279509761     1.007825032230

  Basis Set: AUG-CC-PVTZ
    Blend: AUG-CC-PVTZ
  Basis Set: (AUG-CC-PVTZ AUX)
    Blend: AUG-CC-PVTZ-JKFIT
	 Reference Energy          =    -190.8327763628432194 [Eh]
	 Singles Energy            =      -0.0000000000000000 [Eh]
	 Same-Spin Energy          =      -0.1838417729378719 [Eh]
	 Opposite-Spin Energy      =      -0.6064886793753421 [Eh]
	 Correlation Energy        =      -0.7903304523132140 [Eh]
	 Total Energy              =    -191.6231068151564330 [Eh]

	 ================> DF-SCS-MP2 Energies <==================
	-----------------------------------------------------------
	 SCS Same-Spin Scale       =       0.3333333333333333 [-]
	 SCS Opposite-Spin Scale   =       1.2000000000000000 [-]
	 SCS Same-Spin Energy      =      -0.0612805909792906 [Eh]
	 SCS Opposite-Spin Energy  =      -0.7277864152504105 [Eh]
	 SCS Correlation Energy    =      -0.7890670062297012 [Eh]
	 SCS Total Energy          =    -191.6218433690729341 [Eh]
	-----------------------------------------------------------

  Dipole Moment: [D]
     X:    -3.2020      Y:     0.6367      Z:     0.0003     Total:     3.2647

*** Psi4 exiting successfully. Buy a developer a beer!
