                               Psi4 1.3.2 release

  ==> Input File <==

--------------------------------------------------------------------------
#psi4
#
memory 32 gb

molecule  {
0 1
  O        1.8013450    -0.1222670    -0.0001450
  C       -0.5611510    -0.4520200    -0.0000120
  C        0.4864258     0.4323381     0.0000190
  C       -1.7652780     0.1406350     0.0001500
  H       -0.4438600    -1.5324100    -0.0001440
  H        0.5134400     1.4540710     0.0000460
  H       -2.6894370    -0.4270490     0.0001690
  H       -1.8565530     1.2241520     0.0002830
units angstrom
no_reorient  #important for SAPT in psi4, default
symmetry c1  #important for SAPT in psi4, default
}

set PROPERTIES_ORIGIN ["COM"]
properties('MP2/aug-cc-pvtz', properties = ['dipole'])
--------------------------------------------------------------------------

    Molecular point group: c1
  Charge       = 0
  Multiplicity = 1
  Basis Set: AUG-CC-PVTZ
    Blend: AUG-CC-PVTZ
  Basis Set: (AUG-CC-PVTZ AUX)
    Blend: AUG-CC-PVTZ-JKFIT

    Orbital Energies [Eh]
    ---------------------

    Doubly Occupied:

       1A    -20.542700     2A    -11.345141     3A    -11.293758
       4A    -11.267726     5A     -1.270517     6A     -1.121287
       7A     -0.915035     8A     -0.816404     9A     -0.690823
      10A     -0.666640    11A     -0.580139    12A     -0.534492
      13A     -0.500209    14A     -0.433344    15A     -0.382531

  @DF-RHF Final Energy:  -190.76085494996275

   => Energetics <=

    Nuclear Repulsion Energy =            101.6582022948425390
    One-Electron Energy =                -460.1166194431413032
    Two-Electron Energy =                 167.6975621983359872
    Total Energy =                       -190.7608549499627486
  Basis Set: (AUG-CC-PVTZ AUX)
    Blend: AUG-CC-PVTZ-RI
    Molecular point group: c1

    Geometry (in Angstrom), charge = 0, multiplicity = 1:

       Center              X                  Y                   Z               Mass
    ------------   -----------------  -----------------  -----------------  -----------------
         O            1.761704930921    -0.126196862595    -0.000143599003    15.994914619570
         C           -0.600791069079    -0.455949862595    -0.000010599003    12.000000000000
         C            0.446785730921     0.428408237405     0.000020400997    12.000000000000
         C           -1.804918069079     0.136705137405     0.000151400997    12.000000000000
         H           -0.483500069079    -1.536339862595    -0.000142599003     1.007825032230
         H            0.473799930921     1.450141137405     0.000047400997     1.007825032230
         H           -2.729077069079    -0.430978862595     0.000170400997     1.007825032230
         H           -1.896193069079     1.220222137405     0.000284400997     1.007825032230

  Basis Set: AUG-CC-PVTZ
    Blend: AUG-CC-PVTZ
  Basis Set: (AUG-CC-PVTZ AUX)
    Blend: AUG-CC-PVTZ-JKFIT
	 Reference Energy          =    -190.7608549499627486 [Eh]
	 Singles Energy            =      -0.0000000000000000 [Eh]
	 Same-Spin Energy          =      -0.1911752964749421 [Eh]
	 Opposite-Spin Energy      =      -0.6219274732833640 [Eh]
	 Correlation Energy        =      -0.8131027697583060 [Eh]
	 Total Energy              =    -191.5739577197210508 [Eh]

	 ================> DF-SCS-MP2 Energies <==================
	-----------------------------------------------------------
	 SCS Same-Spin Scale       =       0.3333333333333333 [-]
	 SCS Opposite-Spin Scale   =       1.2000000000000000 [-]
	 SCS Same-Spin Energy      =      -0.0637250988249807 [Eh]
	 SCS Opposite-Spin Energy  =      -0.7463129679400368 [Eh]
	 SCS Correlation Energy    =      -0.8100380667650174 [Eh]
	 SCS Total Energy          =    -191.5708930167277799 [Eh]
	-----------------------------------------------------------

  Dipole Moment: [D]
     X:    -3.8041      Y:     0.7531      Z:     0.0003     Total:     3.8780

*** Psi4 exiting successfully. Buy a developer a beer!
