                               Psi4 1.3.2 release

  ==> Input File <==

--------------------------------------------------------------------------
#psi4
#
memory 32 gb

molecule  {
0 1
  O        1.8172991    -0.0825177    -0.0001456
  C       -0.5611510    -0.4520200    -0.0000120
  C        0.6707050     0.3546130    -0.0000040
  C       -1.7652780     0.1406350     0.0001500
  H       -0.4438600    -1.5324100    -0.0001440
  H        0.5134400     1.4540710     0.0000460
  H       -2.6894370    -0.4270490     0.0001690
  H       -1.8565530     1.2241520     0.0002830
units angstrom
no_reorient  #important for SAPT in psi4, default
symmetry c1  #important for SAPT in psi4, default
}

set PROPERTIES_ORIGIN ["COM"]
properties('MP2/aug-cc-pvtz', properties = ['dipole'])
--------------------------------------------------------------------------

    Molecular point group: c1
  Charge       = 0
  Multiplicity = 1
  Basis Set: AUG-CC-PVTZ
    Blend: AUG-CC-PVTZ
  Basis Set: (AUG-CC-PVTZ AUX)
    Blend: AUG-CC-PVTZ-JKFIT

    Orbital Energies [Eh]
    ---------------------

    Doubly Occupied:

       1A    -20.559955     2A    -11.340179     3A    -11.276675
       4A    -11.262253     5A     -1.382629     6A     -1.090670
       7A     -0.890293     8A     -0.788248     9A     -0.671976
      10A     -0.667188    11A     -0.604022    12A     -0.562102
      13A     -0.538343    14A     -0.433346    15A     -0.401999

  @DF-RHF Final Energy:  -190.83324248217951

   => Energetics <=

    Nuclear Repulsion Energy =            102.4756604131450359
    One-Electron Energy =                -461.6780480406226843
    Two-Electron Energy =                 168.3691451452981482
    Total Energy =                       -190.8332424821795144
  Basis Set: (AUG-CC-PVTZ AUX)
    Blend: AUG-CC-PVTZ-RI
    Molecular point group: c1

    Geometry (in Angstrom), charge = 0, multiplicity = 1:

       Center              X                  Y                   Z               Mass
    ------------   -----------------  -----------------  -----------------  -----------------
         O            1.733634374278    -0.081147998067    -0.000139101444    15.994914619570
         C           -0.644815725722    -0.450650298067    -0.000005501444    12.000000000000
         C            0.587040274278     0.355982701933     0.000002498556    12.000000000000
         C           -1.848942725722     0.142004701933     0.000156498556    12.000000000000
         H           -0.527524725722    -1.531040298067    -0.000137501444     1.007825032230
         H            0.429775274278     1.455440701933     0.000052498556     1.007825032230
         H           -2.773101725722    -0.425679298067     0.000175498556     1.007825032230
         H           -1.940217725722     1.225521701933     0.000289498556     1.007825032230

  Basis Set: AUG-CC-PVTZ
    Blend: AUG-CC-PVTZ
  Basis Set: (AUG-CC-PVTZ AUX)
    Blend: AUG-CC-PVTZ-JKFIT
	 Reference Energy          =    -190.8332424821795144 [Eh]
	 Singles Energy            =      -0.0000000000000000 [Eh]
	 Same-Spin Energy          =      -0.1837399287761709 [Eh]
	 Opposite-Spin Energy      =      -0.6063397466688090 [Eh]
	 Correlation Energy        =      -0.7900796754449799 [Eh]
	 Total Energy              =    -191.6233221576245001 [Eh]

	 ================> DF-SCS-MP2 Energies <==================
	-----------------------------------------------------------
	 SCS Same-Spin Scale       =       0.3333333333333333 [-]
	 SCS Opposite-Spin Scale   =       1.2000000000000000 [-]
	 SCS Same-Spin Energy      =      -0.0612466429253903 [Eh]
	 SCS Opposite-Spin Energy  =      -0.7276076960025707 [Eh]
	 SCS Correlation Energy    =      -0.7888543389279610 [Eh]
	 SCS Total Energy          =    -191.6220968211074762 [Eh]
	-----------------------------------------------------------

  Dipole Moment: [D]
     X:    -3.2601      Y:     0.5774      Z:     0.0003     Total:     3.3108

*** Psi4 exiting successfully. Buy a developer a beer!
