                               Psi4 1.3.2 release

  ==> Input File <==

--------------------------------------------------------------------------
#psi4
#
memory 32 gb

molecule  {
0 1
  O        1.8013450    -0.1222670    -0.0001450
  C       -0.5611510    -0.4520200    -0.0000120
  C        0.6707050     0.3546130    -0.0000040
  C       -1.7652780     0.1406350     0.0001500
  H       -0.4438600    -1.5324100    -0.0001440
  H        0.4851205     1.6520559     0.0000550
  H       -2.6894370    -0.4270490     0.0001690
  H       -1.8565530     1.2241520     0.0002830
units angstrom
no_reorient  #important for SAPT in psi4, default
symmetry c1  #important for SAPT in psi4, default
}

set PROPERTIES_ORIGIN ["COM"]
properties('MP2/aug-cc-pvtz', properties = ['dipole'])
--------------------------------------------------------------------------

    Molecular point group: c1
  Charge       = 0
  Multiplicity = 1
  Basis Set: AUG-CC-PVTZ
    Blend: AUG-CC-PVTZ
  Basis Set: (AUG-CC-PVTZ AUX)
    Blend: AUG-CC-PVTZ-JKFIT

    Orbital Energies [Eh]
    ---------------------

    Doubly Occupied:

       1A    -20.566481     2A    -11.362056     3A    -11.277317
       4A    -11.264874     5A     -1.387453     6A     -1.090249
       7A     -0.884668     8A     -0.766737     9A     -0.673752
      10A     -0.654977    11A     -0.595948    12A     -0.562710
      13A     -0.543228    14A     -0.424983    15A     -0.403299

  @DF-RHF Final Energy:  -190.81295113721512

   => Energetics <=

    Nuclear Repulsion Energy =            101.8536245253544905
    One-Electron Energy =                -460.4156866456571038
    Two-Electron Energy =                 167.7491109830874620
    Total Energy =                       -190.8129511372151228
  Basis Set: (AUG-CC-PVTZ AUX)
    Blend: AUG-CC-PVTZ-RI
    Molecular point group: c1

    Geometry (in Angstrom), charge = 0, multiplicity = 1:

       Center              X                  Y                   Z               Mass
    ------------   -----------------  -----------------  -----------------  -----------------
         O            1.722744431648    -0.113110719527    -0.000138834634    15.994914619570
         C           -0.639751568352    -0.442863719527    -0.000005834634    12.000000000000
         C            0.592104431648     0.363769280473     0.000002165366    12.000000000000
         C           -1.843878568352     0.149791280473     0.000156165366    12.000000000000
         H           -0.522460568352    -1.523253719527    -0.000137834634     1.007825032230
         H            0.406519931648     1.661212180473     0.000061165366     1.007825032230
         H           -2.768037568352    -0.417892719527     0.000175165366     1.007825032230
         H           -1.935153568352     1.233308280473     0.000289165366     1.007825032230

  Basis Set: AUG-CC-PVTZ
    Blend: AUG-CC-PVTZ
  Basis Set: (AUG-CC-PVTZ AUX)
    Blend: AUG-CC-PVTZ-JKFIT
	 Reference Energy          =    -190.8129511372151228 [Eh]
	 Singles Energy            =      -0.0000000000000000 [Eh]
	 Same-Spin Energy          =      -0.1848743018601346 [Eh]
	 Opposite-Spin Energy      =      -0.6089555217776231 [Eh]
	 Correlation Energy        =      -0.7938298236377577 [Eh]
	 Total Energy              =    -191.6067809608528876 [Eh]

	 ================> DF-SCS-MP2 Energies <==================
	-----------------------------------------------------------
	 SCS Same-Spin Scale       =       0.3333333333333333 [-]
	 SCS Opposite-Spin Scale   =       1.2000000000000000 [-]
	 SCS Same-Spin Energy      =      -0.0616247672867115 [Eh]
	 SCS Opposite-Spin Energy  =      -0.7307466261331478 [Eh]
	 SCS Correlation Energy    =      -0.7923713934198593 [Eh]
	 SCS Total Energy          =    -191.6053225306349930 [Eh]
	-----------------------------------------------------------

  Dipole Moment: [D]
     X:    -3.1707      Y:     0.3727      Z:     0.0003     Total:     3.1926

*** Psi4 exiting successfully. Buy a developer a beer!
