                               Psi4 1.4a3.dev225

  ==> Input File <==

--------------------------------------------------------------------------
#psi4
#
memory 32 gb

molecule  {
0 1
  O        1.8012870    -0.1222550    -0.0001540
  C       -0.5611720    -0.4521110    -0.0000010
  C        0.6706890     0.3546780    -0.0000210
  C       -1.7652280     0.1406020     0.0001560
  H       -0.4412804    -1.5523293    -0.0001191
  H        0.5133250     1.4540820     0.0000960
  H       -2.6895930    -0.4267550     0.0001780
  H       -1.8563190     1.2241470     0.0002720
units angstrom
no_reorient  #important for SAPT in psi4, default
symmetry c1  #important for SAPT in psi4, default
}

set PROPERTIES_ORIGIN ["COM"]
properties('MP2/aug-cc-pvtz', properties = ['dipole'])
--------------------------------------------------------------------------

    Molecular point group: c1
  Charge       = 0
  Multiplicity = 1
  Basis Set: AUG-CC-PVTZ
    Blend: AUG-CC-PVTZ
  Basis Set: (AUG-CC-PVTZ AUX)
    Blend: AUG-CC-PVTZ-JKFIT

    Orbital Energies [Eh]
    ---------------------

    Doubly Occupied:

       1A    -20.560224     2A    -11.340688     3A    -11.275302
       4A    -11.262954     5A     -1.383190     6A     -1.088848
       7A     -0.889545     8A     -0.786183     9A     -0.671737
      10A     -0.665776    11A     -0.603632    12A     -0.558522
      13A     -0.538755    14A     -0.434375    15A     -0.400889

  @DF-RHF Final Energy:  -190.83285697495211

   => Energetics <=

    Nuclear Repulsion Energy =            102.5187647002672975
    One-Electron Energy =                -461.7820033305293919
    Two-Electron Energy =                 168.4303816553099864
    Total Energy =                       -190.8328569749521080
  Basis Set: (AUG-CC-PVTZ AUX)
    Blend: AUG-CC-PVTZ-RI
    Molecular point group: c1

    Geometry (in Angstrom), charge = 0, multiplicity = 1:

       Center              X                  Y                   Z               Mass
    ------------   -----------------  -----------------  -----------------  -----------------
         O            1.722145044156    -0.109175145145    -0.000146414688    15.994914619570
         C           -0.640313955844    -0.439031145145     0.000006585312    12.000000000000
         C            0.591547044156     0.367757854855    -0.000013414688    12.000000000000
         C           -1.844369955844     0.153681854855     0.000163585312    12.000000000000
         H           -0.520422355844    -1.539249445145    -0.000111514688     1.007825032230
         H            0.434183044156     1.467161854855     0.000103585312     1.007825032230
         H           -2.768734955844    -0.413675145145     0.000185585312     1.007825032230
         H           -1.935460955844     1.237226854855     0.000279585312     1.007825032230

  Basis Set: AUG-CC-PVTZ
    Blend: AUG-CC-PVTZ
  Basis Set: (AUG-CC-PVTZ AUX)
    Blend: AUG-CC-PVTZ-JKFIT
	 Reference Energy          =    -190.8328569749521080 [Eh]
	 Singles Energy            =      -0.0000000000000000 [Eh]
	 Same-Spin Energy          =      -0.1837868526285643 [Eh]
	 Opposite-Spin Energy      =      -0.6064170532787972 [Eh]
	 Correlation Energy        =      -0.7902039059073616 [Eh]
	 Total Energy              =    -191.6230608808594695 [Eh]

	 ================> DF-SCS-MP2 Energies <==================
	-----------------------------------------------------------
	 SCS Same-Spin Scale       =       0.3333333333333333 [-]
	 SCS Opposite-Spin Scale   =       1.2000000000000000 [-]
	 SCS Same-Spin Energy      =      -0.0612622842095214 [Eh]
	 SCS Opposite-Spin Energy  =      -0.7277004639345567 [Eh]
	 SCS Correlation Energy    =      -0.7889627481440781 [Eh]
	 SCS Total Energy          =    -191.6218197230961948 [Eh]
	-----------------------------------------------------------

  Dipole Moment: [D]
     X:    -3.2025      Y:     0.6619      Z:     0.0003     Total:     3.2702

*** Psi4 exiting successfully. Buy a developer a beer!
