                               Psi4 1.3.2 release

  ==> Input File <==

--------------------------------------------------------------------------
#psi4
#
memory 32 gb

molecule  {
0 1
  O        1.8013450    -0.1222670    -0.0001450
  C       -0.5611510    -0.4520200    -0.0000120
  C        0.6707050     0.3546130    -0.0000040
  C       -1.7652780     0.1406350     0.0001500
  H       -0.4438600    -1.5324100    -0.0001440
  H        0.5134400     1.4540710     0.0000460
  H       -2.6894370    -0.4270490     0.0001690
  H       -1.8565530     1.2241520     0.0002830
units angstrom
no_reorient  #important for SAPT in psi4, default
symmetry c1  #important for SAPT in psi4, default
}

set PROPERTIES_ORIGIN ["COM"]
properties('MP2/aug-cc-pvtz', properties = ['dipole'])
--------------------------------------------------------------------------

    Molecular point group: c1
  Charge       = 0
  Multiplicity = 1
  Basis Set: AUG-CC-PVTZ
    Blend: AUG-CC-PVTZ
  Basis Set: (AUG-CC-PVTZ AUX)
    Blend: AUG-CC-PVTZ-JKFIT

    Orbital Energies [Eh]
    ---------------------

    Doubly Occupied:

       1A    -20.560162     2A    -11.340505     3A    -11.275233
       4A    -11.260803     5A     -1.383144     6A     -1.089449
       7A     -0.889621     8A     -0.788678     9A     -0.671878
      10A     -0.666528    11A     -0.604081    12A     -0.560958
      13A     -0.538707    14A     -0.434317    15A     -0.400831

  @DF-RHF Final Energy:  -190.83347572526381

   => Energetics <=

    Nuclear Repulsion Energy =            102.6012972177492912
    One-Electron Energy =                -461.9397567698161424
    Two-Electron Energy =                 168.5049838268030555
    Total Energy =                       -190.8334757252638099
  Basis Set: (AUG-CC-PVTZ AUX)
    Blend: AUG-CC-PVTZ-RI
    Molecular point group: c1

    Geometry (in Angstrom), charge = 0, multiplicity = 1:

       Center              X                  Y                   Z               Mass
    ------------   -----------------  -----------------  -----------------  -----------------
         O            1.722235007602    -0.109549277100    -0.000138672738    15.994914619570
         C           -0.640260992398    -0.439302277100    -0.000005672738    12.000000000000
         C            0.591595007602     0.367330722900     0.000002327262    12.000000000000
         C           -1.844387992398     0.153352722900     0.000156327262    12.000000000000
         H           -0.522969992398    -1.519692277100    -0.000137672738     1.007825032230
         H            0.434330007602     1.466788722900     0.000052327262     1.007825032230
         H           -2.768546992398    -0.414331277100     0.000175327262     1.007825032230
         H           -1.935662992398     1.236869722900     0.000289327262     1.007825032230

  Basis Set: AUG-CC-PVTZ
    Blend: AUG-CC-PVTZ
  Basis Set: (AUG-CC-PVTZ AUX)
    Blend: AUG-CC-PVTZ-JKFIT
	 Reference Energy          =    -190.8334757252638099 [Eh]
	 Singles Energy            =      -0.0000000000000000 [Eh]
	 Same-Spin Energy          =      -0.1837500587927974 [Eh]
	 Opposite-Spin Energy      =      -0.6063101330566615 [Eh]
	 Correlation Energy        =      -0.7900601918494589 [Eh]
	 Total Energy              =    -191.6235359171132586 [Eh]

	 ================> DF-SCS-MP2 Energies <==================
	-----------------------------------------------------------
	 SCS Same-Spin Scale       =       0.3333333333333333 [-]
	 SCS Opposite-Spin Scale   =       1.2000000000000000 [-]
	 SCS Same-Spin Energy      =      -0.0612500195975991 [Eh]
	 SCS Opposite-Spin Energy  =      -0.7275721596679937 [Eh]
	 SCS Correlation Energy    =      -0.7888221792655928 [Eh]
	 SCS Total Energy          =    -191.6222979045294039 [Eh]
	-----------------------------------------------------------

  Dipole Moment: [D]
     X:    -3.2053      Y:     0.6591      Z:     0.0003     Total:     3.2724

*** Psi4 exiting successfully. Buy a developer a beer!
