                               Psi4 1.3.2 release

  ==> Input File <==

--------------------------------------------------------------------------
#psi4
#
memory 32 gb

molecule  {
0 1
  O        1.8013450    -0.1222670    -0.0001450
  C       -0.5611510    -0.4520200    -0.0000120
  C        0.6707050     0.3546130    -0.0000040
  C       -1.7652780     0.1406350     0.0001500
  H       -0.4438600    -1.5324100    -0.0001440
  H        0.4992803     1.5530634     0.0000505
  H       -2.6894370    -0.4270490     0.0001690
  H       -1.8565530     1.2241520     0.0002830
units angstrom
no_reorient  #important for SAPT in psi4, default
symmetry c1  #important for SAPT in psi4, default
}

set PROPERTIES_ORIGIN ["COM"]
properties('MP2/aug-cc-pvtz', properties = ['dipole'])
--------------------------------------------------------------------------

    Molecular point group: c1
  Charge       = 0
  Multiplicity = 1
  Basis Set: AUG-CC-PVTZ
    Blend: AUG-CC-PVTZ
  Basis Set: (AUG-CC-PVTZ AUX)
    Blend: AUG-CC-PVTZ-JKFIT

    Orbital Energies [Eh]
    ---------------------

    Doubly Occupied:

       1A    -20.562950     2A    -11.351698     3A    -11.276154
       4A    -11.262676     5A     -1.384968     6A     -1.089604
       7A     -0.885987     8A     -0.775898     9A     -0.672308
      10A     -0.660597    11A     -0.600591    12A     -0.561751
      13A     -0.540700    14A     -0.430187    15A     -0.401931

  @DF-RHF Final Energy:  -190.82638126548713

   => Energetics <=

    Nuclear Repulsion Energy =            102.2058711120511703
    One-Electron Energy =                -461.1485025726553886
    Two-Electron Energy =                 168.1162501951170896
    Total Energy =                       -190.8263812654871288
  Basis Set: (AUG-CC-PVTZ AUX)
    Blend: AUG-CC-PVTZ-RI
    Molecular point group: c1

    Geometry (in Angstrom), charge = 0, multiplicity = 1:

       Center              X                  Y                   Z               Mass
    ------------   -----------------  -----------------  -----------------  -----------------
         O            1.722489718725    -0.111329997414    -0.000138753686    15.994914619570
         C           -0.640006281275    -0.441082997414    -0.000005753686    12.000000000000
         C            0.591849718725     0.365550002586     0.000002246314    12.000000000000
         C           -1.844133281275     0.151572002586     0.000156246314    12.000000000000
         H           -0.522715281275    -1.521472997414    -0.000137753686     1.007825032230
         H            0.420425018725     1.564000402586     0.000056746314     1.007825032230
         H           -2.768292281275    -0.416111997414     0.000175246314     1.007825032230
         H           -1.935408281275     1.235089002586     0.000289246314     1.007825032230

  Basis Set: AUG-CC-PVTZ
    Blend: AUG-CC-PVTZ
  Basis Set: (AUG-CC-PVTZ AUX)
    Blend: AUG-CC-PVTZ-JKFIT
	 Reference Energy          =    -190.8263812654871288 [Eh]
	 Singles Energy            =      -0.0000000000000000 [Eh]
	 Same-Spin Energy          =      -0.1842620675840994 [Eh]
	 Opposite-Spin Energy      =      -0.6074133779832528 [Eh]
	 Correlation Energy        =      -0.7916754455673521 [Eh]
	 Total Energy              =    -191.6180567110544928 [Eh]

	 ================> DF-SCS-MP2 Energies <==================
	-----------------------------------------------------------
	 SCS Same-Spin Scale       =       0.3333333333333333 [-]
	 SCS Opposite-Spin Scale   =       1.2000000000000000 [-]
	 SCS Same-Spin Energy      =      -0.0614206891946998 [Eh]
	 SCS Opposite-Spin Energy  =      -0.7288960535799033 [Eh]
	 SCS Correlation Energy    =      -0.7903167427746031 [Eh]
	 SCS Total Energy          =    -191.6166980082617215 [Eh]
	-----------------------------------------------------------

  Dipole Moment: [D]
     X:    -3.1897      Y:     0.5327      Z:     0.0003     Total:     3.2338

*** Psi4 exiting successfully. Buy a developer a beer!
