                               Psi4 1.3.2 release

  ==> Input File <==

--------------------------------------------------------------------------
#psi4
#
memory 32 gb

molecule  {
0 1
  O        1.7928501    -0.1419268    -0.0001446
  C       -0.5611510    -0.4520200    -0.0000120
  C        0.6707050     0.3546130    -0.0000040
  C       -1.7652780     0.1406350     0.0001500
  H       -0.4438600    -1.5324100    -0.0001440
  H        0.5134400     1.4540710     0.0000460
  H       -2.6894370    -0.4270490     0.0001690
  H       -1.8565530     1.2241520     0.0002830
units angstrom
no_reorient  #important for SAPT in psi4, default
symmetry c1  #important for SAPT in psi4, default
}

set PROPERTIES_ORIGIN ["COM"]
properties('MP2/aug-cc-pvtz', properties = ['dipole'])
--------------------------------------------------------------------------

    Molecular point group: c1
  Charge       = 0
  Multiplicity = 1
  Basis Set: AUG-CC-PVTZ
    Blend: AUG-CC-PVTZ
  Basis Set: (AUG-CC-PVTZ AUX)
    Blend: AUG-CC-PVTZ-JKFIT

    Orbital Energies [Eh]
    ---------------------

    Doubly Occupied:

       1A    -20.560260     2A    -11.340674     3A    -11.274485
       4A    -11.260069     5A     -1.383433     6A     -1.088815
       7A     -0.889275     8A     -0.788893     9A     -0.671867
      10A     -0.666151    11A     -0.604109    12A     -0.560359
      13A     -0.538904    14A     -0.434703    15A     -0.400227

  @DF-RHF Final Energy:  -190.83338616231859

   => Energetics <=

    Nuclear Repulsion Energy =            102.6677061843591474
    One-Electron Energy =                -462.0777362525926719
    Two-Electron Energy =                 168.5766439059149491
    Total Energy =                       -190.8333861623185896
  Basis Set: (AUG-CC-PVTZ AUX)
    Blend: AUG-CC-PVTZ-RI
    Molecular point group: c1

    Geometry (in Angstrom), charge = 0, multiplicity = 1:

       Center              X                  Y                   Z               Mass
    ------------   -----------------  -----------------  -----------------  -----------------
         O            1.716165315173    -0.123596404106    -0.000138386934    15.994914619570
         C           -0.637835784827    -0.433689604106    -0.000005786934    12.000000000000
         C            0.594020215173     0.372943395894     0.000002213066    12.000000000000
         C           -1.841962784827     0.158965395894     0.000156213066    12.000000000000
         H           -0.520544784827    -1.514079604106    -0.000137786934     1.007825032230
         H            0.436755215173     1.472401395894     0.000052213066     1.007825032230
         H           -2.766121784827    -0.408718604106     0.000175213066     1.007825032230
         H           -1.933237784827     1.242482395894     0.000289213066     1.007825032230

  Basis Set: AUG-CC-PVTZ
    Blend: AUG-CC-PVTZ
  Basis Set: (AUG-CC-PVTZ AUX)
    Blend: AUG-CC-PVTZ-JKFIT
	 Reference Energy          =    -190.8333861623185896 [Eh]
	 Singles Energy            =      -0.0000000000000000 [Eh]
	 Same-Spin Energy          =      -0.1837611639853380 [Eh]
	 Opposite-Spin Energy      =      -0.6063080580898306 [Eh]
	 Correlation Energy        =      -0.7900692220751686 [Eh]
	 Total Energy              =    -191.6234553843937647 [Eh]

	 ================> DF-SCS-MP2 Energies <==================
	-----------------------------------------------------------
	 SCS Same-Spin Scale       =       0.3333333333333333 [-]
	 SCS Opposite-Spin Scale   =       1.2000000000000000 [-]
	 SCS Same-Spin Energy      =      -0.0612537213284460 [Eh]
	 SCS Opposite-Spin Energy  =      -0.7275696697077967 [Eh]
	 SCS Correlation Energy    =      -0.7888233910362427 [Eh]
	 SCS Total Energy          =    -191.6222095533548213 [Eh]
	-----------------------------------------------------------

  Dipole Moment: [D]
     X:    -3.1764      Y:     0.6995      Z:     0.0003     Total:     3.2525

*** Psi4 exiting successfully. Buy a developer a beer!
