                               Psi4 1.4a3.dev225

  ==> Input File <==

--------------------------------------------------------------------------
#psi4
#
memory 32 gb

molecule  {
0 1
  O        1.8012870    -0.1222550    -0.0001540
  C       -0.5611720    -0.4521110    -0.0000010
  C        0.6706890     0.3546780    -0.0000210
  C       -1.7831717     0.1494350     0.0001583
  H       -0.4434470    -1.5324470    -0.0001170
  H        0.5133250     1.4540820     0.0000960
  H       -2.6895930    -0.4267550     0.0001780
  H       -1.8563190     1.2241470     0.0002720
units angstrom
no_reorient  #important for SAPT in psi4, default
symmetry c1  #important for SAPT in psi4, default
}

set PROPERTIES_ORIGIN ["COM"]
properties('MP2/aug-cc-pvtz', properties = ['dipole'])
--------------------------------------------------------------------------

    Molecular point group: c1
  Charge       = 0
  Multiplicity = 1
  Basis Set: AUG-CC-PVTZ
    Blend: AUG-CC-PVTZ
  Basis Set: (AUG-CC-PVTZ AUX)
    Blend: AUG-CC-PVTZ-JKFIT

    Orbital Energies [Eh]
    ---------------------

    Doubly Occupied:

       1A    -20.560004     2A    -11.340536     3A    -11.276955
       4A    -11.263781     5A     -1.383033     6A     -1.085095
       7A     -0.891691     8A     -0.789109     9A     -0.671040
      10A     -0.666983    11A     -0.602878    12A     -0.565726
      13A     -0.538173    14A     -0.434394    15A     -0.396644

  @DF-RHF Final Energy:  -190.83215858003717

   => Energetics <=

    Nuclear Repulsion Energy =            102.3414412509327747
    One-Electron Energy =                -461.4151155765097769
    Two-Electron Energy =                 168.2415157455398571
    Total Energy =                       -190.8321585800371736
  Basis Set: (AUG-CC-PVTZ AUX)
    Blend: AUG-CC-PVTZ-RI
    Molecular point group: c1

    Geometry (in Angstrom), charge = 0, multiplicity = 1:

       Center              X                  Y                   Z               Mass
    ------------   -----------------  -----------------  -----------------  -----------------
         O            1.726027297395    -0.111424697077    -0.000146945090    15.994914619570
         C           -0.636431702605    -0.441280697077     0.000006054910    12.000000000000
         C            0.595429297395     0.365508302923    -0.000013945090    12.000000000000
         C           -1.858431402605     0.160265302923     0.000165354910    12.000000000000
         H           -0.518706702605    -1.521616697077    -0.000109945090     1.007825032230
         H            0.438065297395     1.464912302923     0.000103054910     1.007825032230
         H           -2.764852702605    -0.415924697077     0.000185054910     1.007825032230
         H           -1.931578702605     1.234977302923     0.000279054910     1.007825032230

  Basis Set: AUG-CC-PVTZ
    Blend: AUG-CC-PVTZ
  Basis Set: (AUG-CC-PVTZ AUX)
    Blend: AUG-CC-PVTZ-JKFIT
	 Reference Energy          =    -190.8321585800371736 [Eh]
	 Singles Energy            =      -0.0000000000000000 [Eh]
	 Same-Spin Energy          =      -0.1838935771302025 [Eh]
	 Opposite-Spin Energy      =      -0.6067931922734439 [Eh]
	 Correlation Energy        =      -0.7906867694036464 [Eh]
	 Total Energy              =    -191.6228453494408086 [Eh]

	 ================> DF-SCS-MP2 Energies <==================
	-----------------------------------------------------------
	 SCS Same-Spin Scale       =       0.3333333333333333 [-]
	 SCS Opposite-Spin Scale   =       1.2000000000000000 [-]
	 SCS Same-Spin Energy      =      -0.0612978590434008 [Eh]
	 SCS Opposite-Spin Energy  =      -0.7281518307281326 [Eh]
	 SCS Correlation Energy    =      -0.7894496897715334 [Eh]
	 SCS Total Energy          =    -191.6216082698087178 [Eh]
	-----------------------------------------------------------

  Dipole Moment: [D]
     X:    -3.2097      Y:     0.6587      Z:     0.0003     Total:     3.2766

*** Psi4 exiting successfully. Buy a developer a beer!
