                               Psi4 1.4a3.dev225

  ==> Input File <==

--------------------------------------------------------------------------
#psi4
#
memory 32 gb

molecule  {
0 1
  O        1.8012870    -0.1222550    -0.0001540
  C       -0.5611720    -0.4521110    -0.0000010
  C        0.6706890     0.3546780    -0.0000210
  C       -1.7652280     0.1406020     0.0001560
  H       -0.4488635    -1.4827412    -0.0001117
  H        0.5133250     1.4540820     0.0000960
  H       -2.6895930    -0.4267550     0.0001780
  H       -1.8563190     1.2241470     0.0002720
units angstrom
no_reorient  #important for SAPT in psi4, default
symmetry c1  #important for SAPT in psi4, default
}

set PROPERTIES_ORIGIN ["COM"]
properties('MP2/aug-cc-pvtz', properties = ['dipole'])
--------------------------------------------------------------------------

    Molecular point group: c1
  Charge       = 0
  Multiplicity = 1
  Basis Set: AUG-CC-PVTZ
    Blend: AUG-CC-PVTZ
  Basis Set: (AUG-CC-PVTZ AUX)
    Blend: AUG-CC-PVTZ-JKFIT

    Orbital Energies [Eh]
    ---------------------

    Doubly Occupied:

       1A    -20.560031     2A    -11.340072     3A    -11.275078
       4A    -11.255282     5A     -1.383093     6A     -1.091209
       7A     -0.889867     8A     -0.795673     9A     -0.672741
      10A     -0.668021    11A     -0.605465    12A     -0.566397
      13A     -0.538619    14A     -0.434149    15A     -0.400751

  @DF-RHF Final Energy:  -190.83262015967523

   => Energetics <=

    Nuclear Repulsion Energy =            102.8202469201247453
    One-Electron Energy =                -462.3528373060946137
    Two-Electron Energy =                 168.6999702262946244
    Total Energy =                       -190.8326201596752298
  Basis Set: (AUG-CC-PVTZ AUX)
    Blend: AUG-CC-PVTZ-RI
    Molecular point group: c1

    Geometry (in Angstrom), charge = 0, multiplicity = 1:

       Center              X                  Y                   Z               Mass
    ------------   -----------------  -----------------  -----------------  -----------------
         O            1.722281452407    -0.110426927537    -0.000146547802    15.994914619570
         C           -0.640177547593    -0.440282927537     0.000006452198    12.000000000000
         C            0.591683452407     0.366506072463    -0.000013547802    12.000000000000
         C           -1.844233547593     0.152430072463     0.000163452198    12.000000000000
         H           -0.527869047593    -1.470913127537    -0.000104247802     1.007825032230
         H            0.434319452407     1.465910072463     0.000103452198     1.007825032230
         H           -2.768598547593    -0.414926927537     0.000185452198     1.007825032230
         H           -1.935324547593     1.235975072463     0.000279452198     1.007825032230

  Basis Set: AUG-CC-PVTZ
    Blend: AUG-CC-PVTZ
  Basis Set: (AUG-CC-PVTZ AUX)
    Blend: AUG-CC-PVTZ-JKFIT
	 Reference Energy          =    -190.8326201596752298 [Eh]
	 Singles Energy            =      -0.0000000000000000 [Eh]
	 Same-Spin Energy          =      -0.1836685087400655 [Eh]
	 Opposite-Spin Energy      =      -0.6061120910716569 [Eh]
	 Correlation Energy        =      -0.7897805998117223 [Eh]
	 Total Energy              =    -191.6224007594869647 [Eh]

	 ================> DF-SCS-MP2 Energies <==================
	-----------------------------------------------------------
	 SCS Same-Spin Scale       =       0.3333333333333333 [-]
	 SCS Opposite-Spin Scale   =       1.2000000000000000 [-]
	 SCS Same-Spin Energy      =      -0.0612228362466885 [Eh]
	 SCS Opposite-Spin Energy  =      -0.7273345092859882 [Eh]
	 SCS Correlation Energy    =      -0.7885573455326766 [Eh]
	 SCS Total Energy          =    -191.6211775052078963 [Eh]
	-----------------------------------------------------------

  Dipole Moment: [D]
     X:    -3.2111      Y:     0.6548      Z:     0.0003     Total:     3.2771

*** Psi4 exiting successfully. Buy a developer a beer!
