                               Psi4 1.3.2 release

  ==> Input File <==

--------------------------------------------------------------------------
#psi4
#
memory 32 gb

molecule  {
0 1
  O        1.8013450    -0.1222670    -0.0001450
  C       -0.5611510    -0.4520200    -0.0000120
  C        0.6707050     0.3546130    -0.0000040
  C       -1.6967323     0.2632539     0.0001585
  H       -0.4438600    -1.5324100    -0.0001440
  H        0.5134400     1.4540710     0.0000460
  H       -2.6894370    -0.4270490     0.0001690
  H       -1.8565530     1.2241520     0.0002830
units angstrom
no_reorient  #important for SAPT in psi4, default
symmetry c1  #important for SAPT in psi4, default
}

set PROPERTIES_ORIGIN ["COM"]
properties('MP2/aug-cc-pvtz', properties = ['dipole'])
--------------------------------------------------------------------------

    Molecular point group: c1
  Charge       = 0
  Multiplicity = 1
  Basis Set: AUG-CC-PVTZ
    Blend: AUG-CC-PVTZ
  Basis Set: (AUG-CC-PVTZ AUX)
    Blend: AUG-CC-PVTZ-JKFIT

    Orbital Energies [Eh]
    ---------------------

    Doubly Occupied:

       1A    -20.556714     2A    -11.336870     3A    -11.277418
       4A    -11.264337     5A     -1.380660     6A     -1.094837
       7A     -0.887377     8A     -0.800136     9A     -0.685895
      10A     -0.657066    11A     -0.605132    12A     -0.548846
      13A     -0.537895    14A     -0.429177    15A     -0.402568

  @DF-RHF Final Energy:  -190.80992724529952

   => Energetics <=

    Nuclear Repulsion Energy =            103.0231795845353702
    One-Electron Energy =                -462.7363590062485059
    Two-Electron Energy =                 168.9032521764135879
    Total Energy =                       -190.8099272452995194
  Basis Set: (AUG-CC-PVTZ AUX)
    Blend: AUG-CC-PVTZ-RI
    Molecular point group: c1

    Geometry (in Angstrom), charge = 0, multiplicity = 1:

       Center              X                  Y                   Z               Mass
    ------------   -----------------  -----------------  -----------------  -----------------
         O            1.707553516023    -0.135812461336    -0.000140493314    15.994914619570
         C           -0.654942483977    -0.465565461336    -0.000007493314    12.000000000000
         C            0.576913516023     0.341067538664     0.000000506686    12.000000000000
         C           -1.790523783977     0.249708438664     0.000163006686    12.000000000000
         H           -0.537651483977    -1.545955461336    -0.000139493314     1.007825032230
         H            0.419648516023     1.440525538664     0.000050506686     1.007825032230
         H           -2.783228483977    -0.440594461336     0.000173506686     1.007825032230
         H           -1.950344483977     1.210606538664     0.000287506686     1.007825032230

  Basis Set: AUG-CC-PVTZ
    Blend: AUG-CC-PVTZ
  Basis Set: (AUG-CC-PVTZ AUX)
    Blend: AUG-CC-PVTZ-JKFIT
	 Reference Energy          =    -190.8099272452995194 [Eh]
	 Singles Energy            =      -0.0000000000000000 [Eh]
	 Same-Spin Energy          =      -0.1840509893313970 [Eh]
	 Opposite-Spin Energy      =      -0.6072853138434396 [Eh]
	 Correlation Energy        =      -0.7913363031748366 [Eh]
	 Total Energy              =    -191.6012635484743498 [Eh]

	 ================> DF-SCS-MP2 Energies <==================
	-----------------------------------------------------------
	 SCS Same-Spin Scale       =       0.3333333333333333 [-]
	 SCS Opposite-Spin Scale   =       1.2000000000000000 [-]
	 SCS Same-Spin Energy      =      -0.0613503297771323 [Eh]
	 SCS Opposite-Spin Energy  =      -0.7287423766121276 [Eh]
	 SCS Correlation Energy    =      -0.7900927063892600 [Eh]
	 SCS Total Energy          =    -191.6000199516887790 [Eh]
	-----------------------------------------------------------

  Dipole Moment: [D]
     X:    -3.1623      Y:     0.6923      Z:     0.0003     Total:     3.2372

*** Psi4 exiting successfully. Buy a developer a beer!
