                               Psi4 1.3.2 release

  ==> Input File <==

--------------------------------------------------------------------------
#psi4
#
memory 32 gb

molecule  {
0 1
  O        1.8013450    -0.1222670    -0.0001450
  C       -0.5611510    -0.4520200    -0.0000120
  C        0.6707050     0.3546130    -0.0000040
  C       -1.8206310     0.0115228     0.0001397
  H       -0.4438600    -1.5324100    -0.0001440
  H        0.5134400     1.4540710     0.0000460
  H       -2.6894370    -0.4270490     0.0001690
  H       -1.8565530     1.2241520     0.0002830
units angstrom
no_reorient  #important for SAPT in psi4, default
symmetry c1  #important for SAPT in psi4, default
}

set PROPERTIES_ORIGIN ["COM"]
properties('MP2/aug-cc-pvtz', properties = ['dipole'])
--------------------------------------------------------------------------

    Molecular point group: c1
  Charge       = 0
  Multiplicity = 1
  Basis Set: AUG-CC-PVTZ
    Blend: AUG-CC-PVTZ
  Basis Set: (AUG-CC-PVTZ AUX)
    Blend: AUG-CC-PVTZ-JKFIT

    Orbital Energies [Eh]
    ---------------------

    Doubly Occupied:

       1A    -20.565093     2A    -11.345803     3A    -11.277731
       4A    -11.262409     5A     -1.387072     6A     -1.087893
       7A     -0.901962     8A     -0.787705     9A     -0.695165
      10A     -0.656272    11A     -0.621014    12A     -0.541228
      13A     -0.526197    14A     -0.439797    15A     -0.402189

  @DF-RHF Final Energy:  -190.80968538486349

   => Energetics <=

    Nuclear Repulsion Energy =            102.3194234554817399
    One-Electron Energy =                -461.2631615191394872
    Two-Electron Energy =                 168.1340526787942622
    Total Energy =                       -190.8096853848634851
  Basis Set: (AUG-CC-PVTZ AUX)
    Blend: AUG-CC-PVTZ-RI
    Molecular point group: c1

    Geometry (in Angstrom), charge = 0, multiplicity = 1:

       Center              X                  Y                   Z               Mass
    ------------   -----------------  -----------------  -----------------  -----------------
         O            1.734090814798    -0.081895322483    -0.000136466628    15.994914619570
         C           -0.628405185202    -0.411648322483    -0.000003466628    12.000000000000
         C            0.603450814798     0.394984677517     0.000004533372    12.000000000000
         C           -1.887885185202     0.051894477517     0.000148233372    12.000000000000
         H           -0.511114185202    -1.492038322483    -0.000135466628     1.007825032230
         H            0.446185814798     1.494442677517     0.000054533372     1.007825032230
         H           -2.756691185202    -0.386677322483     0.000177533372     1.007825032230
         H           -1.923807185202     1.264523677517     0.000291533372     1.007825032230

  Basis Set: AUG-CC-PVTZ
    Blend: AUG-CC-PVTZ
  Basis Set: (AUG-CC-PVTZ AUX)
    Blend: AUG-CC-PVTZ-JKFIT
	 Reference Energy          =    -190.8096853848634851 [Eh]
	 Singles Energy            =      -0.0000000000000000 [Eh]
	 Same-Spin Energy          =      -0.1840981347367746 [Eh]
	 Opposite-Spin Energy      =      -0.6077472786636426 [Eh]
	 Correlation Energy        =      -0.7918454134004171 [Eh]
	 Total Energy              =    -191.6015307982638944 [Eh]

	 ================> DF-SCS-MP2 Energies <==================
	-----------------------------------------------------------
	 SCS Same-Spin Scale       =       0.3333333333333333 [-]
	 SCS Opposite-Spin Scale   =       1.2000000000000000 [-]
	 SCS Same-Spin Energy      =      -0.0613660449122582 [Eh]
	 SCS Opposite-Spin Energy  =      -0.7292967343963711 [Eh]
	 SCS Correlation Energy    =      -0.7906627793086293 [Eh]
	 SCS Total Energy          =    -191.6003481641721180 [Eh]
	-----------------------------------------------------------

  Dipole Moment: [D]
     X:    -3.1361      Y:     0.5728      Z:     0.0003     Total:     3.1880

*** Psi4 exiting successfully. Buy a developer a beer!
