                               Psi4 1.3.2 release

  ==> Input File <==

--------------------------------------------------------------------------
#psi4
#
memory 32 gb

molecule  {
0 1
  O        1.8013450    -0.1222670    -0.0001450
  C       -0.5611510    -0.4520200    -0.0000120
  C        0.6707050     0.3546130    -0.0000040
  C       -1.7547513     0.1615596     0.0001516
  H       -0.4438600    -1.5324100    -0.0001440
  H        0.5134400     1.4540710     0.0000460
  H       -2.6894370    -0.4270490     0.0001690
  H       -1.8565530     1.2241520     0.0002830
units angstrom
no_reorient  #important for SAPT in psi4, default
symmetry c1  #important for SAPT in psi4, default
}

set PROPERTIES_ORIGIN ["COM"]
properties('MP2/aug-cc-pvtz', properties = ['dipole'])
--------------------------------------------------------------------------

    Molecular point group: c1
  Charge       = 0
  Multiplicity = 1
  Basis Set: AUG-CC-PVTZ
    Blend: AUG-CC-PVTZ
  Basis Set: (AUG-CC-PVTZ AUX)
    Blend: AUG-CC-PVTZ-JKFIT

    Orbital Energies [Eh]
    ---------------------

    Doubly Occupied:

       1A    -20.559480     2A    -11.339772     3A    -11.275269
       4A    -11.261036     5A     -1.382624     6A     -1.090083
       7A     -0.888406     8A     -0.790102     9A     -0.671048
      10A     -0.666874    11A     -0.601434    12A     -0.563665
      13A     -0.538445    14A     -0.433440    15A     -0.400908

  @DF-RHF Final Energy:  -190.83285787117336

   => Energetics <=

    Nuclear Repulsion Energy =            102.6617103905742283
    One-Electron Energy =                -462.0639671608105914
    Two-Electron Energy =                 168.5693988990630032
    Total Energy =                       -190.8328578711733599
  Basis Set: (AUG-CC-PVTZ AUX)
    Blend: AUG-CC-PVTZ-RI
    Molecular point group: c1

    Geometry (in Angstrom), charge = 0, multiplicity = 1:

       Center              X                  Y                   Z               Mass
    ------------   -----------------  -----------------  -----------------  -----------------
         O            1.719980341628    -0.114031021960    -0.000139015434    15.994914619570
         C           -0.642515658372    -0.443784021960    -0.000006015434    12.000000000000
         C            0.589340341628     0.362848978040     0.000001984566    12.000000000000
         C           -1.836115958372     0.169795578040     0.000157584566    12.000000000000
         H           -0.525224658372    -1.524174021960    -0.000138015434     1.007825032230
         H            0.432075341628     1.462306978040     0.000051984566     1.007825032230
         H           -2.770801658372    -0.418813021960     0.000174984566     1.007825032230
         H           -1.937917658372     1.232387978040     0.000288984566     1.007825032230

  Basis Set: AUG-CC-PVTZ
    Blend: AUG-CC-PVTZ
  Basis Set: (AUG-CC-PVTZ AUX)
    Blend: AUG-CC-PVTZ-JKFIT
	 Reference Energy          =    -190.8328578711733599 [Eh]
	 Singles Energy            =      -0.0000000000000000 [Eh]
	 Same-Spin Energy          =      -0.1837542649176450 [Eh]
	 Opposite-Spin Energy      =      -0.6063020843150025 [Eh]
	 Correlation Energy        =      -0.7900563492326476 [Eh]
	 Total Energy              =    -191.6229142204060167 [Eh]

	 ================> DF-SCS-MP2 Energies <==================
	-----------------------------------------------------------
	 SCS Same-Spin Scale       =       0.3333333333333333 [-]
	 SCS Opposite-Spin Scale   =       1.2000000000000000 [-]
	 SCS Same-Spin Energy      =      -0.0612514216392150 [Eh]
	 SCS Opposite-Spin Energy  =      -0.7275625011780030 [Eh]
	 SCS Correlation Energy    =      -0.7888139228172181 [Eh]
	 SCS Total Energy          =    -191.6216717939905720 [Eh]
	-----------------------------------------------------------

  Dipole Moment: [D]
     X:    -3.2063      Y:     0.6677      Z:     0.0003     Total:     3.2751

*** Psi4 exiting successfully. Buy a developer a beer!
