                               Psi4 1.4a3.dev225

  ==> Input File <==

--------------------------------------------------------------------------
#psi4
#
memory 32 gb

molecule  {
0 1
  O        1.8012870    -0.1222550    -0.0001540
  C       -0.5611720    -0.4521110    -0.0000010
  C        0.6706890     0.3546780    -0.0000210
  C       -1.7652280     0.1406020     0.0001560
  H       -0.4456136    -1.5125647    -0.0001149
  H        0.5133250     1.4540820     0.0000960
  H       -2.6895930    -0.4267550     0.0001780
  H       -1.8563190     1.2241470     0.0002720
units angstrom
no_reorient  #important for SAPT in psi4, default
symmetry c1  #important for SAPT in psi4, default
}

set PROPERTIES_ORIGIN ["COM"]
properties('MP2/aug-cc-pvtz', properties = ['dipole'])
--------------------------------------------------------------------------

    Molecular point group: c1
  Charge       = 0
  Multiplicity = 1
  Basis Set: AUG-CC-PVTZ
    Blend: AUG-CC-PVTZ
  Basis Set: (AUG-CC-PVTZ AUX)
    Blend: AUG-CC-PVTZ-JKFIT

    Orbital Energies [Eh]
    ---------------------

    Doubly Occupied:

       1A    -20.560109     2A    -11.340323     3A    -11.275154
       4A    -11.258616     5A     -1.383129     6A     -1.090098
       7A     -0.889682     8A     -0.791362     9A     -0.672140
      10A     -0.667174    11A     -0.604620    12A     -0.563232
      13A     -0.538672    14A     -0.434247    15A     -0.400795

  @DF-RHF Final Energy:  -190.83358117284189

   => Energetics <=

    Nuclear Repulsion Energy =            102.6875607134635970
    One-Electron Energy =                -462.1035778017899815
    Two-Electron Energy =                 168.5824359154844956
    Total Energy =                       -190.8335811728418889
  Basis Set: (AUG-CC-PVTZ AUX)
    Blend: AUG-CC-PVTZ-RI
    Molecular point group: c1

    Geometry (in Angstrom), charge = 0, multiplicity = 1:

       Center              X                  Y                   Z               Mass
    ------------   -----------------  -----------------  -----------------  -----------------
         O            1.722222991728    -0.109890448855    -0.000146490239    15.994914619570
         C           -0.640236008272    -0.439746448855     0.000006509761    12.000000000000
         C            0.591624991728     0.367042551145    -0.000013490239    12.000000000000
         C           -1.844292008272     0.152966551145     0.000163509761    12.000000000000
         H           -0.524677608272    -1.500200148855    -0.000107390239     1.007825032230
         H            0.434260991728     1.466446551145     0.000103509761     1.007825032230
         H           -2.768657008272    -0.414390448855     0.000185509761     1.007825032230
         H           -1.935383008272     1.236511551145     0.000279509761     1.007825032230

  Basis Set: AUG-CC-PVTZ
    Blend: AUG-CC-PVTZ
  Basis Set: (AUG-CC-PVTZ AUX)
    Blend: AUG-CC-PVTZ-JKFIT
	 Reference Energy          =    -190.8335811728418889 [Eh]
	 Singles Energy            =      -0.0000000000000000 [Eh]
	 Same-Spin Energy          =      -0.1837140858443080 [Eh]
	 Opposite-Spin Energy      =      -0.6062157281474185 [Eh]
	 Correlation Energy        =      -0.7899298139917266 [Eh]
	 Total Energy              =    -191.6235109868336224 [Eh]

	 ================> DF-SCS-MP2 Energies <==================
	-----------------------------------------------------------
	 SCS Same-Spin Scale       =       0.3333333333333333 [-]
	 SCS Opposite-Spin Scale   =       1.2000000000000000 [-]
	 SCS Same-Spin Energy      =      -0.0612380286147693 [Eh]
	 SCS Opposite-Spin Energy  =      -0.7274588737769022 [Eh]
	 SCS Correlation Energy    =      -0.7886969023916716 [Eh]
	 SCS Total Energy          =    -191.6222780752335666 [Eh]
	-----------------------------------------------------------

  Dipole Moment: [D]
     X:    -3.2073      Y:     0.6571      Z:     0.0003     Total:     3.2740

*** Psi4 exiting successfully. Buy a developer a beer!
