                               Psi4 1.3.2 release

  ==> Input File <==

--------------------------------------------------------------------------
#psi4
#
memory 32 gb

molecule  {
0 1
  O        1.8013450    -0.1222670    -0.0001450
  C       -0.5611510    -0.4520200    -0.0000120
  C        0.6845951     0.3329913    -0.0000077
  C       -1.7652780     0.1406350     0.0001500
  H       -0.4438600    -1.5324100    -0.0001440
  H        0.5134400     1.4540710     0.0000460
  H       -2.6894370    -0.4270490     0.0001690
  H       -1.8565530     1.2241520     0.0002830
units angstrom
no_reorient  #important for SAPT in psi4, default
symmetry c1  #important for SAPT in psi4, default
}

set PROPERTIES_ORIGIN ["COM"]
properties('MP2/aug-cc-pvtz', properties = ['dipole'])
--------------------------------------------------------------------------

    Molecular point group: c1
  Charge       = 0
  Multiplicity = 1
  Basis Set: AUG-CC-PVTZ
    Blend: AUG-CC-PVTZ
  Basis Set: (AUG-CC-PVTZ AUX)
    Blend: AUG-CC-PVTZ-JKFIT

    Orbital Energies [Eh]
    ---------------------

    Doubly Occupied:

       1A    -20.561310     2A    -11.339637     3A    -11.275075
       4A    -11.259937     5A     -1.397818     6A     -1.088403
       7A     -0.888494     8A     -0.783960     9A     -0.674912
      10A     -0.666614    11A     -0.607767    12A     -0.560695
      13A     -0.547167    14A     -0.430834    15A     -0.401875

  @DF-RHF Final Energy:  -190.83467758409520

   => Energetics <=

    Nuclear Repulsion Energy =            102.8628132303602598
    One-Electron Energy =                -462.4259869890180426
    Two-Electron Energy =                 168.7284961745625935
    Total Energy =                       -190.8346775840952034
  Basis Set: (AUG-CC-PVTZ AUX)
    Blend: AUG-CC-PVTZ-RI
    Molecular point group: c1

    Geometry (in Angstrom), charge = 0, multiplicity = 1:

       Center              X                  Y                   Z               Mass
    ------------   -----------------  -----------------  -----------------  -----------------
         O            1.719259950287    -0.104918223562    -0.000137880251    15.994914619570
         C           -0.643236049713    -0.434671223562    -0.000004880251    12.000000000000
         C            0.602510050287     0.350340076438    -0.000000580251    12.000000000000
         C           -1.847363049713     0.157983776438     0.000157119749    12.000000000000
         H           -0.525945049713    -1.515061223562    -0.000136880251     1.007825032230
         H            0.431354950287     1.471419776438     0.000053119749     1.007825032230
         H           -2.771522049713    -0.409700223562     0.000176119749     1.007825032230
         H           -1.938638049713     1.241500776438     0.000290119749     1.007825032230

  Basis Set: AUG-CC-PVTZ
    Blend: AUG-CC-PVTZ
  Basis Set: (AUG-CC-PVTZ AUX)
    Blend: AUG-CC-PVTZ-JKFIT
	 Reference Energy          =    -190.8346775840952034 [Eh]
	 Singles Energy            =      -0.0000000000000000 [Eh]
	 Same-Spin Energy          =      -0.1832846124398044 [Eh]
	 Opposite-Spin Energy      =      -0.6051205065488594 [Eh]
	 Correlation Energy        =      -0.7884051189886638 [Eh]
	 Total Energy              =    -191.6230827030838668 [Eh]

	 ================> DF-SCS-MP2 Energies <==================
	-----------------------------------------------------------
	 SCS Same-Spin Scale       =       0.3333333333333333 [-]
	 SCS Opposite-Spin Scale   =       1.2000000000000000 [-]
	 SCS Same-Spin Energy      =      -0.0610948708132681 [Eh]
	 SCS Opposite-Spin Energy  =      -0.7261446078586312 [Eh]
	 SCS Correlation Energy    =      -0.7872394786718994 [Eh]
	 SCS Total Energy          =    -191.6219170627670962 [Eh]
	-----------------------------------------------------------

  Dipole Moment: [D]
     X:    -3.1394      Y:     0.5802      Z:     0.0003     Total:     3.1925

*** Psi4 exiting successfully. Buy a developer a beer!
