                               Psi4 1.3.2 release

  ==> Input File <==

--------------------------------------------------------------------------
#psi4
#
memory 32 gb

molecule  {
0 1
  O        1.8013450    -0.1222670    -0.0001450
  C       -0.5611510    -0.4520200    -0.0000120
  C        0.6707050     0.3546130    -0.0000040
  C       -1.7652780     0.1406350     0.0001500
  H       -0.4654459    -1.3335783    -0.0001197
  H        0.5134400     1.4540710     0.0000460
  H       -2.6894370    -0.4270490     0.0001690
  H       -1.8565530     1.2241520     0.0002830
units angstrom
no_reorient  #important for SAPT in psi4, default
symmetry c1  #important for SAPT in psi4, default
}

set PROPERTIES_ORIGIN ["COM"]
properties('MP2/aug-cc-pvtz', properties = ['dipole'])
--------------------------------------------------------------------------

    Molecular point group: c1
  Charge       = 0
  Multiplicity = 1
  Basis Set: AUG-CC-PVTZ
    Blend: AUG-CC-PVTZ
  Basis Set: (AUG-CC-PVTZ AUX)
    Blend: AUG-CC-PVTZ-JKFIT

    Orbital Energies [Eh]
    ---------------------

    Doubly Occupied:

       1A    -20.559725     2A    -11.339115     3A    -11.275163
       4A    -11.238406     5A     -1.382987     6A     -1.099543
       7A     -0.892474     8A     -0.822173     9A     -0.679143
      10A     -0.669500    11A     -0.610641    12A     -0.577644
      13A     -0.538468    14A     -0.433719    15A     -0.400872

  @DF-RHF Final Energy:  -190.79827941951453

   => Energetics <=

    Nuclear Repulsion Energy =            103.5786352648504902
    One-Electron Energy =                -463.7146880734351271
    Two-Electron Energy =                 169.3377733890700938
    Total Energy =                       -190.7982794195145289
  Basis Set: (AUG-CC-PVTZ AUX)
    Blend: AUG-CC-PVTZ-RI
    Molecular point group: c1

    Geometry (in Angstrom), charge = 0, multiplicity = 1:

       Center              X                  Y                   Z               Mass
    ------------   -----------------  -----------------  -----------------  -----------------
         O            1.722623304588    -0.113125952150    -0.000139109857    15.994914619570
         C           -0.639872695412    -0.442878952150    -0.000006109857    12.000000000000
         C            0.591983304588     0.363754047850     0.000001890143    12.000000000000
         C           -1.843999695412     0.149776047850     0.000155890143    12.000000000000
         H           -0.544167595412    -1.324437252150    -0.000113809857     1.007825032230
         H            0.434718304588     1.463212047850     0.000051890143     1.007825032230
         H           -2.768158695412    -0.417907952150     0.000174890143     1.007825032230
         H           -1.935274695412     1.233293047850     0.000288890143     1.007825032230

  Basis Set: AUG-CC-PVTZ
    Blend: AUG-CC-PVTZ
  Basis Set: (AUG-CC-PVTZ AUX)
    Blend: AUG-CC-PVTZ-JKFIT
	 Reference Energy          =    -190.7982794195145289 [Eh]
	 Singles Energy            =      -0.0000000000000000 [Eh]
	 Same-Spin Energy          =      -0.1835870891074567 [Eh]
	 Opposite-Spin Energy      =      -0.6061846493760652 [Eh]
	 Correlation Energy        =      -0.7897717384835219 [Eh]
	 Total Energy              =    -191.5880511579980521 [Eh]

	 ================> DF-SCS-MP2 Energies <==================
	-----------------------------------------------------------
	 SCS Same-Spin Scale       =       0.3333333333333333 [-]
	 SCS Opposite-Spin Scale   =       1.2000000000000000 [-]
	 SCS Same-Spin Energy      =      -0.0611956963691522 [Eh]
	 SCS Opposite-Spin Energy  =      -0.7274215792512783 [Eh]
	 SCS Correlation Energy    =      -0.7886172756204305 [Eh]
	 SCS Total Energy          =    -191.5868966951349535 [Eh]
	-----------------------------------------------------------

  Dipole Moment: [D]
     X:    -3.2317      Y:     0.6582      Z:     0.0003     Total:     3.2980

*** Psi4 exiting successfully. Buy a developer a beer!
