                               Psi4 1.3.2 release

  ==> Input File <==

--------------------------------------------------------------------------
#psi4
#
memory 32 gb

molecule  {
0 1
  O        0.8291000     1.5489640    -0.0096600
  O       -1.9645320    -1.5272950    -0.0272540
  N       -1.2915850     0.6563530    -0.0190760
  C        2.2179880    -0.2284570     0.0063820
  C        0.0783220     0.4095260    -0.0084780
  C        0.8636310    -0.7077784     0.1006390
  C        2.1440040     1.1342220     0.0001060
  C        3.4596960    -1.0625820     0.0169560
  C       -2.2510390    -0.3310160    -0.0197860
  C       -3.6738340     0.1809440     0.0371730
  H        0.5128620    -1.7280920     0.0016880
  H        2.8785440     1.9259390     0.0016350
  H       -1.5656180     1.6316590    -0.0137960
  H        3.5070680    -1.7110750    -0.8631740
  H        4.3526580    -0.4311270     0.0195620
  H        3.4969120    -1.7040060     0.9027390
  H       -3.7998370     1.1241010    -0.5010800
  H       -3.9673170     0.3343150     1.0801190
  H       -4.3271240    -0.5760050    -0.3968180
units angstrom
no_reorient  #important for SAPT in psi4, default
symmetry c1  #important for SAPT in psi4, default
}

set PROPERTIES_ORIGIN ["COM"]
properties('MP2/aug-cc-pvtz', properties = ['dipole'])
--------------------------------------------------------------------------

    Molecular point group: c1
  Charge       = 0
  Multiplicity = 1
  Basis Set: AUG-CC-PVTZ
    Blend: AUG-CC-PVTZ
  Basis Set: (AUG-CC-PVTZ AUX)
    Blend: AUG-CC-PVTZ-JKFIT

    Orbital Energies [Eh]
    ---------------------

    Doubly Occupied:

       1A    -20.623281     2A    -20.534000     3A    -15.618751
       4A    -11.370443     5A    -11.337998     6A    -11.273374
       7A    -11.250109     8A    -11.236788     9A    -11.226381
      10A    -11.215897    11A     -1.461012    12A     -1.388675
      13A     -1.254895    14A     -1.096117    15A     -1.036979
      16A     -0.986861    17A     -0.943859    18A     -0.840268
      19A     -0.791392    20A     -0.768535    21A     -0.711072
      22A     -0.682737    23A     -0.657223    24A     -0.647989
      25A     -0.620593    26A     -0.599673    27A     -0.581249
      28A     -0.571502    29A     -0.568629    30A     -0.562069
      31A     -0.541816    32A     -0.538371    33A     -0.509148
      34A     -0.453915    35A     -0.438440    36A     -0.381328
      37A     -0.289301

  @DF-RHF Final Energy:  -474.65420554596949

   => Energetics <=

    Nuclear Repulsion Energy =            508.7496196423393258
    One-Electron Energy =               -1655.5863099497021267
    Two-Electron Energy =                 672.1824847613934253
    Total Energy =                       -474.6542055459694893
  Basis Set: (AUG-CC-PVTZ AUX)
    Blend: AUG-CC-PVTZ-RI
    Molecular point group: c1

    Geometry (in Angstrom), charge = 0, multiplicity = 1:

       Center              X                  Y                   Z               Mass
    ------------   -----------------  -----------------  -----------------  -----------------
         O            0.836905216894     1.540818863642    -0.016642622209    15.994914619570
         O           -1.956726783106    -1.535440136358    -0.034236622209    15.994914619570
         N           -1.283779783106     0.648207863642    -0.026058622209    14.003074004430
         C            2.225793216894    -0.236602136358    -0.000600622209    12.000000000000
         C            0.086127216894     0.401380863642    -0.015460622209    12.000000000000
         C            0.871436216894    -0.715923536358     0.093656377791    12.000000000000
         C            2.151809216894     1.126076863642    -0.006876622209    12.000000000000
         C            3.467501216894    -1.070727136358     0.009973377791    12.000000000000
         C           -2.243233783106    -0.339161136358    -0.026768622209    12.000000000000
         C           -3.666028783106     0.172798863642     0.030190377791    12.000000000000
         H            0.520667216894    -1.736237136358    -0.005294622209     1.007825032230
         H            2.886349216894     1.917793863642    -0.005347622209     1.007825032230
         H           -1.557812783106     1.623513863642    -0.020778622209     1.007825032230
         H            3.514873216894    -1.719220136358    -0.870156622209     1.007825032230
         H            4.360463216894    -0.439272136358     0.012579377791     1.007825032230
         H            3.504717216894    -1.712151136358     0.895756377791     1.007825032230
         H           -3.792031783106     1.115955863642    -0.508062622209     1.007825032230
         H           -3.959511783106     0.326169863642     1.073136377791     1.007825032230
         H           -4.319318783106    -0.584150136358    -0.403800622209     1.007825032230

  Basis Set: AUG-CC-PVTZ
    Blend: AUG-CC-PVTZ
  Basis Set: (AUG-CC-PVTZ AUX)
    Blend: AUG-CC-PVTZ-JKFIT
	 Reference Energy          =    -474.6542055459694893 [Eh]
	 Singles Energy            =      -0.0000000000000000 [Eh]
	 Same-Spin Energy          =      -0.4898527203114708 [Eh]
	 Opposite-Spin Energy      =      -1.5241275196492221 [Eh]
	 Correlation Energy        =      -2.0139802399606928 [Eh]
	 Total Energy              =    -476.6681857859301772 [Eh]

	 ================> DF-SCS-MP2 Energies <==================
	-----------------------------------------------------------
	 SCS Same-Spin Scale       =       0.3333333333333333 [-]
	 SCS Opposite-Spin Scale   =       1.2000000000000000 [-]
	 SCS Same-Spin Energy      =      -0.1632842401038236 [Eh]
	 SCS Opposite-Spin Energy  =      -1.8289530235790665 [Eh]
	 SCS Correlation Energy    =      -1.9922372636828900 [Eh]
	 SCS Total Energy          =    -476.6464428096523989 [Eh]
	-----------------------------------------------------------

  Dipole Moment: [D]
     X:    -0.3743      Y:     2.6434      Z:     0.0149     Total:     2.6698

*** Psi4 exiting successfully. Buy a developer a beer!
