                               Psi4 1.3.2 release

  ==> Input File <==

--------------------------------------------------------------------------
#psi4
#
memory 32 gb

molecule  {
0 1
  O        0.8291000     1.5489640    -0.0096600
  O       -1.9645320    -1.5272950    -0.0272540
  N       -1.2915850     0.6563530    -0.0190760
  C        2.2179880    -0.2284570     0.0063820
  C        0.0783220     0.4095260    -0.0084780
  C        0.8642630    -0.7082250     0.0006420
  C        2.1440040     1.1342220     0.0001060
  C        3.4596960    -1.0625820     0.0169560
  C       -2.2510390    -0.3310160    -0.0197860
  C       -3.6738340     0.1809440     0.0371730
  H        0.5128620    -1.7280920     0.0016880
  H        2.8772900     1.9267642     0.2016294
  H       -1.5656180     1.6316590    -0.0137960
  H        3.5070680    -1.7110750    -0.8631740
  H        4.3526580    -0.4311270     0.0195620
  H        3.4969120    -1.7040060     0.9027390
  H       -3.7998370     1.1241010    -0.5010800
  H       -3.9673170     0.3343150     1.0801190
  H       -4.3271240    -0.5760050    -0.3968180
units angstrom
no_reorient  #important for SAPT in psi4, default
symmetry c1  #important for SAPT in psi4, default
}

set PROPERTIES_ORIGIN ["COM"]
properties('MP2/aug-cc-pvtz', properties = ['dipole'])
--------------------------------------------------------------------------

    Molecular point group: c1
  Charge       = 0
  Multiplicity = 1
  Basis Set: AUG-CC-PVTZ
    Blend: AUG-CC-PVTZ
  Basis Set: (AUG-CC-PVTZ AUX)
    Blend: AUG-CC-PVTZ-JKFIT

    Orbital Energies [Eh]
    ---------------------

    Doubly Occupied:

       1A    -20.622795     2A    -20.534025     3A    -15.618662
       4A    -11.370462     5A    -11.337244     6A    -11.274408
       7A    -11.250120     8A    -11.237138     9A    -11.226715
      10A    -11.215437    11A     -1.460713    12A     -1.388716
      13A     -1.254798    14A     -1.097120    15A     -1.036935
      16A     -0.987110    17A     -0.943519    18A     -0.840070
      19A     -0.790490    20A     -0.768747    21A     -0.711851
      22A     -0.682089    23A     -0.657964    24A     -0.645521
      25A     -0.620506    26A     -0.599451    27A     -0.579799
      28A     -0.571378    29A     -0.568901    30A     -0.563892
      31A     -0.541528    32A     -0.539010    33A     -0.509582
      34A     -0.453974    35A     -0.438562    36A     -0.381799
      37A     -0.289457

  @DF-RHF Final Energy:  -474.65480743751522

   => Energetics <=

    Nuclear Repulsion Energy =            508.8010478335846187
    One-Electron Energy =               -1655.6907325968279565
    Two-Electron Energy =                 672.2348773257281209
    Total Energy =                       -474.6548074375152737
  Basis Set: (AUG-CC-PVTZ AUX)
    Blend: AUG-CC-PVTZ-RI
    Molecular point group: c1

    Geometry (in Angstrom), charge = 0, multiplicity = 1:

       Center              X                  Y                   Z               Mass
    ------------   -----------------  -----------------  -----------------  -----------------
         O            0.836859768626     1.540851421059    -0.009463126019    15.994914619570
         O           -1.956772231374    -1.535407578941    -0.027057126019    15.994914619570
         N           -1.283825231374     0.648240421059    -0.018879126019    14.003074004430
         C            2.225747768626    -0.236569578941     0.006578873981    12.000000000000
         C            0.086081768626     0.401413421059    -0.008281126019    12.000000000000
         C            0.872022768626    -0.716337578941     0.000838873981    12.000000000000
         C            2.151763768626     1.126109421059     0.000302873981    12.000000000000
         C            3.467455768626    -1.070694578941     0.017152873981    12.000000000000
         C           -2.243279231374    -0.339128578941    -0.019589126019    12.000000000000
         C           -3.666074231374     0.172831421059     0.037369873981    12.000000000000
         H            0.520621768626    -1.736204578941     0.001884873981     1.007825032230
         H            2.885049768626     1.918651621059     0.201826273981     1.007825032230
         H           -1.557858231374     1.623546421059    -0.013599126019     1.007825032230
         H            3.514827768626    -1.719187578941    -0.862977126019     1.007825032230
         H            4.360417768626    -0.439239578941     0.019758873981     1.007825032230
         H            3.504671768626    -1.712118578941     0.902935873981     1.007825032230
         H           -3.792077231374     1.115988421059    -0.500883126019     1.007825032230
         H           -3.959557231374     0.326202421059     1.080315873981     1.007825032230
         H           -4.319364231374    -0.584117578941    -0.396621126019     1.007825032230

  Basis Set: AUG-CC-PVTZ
    Blend: AUG-CC-PVTZ
  Basis Set: (AUG-CC-PVTZ AUX)
    Blend: AUG-CC-PVTZ-JKFIT
	 Reference Energy          =    -474.6548074375152169 [Eh]
	 Singles Energy            =      -0.0000000000000000 [Eh]
	 Same-Spin Energy          =      -0.4898667483514468 [Eh]
	 Opposite-Spin Energy      =      -1.5241334895981631 [Eh]
	 Correlation Energy        =      -2.0140002379496100 [Eh]
	 Total Energy              =    -476.6688076754648478 [Eh]

	 ================> DF-SCS-MP2 Energies <==================
	-----------------------------------------------------------
	 SCS Same-Spin Scale       =       0.3333333333333333 [-]
	 SCS Opposite-Spin Scale   =       1.2000000000000000 [-]
	 SCS Same-Spin Energy      =      -0.1632889161171489 [Eh]
	 SCS Opposite-Spin Energy  =      -1.8289601875177957 [Eh]
	 SCS Correlation Energy    =      -1.9922491036349446 [Eh]
	 SCS Total Energy          =    -476.6470565411501639 [Eh]
	-----------------------------------------------------------

  Dipole Moment: [D]
     X:    -0.3980      Y:     2.5934      Z:     0.2712     Total:     2.6377

*** Psi4 exiting successfully. Buy a developer a beer!
