                               Psi4 1.3.2 release

  ==> Input File <==

--------------------------------------------------------------------------
#psi4
#
memory 32 gb

molecule  {
0 1
  O        0.8291000     1.5489640    -0.0096600
  O       -1.9645320    -1.5272950    -0.0272540
  N       -1.2915850     0.6563530    -0.0190760
  C        2.2179880    -0.2284570     0.0063820
  C        0.0783220     0.4095260    -0.0084780
  C        0.8629991    -0.7073319     0.2006360
  C        2.1440040     1.1342220     0.0001060
  C        3.4596960    -1.0625820     0.0169560
  C       -2.2510390    -0.3310160    -0.0197860
  C       -3.6738340     0.1809440     0.0371730
  H        0.5128620    -1.7280920     0.0016880
  H        2.8785440     1.9259390     0.0016350
  H       -1.5656180     1.6316590    -0.0137960
  H        3.5070680    -1.7110750    -0.8631740
  H        4.3526580    -0.4311270     0.0195620
  H        3.4969120    -1.7040060     0.9027390
  H       -3.7998370     1.1241010    -0.5010800
  H       -3.9673170     0.3343150     1.0801190
  H       -4.3271240    -0.5760050    -0.3968180
units angstrom
no_reorient  #important for SAPT in psi4, default
symmetry c1  #important for SAPT in psi4, default
}

set PROPERTIES_ORIGIN ["COM"]
properties('MP2/aug-cc-pvtz', properties = ['dipole'])
--------------------------------------------------------------------------

    Molecular point group: c1
  Charge       = 0
  Multiplicity = 1
  Basis Set: AUG-CC-PVTZ
    Blend: AUG-CC-PVTZ
  Basis Set: (AUG-CC-PVTZ AUX)
    Blend: AUG-CC-PVTZ-JKFIT

    Orbital Energies [Eh]
    ---------------------

    Doubly Occupied:

       1A    -20.624250     2A    -20.534749     3A    -15.619971
       4A    -11.371205     5A    -11.342008     6A    -11.273346
       7A    -11.250654     8A    -11.237579     9A    -11.225964
      10A    -11.218144    11A     -1.461909    12A     -1.389360
      13A     -1.256061    14A     -1.094091    15A     -1.037368
      16A     -0.985935    17A     -0.943964    18A     -0.840715
      19A     -0.790793    20A     -0.767698    21A     -0.709466
      22A     -0.683213    23A     -0.657820    24A     -0.647616
      25A     -0.621251    26A     -0.600285    27A     -0.580567
      28A     -0.571891    29A     -0.568366    30A     -0.556109
      31A     -0.542506    32A     -0.537595    33A     -0.506483
      34A     -0.454218    35A     -0.438821    36A     -0.380358
      37A     -0.289604

  @DF-RHF Final Energy:  -474.64622844169924

   => Energetics <=

    Nuclear Repulsion Energy =            508.3807509663158157
    One-Electron Energy =               -1654.8300915911838729
    Two-Electron Energy =                 671.8031121831687642
    Total Energy =                       -474.6462284416992361
  Basis Set: (AUG-CC-PVTZ AUX)
    Blend: AUG-CC-PVTZ-RI
    Molecular point group: c1

    Geometry (in Angstrom), charge = 0, multiplicity = 1:

       Center              X                  Y                   Z               Mass
    ------------   -----------------  -----------------  -----------------  -----------------
         O            0.836959744569     1.540780334433    -0.025271525405    15.994914619570
         O           -1.956672255431    -1.535478665567    -0.042865525405    15.994914619570
         N           -1.283725255431     0.648169334433    -0.034687525405    14.003074004430
         C            2.225847744569    -0.236640665567    -0.009229525405    12.000000000000
         C            0.086181744569     0.401342334433    -0.024089525405    12.000000000000
         C            0.870858844569    -0.715515565567     0.185024474595    12.000000000000
         C            2.151863744569     1.126038334433    -0.015505525405    12.000000000000
         C            3.467555744569    -1.070765665567     0.001344474595    12.000000000000
         C           -2.243179255431    -0.339199665567    -0.035397525405    12.000000000000
         C           -3.665974255431     0.172760334433     0.021561474595    12.000000000000
         H            0.520721744569    -1.736275665567    -0.013923525405     1.007825032230
         H            2.886403744569     1.917755334433    -0.013976525405     1.007825032230
         H           -1.557758255431     1.623475334433    -0.029407525405     1.007825032230
         H            3.514927744569    -1.719258665567    -0.878785525405     1.007825032230
         H            4.360517744569    -0.439310665567     0.003950474595     1.007825032230
         H            3.504771744569    -1.712189665567     0.887127474595     1.007825032230
         H           -3.791977255431     1.115917334433    -0.516691525405     1.007825032230
         H           -3.959457255431     0.326131334433     1.064507474595     1.007825032230
         H           -4.319264255431    -0.584188665567    -0.412429525405     1.007825032230

  Basis Set: AUG-CC-PVTZ
    Blend: AUG-CC-PVTZ
  Basis Set: (AUG-CC-PVTZ AUX)
    Blend: AUG-CC-PVTZ-JKFIT
	 Reference Energy          =    -474.6462284416992361 [Eh]
	 Singles Energy            =      -0.0000000000000000 [Eh]
	 Same-Spin Energy          =      -0.4902103620641436 [Eh]
	 Opposite-Spin Energy      =      -1.5251634229174236 [Eh]
	 Correlation Energy        =      -2.0153737849815672 [Eh]
	 Total Energy              =    -476.6616022266808272 [Eh]

	 ================> DF-SCS-MP2 Energies <==================
	-----------------------------------------------------------
	 SCS Same-Spin Scale       =       0.3333333333333333 [-]
	 SCS Opposite-Spin Scale   =       1.2000000000000000 [-]
	 SCS Same-Spin Energy      =      -0.1634034540213812 [Eh]
	 SCS Opposite-Spin Energy  =      -1.8301961075009081 [Eh]
	 SCS Correlation Energy    =      -1.9935995615222892 [Eh]
	 SCS Total Energy          =    -476.6398280032215098 [Eh]
	-----------------------------------------------------------

  Dipole Moment: [D]
     X:    -0.4061      Y:     2.6922      Z:    -0.0679     Total:     2.7235

*** Psi4 exiting successfully. Buy a developer a beer!
