                               Psi4 1.3.2 release

  ==> Input File <==

--------------------------------------------------------------------------
#psi4
#
memory 32 gb

molecule  {
0 1
  O        0.8291000     1.5489640    -0.0096600
  O       -1.9645320    -1.5272950    -0.0272540
  N       -1.2915850     0.6563530    -0.0190760
  C        2.2179880    -0.2284570     0.0063820
  C        0.0783220     0.4095260    -0.0084780
  C        0.8642630    -0.7082250     0.0006420
  C        2.1440040     1.1342220     0.0001060
  C        3.4596960    -1.0625820     0.0169560
  C       -2.2510390    -0.3310160    -0.0197860
  C       -3.6738340     0.1809440     0.0371730
  H        0.5128620    -1.7280920     0.0016880
  H        2.8785440     1.9259390     0.0016350
  H       -1.5653995     1.6317353    -0.0637955
  H        3.5070680    -1.7110750    -0.8631740
  H        4.3526580    -0.4311270     0.0195620
  H        3.4969120    -1.7040060     0.9027390
  H       -3.7998370     1.1241010    -0.5010800
  H       -3.9673170     0.3343150     1.0801190
  H       -4.3271240    -0.5760050    -0.3968180
units angstrom
no_reorient  #important for SAPT in psi4, default
symmetry c1  #important for SAPT in psi4, default
}

set PROPERTIES_ORIGIN ["COM"]
properties('MP2/aug-cc-pvtz', properties = ['dipole'])
--------------------------------------------------------------------------

    Molecular point group: c1
  Charge       = 0
  Multiplicity = 1
  Basis Set: AUG-CC-PVTZ
    Blend: AUG-CC-PVTZ
  Basis Set: (AUG-CC-PVTZ AUX)
    Blend: AUG-CC-PVTZ-JKFIT

    Orbital Energies [Eh]
    ---------------------

    Doubly Occupied:

       1A    -20.622948     2A    -20.533789     3A    -15.618408
       4A    -11.370185     5A    -11.336610     6A    -11.273384
       7A    -11.249955     8A    -11.236498     9A    -11.226517
      10A    -11.215131    11A     -1.460696    12A     -1.388460
      13A     -1.254389    14A     -1.096794    15A     -1.036841
      16A     -0.987134    17A     -0.943814    18A     -0.840067
      19A     -0.791499    20A     -0.768783    21A     -0.711574
      22A     -0.682548    23A     -0.656992    24A     -0.648122
      25A     -0.620333    26A     -0.599442    27A     -0.581531
      28A     -0.571413    29A     -0.568783    30A     -0.563961
      31A     -0.541490    32A     -0.538705    33A     -0.510020
      34A     -0.453825    35A     -0.438317    36A     -0.381661
      37A     -0.289197

  @DF-RHF Final Energy:  -474.65674908532168

   => Energetics <=

    Nuclear Repulsion Energy =            508.8677774418723061
    One-Electron Energy =               -1655.8294199352085343
    Two-Electron Energy =                 672.3048934080146637
    Total Energy =                       -474.6567490853216214
  Basis Set: (AUG-CC-PVTZ AUX)
    Blend: AUG-CC-PVTZ-RI
    Molecular point group: c1

    Geometry (in Angstrom), charge = 0, multiplicity = 1:

       Center              X                  Y                   Z               Mass
    ------------   -----------------  -----------------  -----------------  -----------------
         O            0.836849097068     1.540856848516    -0.007651360740    15.994914619570
         O           -1.956782902932    -1.535402151484    -0.025245360740    15.994914619570
         N           -1.283835902932     0.648245848516    -0.017067360740    14.003074004430
         C            2.225737097068    -0.236564151484     0.008390639260    12.000000000000
         C            0.086071097068     0.401418848516    -0.006469360740    12.000000000000
         C            0.872012097068    -0.716332151484     0.002650639260    12.000000000000
         C            2.151753097068     1.126114848516     0.002114639260    12.000000000000
         C            3.467445097068    -1.070689151484     0.018964639260    12.000000000000
         C           -2.243289902932    -0.339123151484    -0.017777360740    12.000000000000
         C           -3.666084902932     0.172836848516     0.039181639260    12.000000000000
         H            0.520611097068    -1.736199151484     0.003696639260     1.007825032230
         H            2.886293097068     1.917831848516     0.003643639260     1.007825032230
         H           -1.557650402932     1.623628148516    -0.061786860740     1.007825032230
         H            3.514817097068    -1.719182151484    -0.861165360740     1.007825032230
         H            4.360407097068    -0.439234151484     0.021570639260     1.007825032230
         H            3.504661097068    -1.712113151484     0.904747639260     1.007825032230
         H           -3.792087902932     1.115993848516    -0.499071360740     1.007825032230
         H           -3.959567902932     0.326207848516     1.082127639260     1.007825032230
         H           -4.319374902932    -0.584112151484    -0.394809360740     1.007825032230

  Basis Set: AUG-CC-PVTZ
    Blend: AUG-CC-PVTZ
  Basis Set: (AUG-CC-PVTZ AUX)
    Blend: AUG-CC-PVTZ-JKFIT
	 Reference Energy          =    -474.6567490853216782 [Eh]
	 Singles Energy            =      -0.0000000000000000 [Eh]
	 Same-Spin Energy          =      -0.4897419608681053 [Eh]
	 Opposite-Spin Energy      =      -1.5238780903655056 [Eh]
	 Correlation Energy        =      -2.0136200512336111 [Eh]
	 Total Energy              =    -476.6703691365552800 [Eh]

	 ================> DF-SCS-MP2 Energies <==================
	-----------------------------------------------------------
	 SCS Same-Spin Scale       =       0.3333333333333333 [-]
	 SCS Opposite-Spin Scale   =       1.2000000000000000 [-]
	 SCS Same-Spin Energy      =      -0.1632473202893684 [Eh]
	 SCS Opposite-Spin Energy  =      -1.8286537084386065 [Eh]
	 SCS Correlation Energy    =      -1.9919010287279750 [Eh]
	 SCS Total Energy          =    -476.6486501140496443 [Eh]
	-----------------------------------------------------------

  Dipole Moment: [D]
     X:    -0.3639      Y:     2.6254      Z:     0.0284     Total:     2.6507

*** Psi4 exiting successfully. Buy a developer a beer!
