                               Psi4 1.3.2 release

  ==> Input File <==

--------------------------------------------------------------------------
#psi4
#
memory 32 gb

molecule  {
0 1
  O        0.8291000     1.5489640    -0.0096600
  O       -1.9645320    -1.5272950    -0.0272540
  N       -1.2915850     0.6563530    -0.0190760
  C        2.2179880    -0.2284570     0.0063820
  C        0.0783220     0.4095260    -0.0084780
  C        0.8642630    -0.7082250     0.0006420
  C        2.1440040     1.1342220     0.0001060
  C        3.4596960    -1.0625820     0.0169560
  C       -2.2510390    -0.3310160    -0.0197860
  C       -3.6738340     0.1809440     0.0371730
  H        0.5128620    -1.7280920     0.0016880
  H        2.8785440     1.9259390     0.0016350
  H       -1.5656180     1.6316590    -0.0137960
  H        3.5070680    -1.7110750    -0.8631740
  H        4.3526580    -0.4311270     0.0195620
  H        3.4969120    -1.7040060     0.9027390
  H       -3.7998370     1.1241010    -0.5010800
  H       -3.9673170     0.3343150     1.0801190
  H       -4.3271240    -0.5760050    -0.3968180
units angstrom
no_reorient  #important for SAPT in psi4, default
symmetry c1  #important for SAPT in psi4, default
}

set PROPERTIES_ORIGIN ["COM"]
properties('MP2/aug-cc-pvtz', properties = ['dipole'])
--------------------------------------------------------------------------

    Molecular point group: c1
  Charge       = 0
  Multiplicity = 1
  Basis Set: AUG-CC-PVTZ
    Blend: AUG-CC-PVTZ
  Basis Set: (AUG-CC-PVTZ AUX)
    Blend: AUG-CC-PVTZ-JKFIT

    Orbital Energies [Eh]
    ---------------------

    Doubly Occupied:

       1A    -20.622955     2A    -20.533754     3A    -15.618345
       4A    -11.370189     5A    -11.336627     6A    -11.273385
       7A    -11.249931     8A    -11.236502     9A    -11.226518
      10A    -11.215129    11A     -1.460708    12A     -1.388449
      13A     -1.254504    14A     -1.096798    15A     -1.036854
      16A     -0.987154    17A     -0.943819    18A     -0.840120
      19A     -0.791621    20A     -0.768862    21A     -0.711611
      22A     -0.682572    23A     -0.657035    24A     -0.648120
      25A     -0.620351    26A     -0.599473    27A     -0.581534
      28A     -0.571391    29A     -0.568780    30A     -0.563964
      31A     -0.541516    32A     -0.538724    33A     -0.510024
      34A     -0.453821    35A     -0.438306    36A     -0.381662
      37A     -0.289189

  @DF-RHF Final Energy:  -474.65682517039579

   => Energetics <=

    Nuclear Repulsion Energy =            508.8738410182695588
    One-Electron Energy =               -1655.8407382732000315
    Two-Electron Energy =                 672.3100720845346814
    Total Energy =                       -474.6568251703957912
  Basis Set: (AUG-CC-PVTZ AUX)
    Blend: AUG-CC-PVTZ-RI
    Molecular point group: c1

    Geometry (in Angstrom), charge = 0, multiplicity = 1:

       Center              X                  Y                   Z               Mass
    ------------   -----------------  -----------------  -----------------  -----------------
         O            0.836850680589     1.540857401480    -0.008013719014    15.994914619570
         O           -1.956781319411    -1.535401598520    -0.025607719014    15.994914619570
         N           -1.283834319411     0.648246401480    -0.017429719014    14.003074004430
         C            2.225738680589    -0.236563598520     0.008028280986    12.000000000000
         C            0.086072680589     0.401419401480    -0.006831719014    12.000000000000
         C            0.872013680589    -0.716331598520     0.002288280986    12.000000000000
         C            2.151754680589     1.126115401480     0.001752280986    12.000000000000
         C            3.467446680589    -1.070688598520     0.018602280986    12.000000000000
         C           -2.243288319411    -0.339122598520    -0.018139719014    12.000000000000
         C           -3.666083319411     0.172837401480     0.038819280986    12.000000000000
         H            0.520612680589    -1.736198598520     0.003334280986     1.007825032230
         H            2.886294680589     1.917832401480     0.003281280986     1.007825032230
         H           -1.557867319411     1.623552401480    -0.012149719014     1.007825032230
         H            3.514818680589    -1.719181598520    -0.861527719014     1.007825032230
         H            4.360408680589    -0.439233598520     0.021208280986     1.007825032230
         H            3.504662680589    -1.712112598520     0.904385280986     1.007825032230
         H           -3.792086319411     1.115994401480    -0.499433719014     1.007825032230
         H           -3.959566319411     0.326208401480     1.081765280986     1.007825032230
         H           -4.319373319411    -0.584111598520    -0.395171719014     1.007825032230

  Basis Set: AUG-CC-PVTZ
    Blend: AUG-CC-PVTZ
  Basis Set: (AUG-CC-PVTZ AUX)
    Blend: AUG-CC-PVTZ-JKFIT
	 Reference Energy          =    -474.6568251703957912 [Eh]
	 Singles Energy            =      -0.0000000000000000 [Eh]
	 Same-Spin Energy          =      -0.4897334742980000 [Eh]
	 Opposite-Spin Energy      =      -1.5238555102790987 [Eh]
	 Correlation Energy        =      -2.0135889845770985 [Eh]
	 Total Energy              =    -476.6704141549728888 [Eh]

	 ================> DF-SCS-MP2 Energies <==================
	-----------------------------------------------------------
	 SCS Same-Spin Scale       =       0.3333333333333333 [-]
	 SCS Opposite-Spin Scale   =       1.2000000000000000 [-]
	 SCS Same-Spin Energy      =      -0.1632444914326666 [Eh]
	 SCS Opposite-Spin Energy  =      -1.8286266123349184 [Eh]
	 SCS Correlation Energy    =      -1.9918711037675851 [Eh]
	 SCS Total Energy          =    -476.6486962741633988 [Eh]
	-----------------------------------------------------------

  Dipole Moment: [D]
     X:    -0.3646      Y:     2.6269      Z:     0.0950     Total:     2.6537

*** Psi4 exiting successfully. Buy a developer a beer!
