                               Psi4 1.3.2 release

  ==> Input File <==

--------------------------------------------------------------------------
#psi4
#
memory 32 gb

molecule  {
0 1
  O        0.8291000     1.5489640    -0.0096600
  O       -1.9645320    -1.5272950    -0.0272540
  N       -1.2915850     0.6563530    -0.0190760
  C        2.2179880    -0.2284570     0.0063820
  C        0.0783220     0.4095260    -0.0084780
  C        0.8642630    -0.7082250     0.0006420
  C        2.1440040     1.1342220     0.0001060
  C        3.4596960    -1.0625820     0.0169560
  C       -2.2510390    -0.3310160    -0.0197860
  C       -3.6738340     0.1809440     0.0371730
  H        0.5128620    -1.7280920     0.0016880
  H        2.8776035     1.9265579     0.1516308
  H       -1.5656180     1.6316590    -0.0137960
  H        3.5070680    -1.7110750    -0.8631740
  H        4.3526580    -0.4311270     0.0195620
  H        3.4969120    -1.7040060     0.9027390
  H       -3.7998370     1.1241010    -0.5010800
  H       -3.9673170     0.3343150     1.0801190
  H       -4.3271240    -0.5760050    -0.3968180
units angstrom
no_reorient  #important for SAPT in psi4, default
symmetry c1  #important for SAPT in psi4, default
}

set PROPERTIES_ORIGIN ["COM"]
properties('MP2/aug-cc-pvtz', properties = ['dipole'])
--------------------------------------------------------------------------

    Molecular point group: c1
  Charge       = 0
  Multiplicity = 1
  Basis Set: AUG-CC-PVTZ
    Blend: AUG-CC-PVTZ
  Basis Set: (AUG-CC-PVTZ AUX)
    Blend: AUG-CC-PVTZ-JKFIT

    Orbital Energies [Eh]
    ---------------------

    Doubly Occupied:

       1A    -20.622861     2A    -20.533906     3A    -15.618525
       4A    -11.370343     5A    -11.336977     6A    -11.273962
       7A    -11.250038     8A    -11.236862     9A    -11.226630
      10A    -11.215304    11A     -1.460709    12A     -1.388599
      13A     -1.254670    14A     -1.096981    15A     -1.036899
      16A     -0.987126    17A     -0.943646    18A     -0.840088
      19A     -0.790965    20A     -0.768799    21A     -0.711747
      22A     -0.682298    23A     -0.657593    24A     -0.646593
      25A     -0.620441    26A     -0.599451    27A     -0.580547
      28A     -0.571416    29A     -0.568845    30A     -0.563933
      31A     -0.541514    32A     -0.538888    33A     -0.509780
      34A     -0.453909    35A     -0.438450    36A     -0.381739
      37A     -0.289341

  @DF-RHF Final Energy:  -474.65573040562714

   => Energetics <=

    Nuclear Repulsion Energy =            508.8325802566586731
    One-Electron Energy =               -1655.7558701236462184
    Two-Electron Energy =                 672.2675594613604062
    Total Energy =                       -474.6557304056270823
  Basis Set: (AUG-CC-PVTZ AUX)
    Blend: AUG-CC-PVTZ-RI
    Molecular point group: c1

    Geometry (in Angstrom), charge = 0, multiplicity = 1:

       Center              X                  Y                   Z               Mass
    ------------   -----------------  -----------------  -----------------  -----------------
         O            0.836857496617     1.540852916164    -0.009100774268    15.994914619570
         O           -1.956774503383    -1.535406083836    -0.026694774268    15.994914619570
         N           -1.283827503383     0.648241916164    -0.018516774268    14.003074004430
         C            2.225745496617    -0.236568083836     0.006941225732    12.000000000000
         C            0.086079496617     0.401414916164    -0.007918774268    12.000000000000
         C            0.872020496617    -0.716336083836     0.001201225732    12.000000000000
         C            2.151761496617     1.126110916164     0.000665225732    12.000000000000
         C            3.467453496617    -1.070693083836     0.017515225732    12.000000000000
         C           -2.243281503383    -0.339127083836    -0.019226774268    12.000000000000
         C           -3.666076503383     0.172832916164     0.037732225732    12.000000000000
         H            0.520619496617    -1.736203083836     0.002247225732     1.007825032230
         H            2.885360996617     1.918446816164     0.152190025732     1.007825032230
         H           -1.557860503383     1.623547916164    -0.013236774268     1.007825032230
         H            3.514825496617    -1.719186083836    -0.862614774268     1.007825032230
         H            4.360415496617    -0.439238083836     0.020121225732     1.007825032230
         H            3.504669496617    -1.712117083836     0.903298225732     1.007825032230
         H           -3.792079503383     1.115989916164    -0.500520774268     1.007825032230
         H           -3.959559503383     0.326203916164     1.080678225732     1.007825032230
         H           -4.319366503383    -0.584116083836    -0.396258774268     1.007825032230

  Basis Set: AUG-CC-PVTZ
    Blend: AUG-CC-PVTZ
  Basis Set: (AUG-CC-PVTZ AUX)
    Blend: AUG-CC-PVTZ-JKFIT
	 Reference Energy          =    -474.6557304056271391 [Eh]
	 Singles Energy            =      -0.0000000000000000 [Eh]
	 Same-Spin Energy          =      -0.4898090860623000 [Eh]
	 Opposite-Spin Energy      =      -1.5240072995190177 [Eh]
	 Correlation Energy        =      -2.0138163855813178 [Eh]
	 Total Energy              =    -476.6695467912084609 [Eh]

	 ================> DF-SCS-MP2 Energies <==================
	-----------------------------------------------------------
	 SCS Same-Spin Scale       =       0.3333333333333333 [-]
	 SCS Opposite-Spin Scale   =       1.2000000000000000 [-]
	 SCS Same-Spin Energy      =      -0.1632696953541000 [Eh]
	 SCS Opposite-Spin Energy  =      -1.8288087594228211 [Eh]
	 SCS Correlation Energy    =      -1.9920784547769210 [Eh]
	 SCS Total Energy          =    -476.6478088604040408 [Eh]
	-----------------------------------------------------------

  Dipole Moment: [D]
     X:    -0.3837      Y:     2.6079      Z:     0.2279     Total:     2.6458

*** Psi4 exiting successfully. Buy a developer a beer!
