                               Psi4 1.3.2 release

  ==> Input File <==

--------------------------------------------------------------------------
#psi4
#
memory 32 gb

molecule  {
0 1
  O        0.8291000     1.5489640    -0.0096600
  O       -1.9645320    -1.5272950    -0.0272540
  N       -1.2915850     0.6563530    -0.0190760
  C        2.2179880    -0.2284570     0.0063820
  C        0.0783220     0.4095260    -0.0084780
  C        0.8633151    -0.7075552     0.1506375
  C        2.1440040     1.1342220     0.0001060
  C        3.4596960    -1.0625820     0.0169560
  C       -2.2510390    -0.3310160    -0.0197860
  C       -3.6738340     0.1809440     0.0371730
  H        0.5128620    -1.7280920     0.0016880
  H        2.8785440     1.9259390     0.0016350
  H       -1.5656180     1.6316590    -0.0137960
  H        3.5070680    -1.7110750    -0.8631740
  H        4.3526580    -0.4311270     0.0195620
  H        3.4969120    -1.7040060     0.9027390
  H       -3.7998370     1.1241010    -0.5010800
  H       -3.9673170     0.3343150     1.0801190
  H       -4.3271240    -0.5760050    -0.3968180
units angstrom
no_reorient  #important for SAPT in psi4, default
symmetry c1  #important for SAPT in psi4, default
}

set PROPERTIES_ORIGIN ["COM"]
properties('MP2/aug-cc-pvtz', properties = ['dipole'])
--------------------------------------------------------------------------

    Molecular point group: c1
  Charge       = 0
  Multiplicity = 1
  Basis Set: AUG-CC-PVTZ
    Blend: AUG-CC-PVTZ
  Basis Set: (AUG-CC-PVTZ AUX)
    Blend: AUG-CC-PVTZ-JKFIT

    Orbital Energies [Eh]
    ---------------------

    Doubly Occupied:

       1A    -20.623685     2A    -20.534313     3A    -15.619260
       4A    -11.370761     5A    -11.339684     6A    -11.273357
       7A    -11.250336     8A    -11.237126     9A    -11.226206
      10A    -11.216840    11A     -1.461386    12A     -1.388960
      13A     -1.255382    14A     -1.095268    15A     -1.037139
      16A     -0.986479    17A     -0.943904    18A     -0.840454
      19A     -0.791125    20A     -0.768164    21A     -0.710397
      22A     -0.682933    23A     -0.657474    24A     -0.647828
      25A     -0.620875    26A     -0.599928    27A     -0.580941
      28A     -0.571645    29A     -0.568510    30A     -0.559612
      31A     -0.542120    32A     -0.538021    33A     -0.508049
      34A     -0.454041    35A     -0.438603    36A     -0.380914
      37A     -0.289423

  @DF-RHF Final Energy:  -474.65089963164286

   => Energetics <=

    Nuclear Repulsion Energy =            508.5951141472961012
    One-Electron Energy =               -1655.2697348952260654
    Two-Electron Energy =                 672.0237211162871063
    Total Energy =                       -474.6508996316429148
  Basis Set: (AUG-CC-PVTZ AUX)
    Blend: AUG-CC-PVTZ-RI
    Molecular point group: c1

    Geometry (in Angstrom), charge = 0, multiplicity = 1:

       Center              X                  Y                   Z               Mass
    ------------   -----------------  -----------------  -----------------  -----------------
         O            0.836932476417     1.540799603352    -0.020957073807    15.994914619570
         O           -1.956699523583    -1.535459396648    -0.038551073807    15.994914619570
         N           -1.283752523583     0.648188603352    -0.030373073807    14.003074004430
         C            2.225820476417    -0.236621396648    -0.004915073807    12.000000000000
         C            0.086154476417     0.401361603352    -0.019775073807    12.000000000000
         C            0.871147576417    -0.715719596648     0.139340426193    12.000000000000
         C            2.151836476417     1.126057603352    -0.011191073807    12.000000000000
         C            3.467528476417    -1.070746396648     0.005658926193    12.000000000000
         C           -2.243206523583    -0.339180396648    -0.031083073807    12.000000000000
         C           -3.666001523583     0.172779603352     0.025875926193    12.000000000000
         H            0.520694476417    -1.736256396648    -0.009609073807     1.007825032230
         H            2.886376476417     1.917774603352    -0.009662073807     1.007825032230
         H           -1.557785523583     1.623494603352    -0.025093073807     1.007825032230
         H            3.514900476417    -1.719239396648    -0.874471073807     1.007825032230
         H            4.360490476417    -0.439291396648     0.008264926193     1.007825032230
         H            3.504744476417    -1.712170396648     0.891441926193     1.007825032230
         H           -3.792004523583     1.115936603352    -0.512377073807     1.007825032230
         H           -3.959484523583     0.326150603352     1.068821926193     1.007825032230
         H           -4.319291523583    -0.584169396648    -0.408115073807     1.007825032230

  Basis Set: AUG-CC-PVTZ
    Blend: AUG-CC-PVTZ
  Basis Set: (AUG-CC-PVTZ AUX)
    Blend: AUG-CC-PVTZ-JKFIT
	 Reference Energy          =    -474.6508996316428579 [Eh]
	 Singles Energy            =      -0.0000000000000000 [Eh]
	 Same-Spin Energy          =      -0.4900030484983400 [Eh]
	 Opposite-Spin Energy      =      -1.5245371262518650 [Eh]
	 Correlation Energy        =      -2.0145401747502052 [Eh]
	 Total Energy              =    -476.6654398063930671 [Eh]

	 ================> DF-SCS-MP2 Energies <==================
	-----------------------------------------------------------
	 SCS Same-Spin Scale       =       0.3333333333333333 [-]
	 SCS Opposite-Spin Scale   =       1.2000000000000000 [-]
	 SCS Same-Spin Energy      =      -0.1633343494994467 [Eh]
	 SCS Opposite-Spin Energy  =      -1.8294445515022379 [Eh]
	 SCS Correlation Energy    =      -1.9927789010016845 [Eh]
	 SCS Total Energy          =    -476.6436785326445147 [Eh]
	-----------------------------------------------------------

  Dipole Moment: [D]
     X:    -0.3875      Y:     2.6640      Z:    -0.0261     Total:     2.6921

*** Psi4 exiting successfully. Buy a developer a beer!
