                               Psi4 1.3.2 release

  ==> Input File <==

--------------------------------------------------------------------------
#psi4
#
memory 32 gb

molecule  {
0 1
  O        0.8291000     1.5489640    -0.0096600
  O       -1.9645320    -1.5272950    -0.0272540
  N       -1.2915850     0.6563530    -0.0190760
  C        2.2179880    -0.2284570     0.0063820
  C        0.0783220     0.4095260    -0.0084780
  C        0.8626831    -0.7071086     0.2506345
  C        2.1440040     1.1342220     0.0001060
  C        3.4596960    -1.0625820     0.0169560
  C       -2.2510390    -0.3310160    -0.0197860
  C       -3.6738340     0.1809440     0.0371730
  H        0.5128620    -1.7280920     0.0016880
  H        2.8785440     1.9259390     0.0016350
  H       -1.5656180     1.6316590    -0.0137960
  H        3.5070680    -1.7110750    -0.8631740
  H        4.3526580    -0.4311270     0.0195620
  H        3.4969120    -1.7040060     0.9027390
  H       -3.7998370     1.1241010    -0.5010800
  H       -3.9673170     0.3343150     1.0801190
  H       -4.3271240    -0.5760050    -0.3968180
units angstrom
no_reorient  #important for SAPT in psi4, default
symmetry c1  #important for SAPT in psi4, default
}

set PROPERTIES_ORIGIN ["COM"]
properties('MP2/aug-cc-pvtz', properties = ['dipole'])
--------------------------------------------------------------------------

    Molecular point group: c1
  Charge       = 0
  Multiplicity = 1
  Basis Set: AUG-CC-PVTZ
    Blend: AUG-CC-PVTZ
  Basis Set: (AUG-CC-PVTZ AUX)
    Blend: AUG-CC-PVTZ-JKFIT

    Orbital Energies [Eh]
    ---------------------

    Doubly Occupied:

       1A    -20.624976     2A    -20.535308     3A    -15.620881
       4A    -11.371772     5A    -11.344936     6A    -11.273351
       7A    -11.251061     8A    -11.238125     9A    -11.225656
      10A    -11.219793    11A     -1.462580    12A     -1.389872
      13A     -1.256927    14A     -1.092598    15A     -1.037669
      16A     -0.985223    17A     -0.944036    18A     -0.841049
      19A     -0.790430    20A     -0.767179    21A     -0.708294
      22A     -0.683585    23A     -0.658251    24A     -0.647362
      25A     -0.621711    26A     -0.600744    27A     -0.580143
      28A     -0.572249    29A     -0.568196    30A     -0.551601
      31A     -0.542964    32A     -0.537113    33A     -0.504425
      34A     -0.454446    35A     -0.439083    36A     -0.379682
      37A     -0.289860

  @DF-RHF Final Energy:  -474.64015913009922

   => Energetics <=

    Nuclear Repulsion Energy =            508.1084783024476792
    One-Electron Energy =               -1654.2710126408737779
    Two-Electron Energy =                 671.5223752083269346
    Total Energy =                       -474.6401591300992777
  Basis Set: (AUG-CC-PVTZ AUX)
    Blend: AUG-CC-PVTZ-RI
    Molecular point group: c1

    Geometry (in Angstrom), charge = 0, multiplicity = 1:

       Center              X                  Y                   Z               Mass
    ------------   -----------------  -----------------  -----------------  -----------------
         O            0.836987012721     1.540761065515    -0.029585977003    15.994914619570
         O           -1.956644987279    -1.535497934485    -0.047179977003    15.994914619570
         N           -1.283697987279     0.648150065515    -0.039001977003    14.003074004430
         C            2.225875012721    -0.236659934485    -0.013543977003    12.000000000000
         C            0.086209012721     0.401323065515    -0.028403977003    12.000000000000
         C            0.870570112721    -0.715311534485     0.230708522997    12.000000000000
         C            2.151891012721     1.126019065515    -0.019819977003    12.000000000000
         C            3.467583012721    -1.070784934485    -0.002969977003    12.000000000000
         C           -2.243151987279    -0.339218934485    -0.039711977003    12.000000000000
         C           -3.665946987279     0.172741065515     0.017247022997    12.000000000000
         H            0.520749012721    -1.736294934485    -0.018237977003     1.007825032230
         H            2.886431012721     1.917736065515    -0.018290977003     1.007825032230
         H           -1.557730987279     1.623456065515    -0.033721977003     1.007825032230
         H            3.514955012721    -1.719277934485    -0.883099977003     1.007825032230
         H            4.360545012721    -0.439329934485    -0.000363977003     1.007825032230
         H            3.504799012721    -1.712208934485     0.882813022997     1.007825032230
         H           -3.791949987279     1.115898065515    -0.521005977003     1.007825032230
         H           -3.959429987279     0.326112065515     1.060193022997     1.007825032230
         H           -4.319236987279    -0.584207934485    -0.416743977003     1.007825032230

  Basis Set: AUG-CC-PVTZ
    Blend: AUG-CC-PVTZ
  Basis Set: (AUG-CC-PVTZ AUX)
    Blend: AUG-CC-PVTZ-JKFIT
	 Reference Energy          =    -474.6401591300992209 [Eh]
	 Singles Energy            =      -0.0000000000000000 [Eh]
	 Same-Spin Energy          =      -0.4904696443109316 [Eh]
	 Opposite-Spin Energy      =      -1.5260007657185457 [Eh]
	 Correlation Energy        =      -2.0164704100294775 [Eh]
	 Total Energy              =    -476.6566295401286766 [Eh]

	 ================> DF-SCS-MP2 Energies <==================
	-----------------------------------------------------------
	 SCS Same-Spin Scale       =       0.3333333333333333 [-]
	 SCS Opposite-Spin Scale   =       1.2000000000000000 [-]
	 SCS Same-Spin Energy      =      -0.1634898814369772 [Eh]
	 SCS Opposite-Spin Energy  =      -1.8312009188622547 [Eh]
	 SCS Correlation Energy    =      -1.9946908002992318 [Eh]
	 SCS Total Energy          =    -476.6348499303984454 [Eh]
	-----------------------------------------------------------

  Dipole Moment: [D]
     X:    -0.4297      Y:     2.7276      Z:    -0.1104     Total:     2.7634

*** Psi4 exiting successfully. Buy a developer a beer!
