                               Psi4 1.3.2 release

  ==> Input File <==

--------------------------------------------------------------------------
#psi4
#
memory 32 gb

molecule  {
0 1
  O        0.8291000     1.5489640    -0.0096600
  O       -1.9645320    -1.5272950    -0.0272540
  N       -1.2915850     0.6563530    -0.0190760
  C        2.2179880    -0.2284570     0.0063820
  C        0.0783220     0.4095260    -0.0084780
  C        0.8642630    -0.7082250     0.0006420
  C        2.1440040     1.1342220     0.0001060
  C        3.4596960    -1.0625820     0.0169560
  C       -2.2510390    -0.3310160    -0.0197860
  C       -3.6738340     0.1809440     0.0371730
  H        0.5128620    -1.7280920     0.0016880
  H        2.8785440     1.9259390     0.0016350
  H       -1.5651811     1.6318116    -0.1137949
  H        3.5070680    -1.7110750    -0.8631740
  H        4.3526580    -0.4311270     0.0195620
  H        3.4969120    -1.7040060     0.9027390
  H       -3.7998370     1.1241010    -0.5010800
  H       -3.9673170     0.3343150     1.0801190
  H       -4.3271240    -0.5760050    -0.3968180
units angstrom
no_reorient  #important for SAPT in psi4, default
symmetry c1  #important for SAPT in psi4, default
}

set PROPERTIES_ORIGIN ["COM"]
properties('MP2/aug-cc-pvtz', properties = ['dipole'])
--------------------------------------------------------------------------

    Molecular point group: c1
  Charge       = 0
  Multiplicity = 1
  Basis Set: AUG-CC-PVTZ
    Blend: AUG-CC-PVTZ
  Basis Set: (AUG-CC-PVTZ AUX)
    Blend: AUG-CC-PVTZ-JKFIT

    Orbital Energies [Eh]
    ---------------------

    Doubly Occupied:

       1A    -20.622915     2A    -20.533885     3A    -15.618593
       4A    -11.370170     5A    -11.336532     6A    -11.273389
       7A    -11.249959     8A    -11.236486     9A    -11.226514
      10A    -11.215147    11A     -1.460649    12A     -1.388486
      13A     -1.254001    14A     -1.096781    15A     -1.036804
      16A     -0.987056    17A     -0.943796    18A     -0.839875
      19A     -0.791029    20A     -0.768458    21A     -0.711388
      22A     -0.682504    23A     -0.656883    24A     -0.648110
      25A     -0.620322    26A     -0.599329    27A     -0.581521
      28A     -0.571415    29A     -0.568784    30A     -0.563944
      31A     -0.541541    32A     -0.538520    33A     -0.509990
      34A     -0.453838    35A     -0.438329    36A     -0.381654
      37A     -0.289240

  @DF-RHF Final Energy:  -474.65649026137447

   => Energetics <=

    Nuclear Repulsion Energy =            508.8488263197595529
    One-Electron Energy =               -1655.7949634901597165
    Two-Electron Energy =                 672.2896469090255778
    Total Energy =                       -474.6564902613745289
  Basis Set: (AUG-CC-PVTZ AUX)
    Blend: AUG-CC-PVTZ-RI
    Molecular point group: c1

    Geometry (in Angstrom), charge = 0, multiplicity = 1:

       Center              X                  Y                   Z               Mass
    ------------   -----------------  -----------------  -----------------  -----------------
         O            0.836847514271     1.540856295551    -0.007289003190    15.994914619570
         O           -1.956784485729    -1.535402704449    -0.024883003190    15.994914619570
         N           -1.283837485729     0.648245295551    -0.016705003190    14.003074004430
         C            2.225735514271    -0.236564704449     0.008752996810    12.000000000000
         C            0.086069514271     0.401418295551    -0.006107003190    12.000000000000
         C            0.872010514271    -0.716332704449     0.003012996810    12.000000000000
         C            2.151751514271     1.126114295551     0.002476996810    12.000000000000
         C            3.467443514271    -1.070689704449     0.019326996810    12.000000000000
         C           -2.243291485729    -0.339123704449    -0.017415003190    12.000000000000
         C           -3.666086485729     0.172836295551     0.039543996810    12.000000000000
         H            0.520609514271    -1.736199704449     0.004058996810     1.007825032230
         H            2.886291514271     1.917831295551     0.004005996810     1.007825032230
         H           -1.557433585729     1.623703895551    -0.111423903190     1.007825032230
         H            3.514815514271    -1.719182704449    -0.860803003190     1.007825032230
         H            4.360405514271    -0.439234704449     0.021932996810     1.007825032230
         H            3.504659514271    -1.712113704449     0.905109996810     1.007825032230
         H           -3.792089485729     1.115993295551    -0.498709003190     1.007825032230
         H           -3.959569485729     0.326207295551     1.082489996810     1.007825032230
         H           -4.319376485729    -0.584112704449    -0.394447003190     1.007825032230

  Basis Set: AUG-CC-PVTZ
    Blend: AUG-CC-PVTZ
  Basis Set: (AUG-CC-PVTZ AUX)
    Blend: AUG-CC-PVTZ-JKFIT
	 Reference Energy          =    -474.6564902613744721 [Eh]
	 Singles Energy            =      -0.0000000000000000 [Eh]
	 Same-Spin Energy          =      -0.4897682237000058 [Eh]
	 Opposite-Spin Energy      =      -1.5239507565969932 [Eh]
	 Correlation Energy        =      -2.0137189802969990 [Eh]
	 Total Energy              =    -476.6702092416714436 [Eh]

	 ================> DF-SCS-MP2 Energies <==================
	-----------------------------------------------------------
	 SCS Same-Spin Scale       =       0.3333333333333333 [-]
	 SCS Opposite-Spin Scale   =       1.2000000000000000 [-]
	 SCS Same-Spin Energy      =      -0.1632560745666686 [Eh]
	 SCS Opposite-Spin Energy  =      -1.8287409079163917 [Eh]
	 SCS Correlation Energy    =      -1.9919969824830603 [Eh]
	 SCS Total Energy          =    -476.6484872438575167 [Eh]
	-----------------------------------------------------------

  Dipole Moment: [D]
     X:    -0.3632      Y:     2.6207      Z:    -0.0381     Total:     2.6460

*** Psi4 exiting successfully. Buy a developer a beer!
