                               Psi4 1.3.2 release

  ==> Input File <==

--------------------------------------------------------------------------
#psi4
#
memory 32 gb

molecule  {
0 1
  O        0.8291000     1.5489640    -0.0096600
  O       -1.9645320    -1.5272950    -0.0272540
  N       -1.2915850     0.6563530    -0.0190760
  C        2.2179880    -0.2284570     0.0063820
  C        0.0783220     0.4095260    -0.0084780
  C        0.8639470    -0.7080017     0.0506405
  C        2.1440040     1.1342220     0.0001060
  C        3.4596960    -1.0625820     0.0169560
  C       -2.2510390    -0.3310160    -0.0197860
  C       -3.6738340     0.1809440     0.0371730
  H        0.5128620    -1.7280920     0.0016880
  H        2.8785440     1.9259390     0.0016350
  H       -1.5656180     1.6316590    -0.0137960
  H        3.5070680    -1.7110750    -0.8631740
  H        4.3526580    -0.4311270     0.0195620
  H        3.4969120    -1.7040060     0.9027390
  H       -3.7998370     1.1241010    -0.5010800
  H       -3.9673170     0.3343150     1.0801190
  H       -4.3271240    -0.5760050    -0.3968180
units angstrom
no_reorient  #important for SAPT in psi4, default
symmetry c1  #important for SAPT in psi4, default
}

set PROPERTIES_ORIGIN ["COM"]
properties('MP2/aug-cc-pvtz', properties = ['dipole'])
--------------------------------------------------------------------------

    Molecular point group: c1
  Charge       = 0
  Multiplicity = 1
  Basis Set: AUG-CC-PVTZ
    Blend: AUG-CC-PVTZ
  Basis Set: (AUG-CC-PVTZ AUX)
    Blend: AUG-CC-PVTZ-JKFIT

    Orbital Energies [Eh]
    ---------------------

    Doubly Occupied:

       1A    -20.623039     2A    -20.533814     3A    -15.618446
       4A    -11.370252     5A    -11.336975     6A    -11.273385
       7A    -11.249974     8A    -11.236577     9A    -11.226485
      10A    -11.215325    11A     -1.460787    12A     -1.388504
      13A     -1.254601    14A     -1.096628    15A     -1.036884
      16A     -0.987085    17A     -0.943830    18A     -0.840157
      19A     -0.791563    20A     -0.768776    21A     -0.711478
      22A     -0.682618    23A     -0.657075    24A     -0.648088
      25A     -0.620416    26A     -0.599522    27A     -0.581459
      28A     -0.571434    29A     -0.568723    30A     -0.563498
      31A     -0.541607    32A     -0.538617    33A     -0.509801
      34A     -0.453842    35A     -0.438340    36A     -0.381581
      37A     -0.289225

  @DF-RHF Final Energy:  -474.65617454327440

   => Energetics <=

    Nuclear Repulsion Energy =            508.8428229583055327
    One-Electron Energy =               -1655.7771686791047614
    Two-Electron Energy =                 672.2781711775248823
    Total Energy =                       -474.6561745432743464
  Basis Set: (AUG-CC-PVTZ AUX)
    Blend: AUG-CC-PVTZ-RI
    Molecular point group: c1

    Geometry (in Angstrom), charge = 0, multiplicity = 1:

       Center              X                  Y                   Z               Mass
    ------------   -----------------  -----------------  -----------------  -----------------
         O            0.836877948742     1.540838132561    -0.012328170612    15.994914619570
         O           -1.956754051258    -1.535420867439    -0.029922170612    15.994914619570
         N           -1.283807051258     0.648227132561    -0.021744170612    14.003074004430
         C            2.225765948742    -0.236582867439     0.003713829388    12.000000000000
         C            0.086099948742     0.401400132561    -0.011146170612    12.000000000000
         C            0.871724948742    -0.716127567439     0.047972329388    12.000000000000
         C            2.151781948742     1.126096132561    -0.002562170612    12.000000000000
         C            3.467473948742    -1.070707867439     0.014287829388    12.000000000000
         C           -2.243261051258    -0.339141867439    -0.022454170612    12.000000000000
         C           -3.666056051258     0.172818132561     0.034504829388    12.000000000000
         H            0.520639948742    -1.736217867439    -0.000980170612     1.007825032230
         H            2.886321948742     1.917813132561    -0.001033170612     1.007825032230
         H           -1.557840051258     1.623533132561    -0.016464170612     1.007825032230
         H            3.514845948742    -1.719200867439    -0.865842170612     1.007825032230
         H            4.360435948742    -0.439252867439     0.016893829388     1.007825032230
         H            3.504689948742    -1.712131867439     0.900070829388     1.007825032230
         H           -3.792059051258     1.115975132561    -0.503748170612     1.007825032230
         H           -3.959539051258     0.326189132561     1.077450829388     1.007825032230
         H           -4.319346051258    -0.584130867439    -0.399486170612     1.007825032230

  Basis Set: AUG-CC-PVTZ
    Blend: AUG-CC-PVTZ
  Basis Set: (AUG-CC-PVTZ AUX)
    Blend: AUG-CC-PVTZ-JKFIT
	 Reference Energy          =    -474.6561745432744033 [Eh]
	 Singles Energy            =      -0.0000000000000000 [Eh]
	 Same-Spin Energy          =      -0.4897625599450634 [Eh]
	 Opposite-Spin Energy      =      -1.5239152485491272 [Eh]
	 Correlation Energy        =      -2.0136778084941906 [Eh]
	 Total Energy              =    -476.6698523517686112 [Eh]

	 ================> DF-SCS-MP2 Energies <==================
	-----------------------------------------------------------
	 SCS Same-Spin Scale       =       0.3333333333333333 [-]
	 SCS Opposite-Spin Scale   =       1.2000000000000000 [-]
	 SCS Same-Spin Energy      =      -0.1632541866483544 [Eh]
	 SCS Opposite-Spin Energy  =      -1.8286982982589526 [Eh]
	 SCS Correlation Energy    =      -1.9919524849073071 [Eh]
	 SCS Total Energy          =    -476.6481270281817046 [Eh]
	-----------------------------------------------------------

  Dipole Moment: [D]
     X:    -0.3666      Y:     2.6309      Z:     0.0551     Total:     2.6569

*** Psi4 exiting successfully. Buy a developer a beer!
