                               Psi4 1.3.2 release

  ==> Input File <==

--------------------------------------------------------------------------
#psi4
#
memory 32 gb

molecule  {
0 1
  O        0.8291000     1.5489640    -0.0096600
  O       -1.9645320    -1.5272950    -0.0272540
  N       -1.2915850     0.6563530    -0.0190760
  C        2.2179880    -0.2284570     0.0063820
  C        0.0783220     0.4095260    -0.0084780
  C        0.8642630    -0.7082250     0.0006420
  C        2.1440040     1.1342220     0.0001060
  C        3.4596960    -1.0625820     0.0169560
  C       -2.2510390    -0.3310160    -0.0197860
  C       -3.6738340     0.1809440     0.0371730
  H        0.5128620    -1.7280920     0.0016880
  H        2.8779170     1.9263516     0.1016322
  H       -1.5656180     1.6316590    -0.0137960
  H        3.5070680    -1.7110750    -0.8631740
  H        4.3526580    -0.4311270     0.0195620
  H        3.4969120    -1.7040060     0.9027390
  H       -3.7998370     1.1241010    -0.5010800
  H       -3.9673170     0.3343150     1.0801190
  H       -4.3271240    -0.5760050    -0.3968180
units angstrom
no_reorient  #important for SAPT in psi4, default
symmetry c1  #important for SAPT in psi4, default
}

set PROPERTIES_ORIGIN ["COM"]
properties('MP2/aug-cc-pvtz', properties = ['dipole'])
--------------------------------------------------------------------------

    Molecular point group: c1
  Charge       = 0
  Multiplicity = 1
  Basis Set: AUG-CC-PVTZ
    Blend: AUG-CC-PVTZ
  Basis Set: (AUG-CC-PVTZ AUX)
    Blend: AUG-CC-PVTZ-JKFIT

    Orbital Energies [Eh]
    ---------------------

    Doubly Occupied:

       1A    -20.622912     2A    -20.533820     3A    -15.618425
       4A    -11.370258     5A    -11.336784     6A    -11.273642
       7A    -11.249979     8A    -11.236663     9A    -11.226569
      10A    -11.215208    11A     -1.460708    12A     -1.388515
      13A     -1.254578    14A     -1.096880    15A     -1.036874
      16A     -0.987141    17A     -0.943741    18A     -0.840104
      19A     -0.791323    20A     -0.768834    21A     -0.711672
      22A     -0.682454    23A     -0.657282    24A     -0.647427
      25A     -0.620394    26A     -0.599457    27A     -0.581092
      28A     -0.571424    29A     -0.568804    30A     -0.563953
      31A     -0.541507    32A     -0.538799    33A     -0.509915
      34A     -0.453861    35A     -0.438370    36A     -0.381696
      37A     -0.289258

  @DF-RHF Final Energy:  -474.65635142271111

   => Energetics <=

    Nuclear Repulsion Energy =            508.8554126259465420
    One-Electron Energy =               -1655.8028794050890156
    Two-Electron Energy =                 672.2911153564313054
    Total Energy =                       -474.6563514227110545
  Basis Set: (AUG-CC-PVTZ AUX)
    Blend: AUG-CC-PVTZ-RI
    Molecular point group: c1

    Geometry (in Angstrom), charge = 0, multiplicity = 1:

       Center              X                  Y                   Z               Mass
    ------------   -----------------  -----------------  -----------------  -----------------
         O            0.836855224608     1.540854411270    -0.008738422517    15.994914619570
         O           -1.956776775392    -1.535404588730    -0.026332422517    15.994914619570
         N           -1.283829775392     0.648243411270    -0.018154422517    14.003074004430
         C            2.225743224608    -0.236566588730     0.007303577483    12.000000000000
         C            0.086077224608     0.401416411270    -0.007556422517    12.000000000000
         C            0.872018224608    -0.716334588730     0.001563577483    12.000000000000
         C            2.151759224608     1.126112411270     0.001027577483    12.000000000000
         C            3.467451224608    -1.070691588730     0.017877577483    12.000000000000
         C           -2.243283775392    -0.339125588730    -0.018864422517    12.000000000000
         C           -3.666078775392     0.172834411270     0.038094577483    12.000000000000
         H            0.520617224608    -1.736201588730     0.002609577483     1.007825032230
         H            2.885672224608     1.918242011270     0.102553777483     1.007825032230
         H           -1.557862775392     1.623549411270    -0.012874422517     1.007825032230
         H            3.514823224608    -1.719184588730    -0.862252422517     1.007825032230
         H            4.360413224608    -0.439236588730     0.020483577483     1.007825032230
         H            3.504667224608    -1.712115588730     0.903660577483     1.007825032230
         H           -3.792081775392     1.115991411270    -0.500158422517     1.007825032230
         H           -3.959561775392     0.326205411270     1.081040577483     1.007825032230
         H           -4.319368775392    -0.584114588730    -0.395896422517     1.007825032230

  Basis Set: AUG-CC-PVTZ
    Blend: AUG-CC-PVTZ
  Basis Set: (AUG-CC-PVTZ AUX)
    Blend: AUG-CC-PVTZ-JKFIT
	 Reference Energy          =    -474.6563514227111114 [Eh]
	 Singles Energy            =      -0.0000000000000000 [Eh]
	 Same-Spin Energy          =      -0.4897674450003573 [Eh]
	 Opposite-Spin Energy      =      -1.5239210131355261 [Eh]
	 Correlation Energy        =      -2.0136884581358832 [Eh]
	 Total Energy              =    -476.6700398808470140 [Eh]

	 ================> DF-SCS-MP2 Energies <==================
	-----------------------------------------------------------
	 SCS Same-Spin Scale       =       0.3333333333333333 [-]
	 SCS Opposite-Spin Scale   =       1.2000000000000000 [-]
	 SCS Same-Spin Energy      =      -0.1632558150001191 [Eh]
	 SCS Opposite-Spin Energy  =      -1.8287052157626311 [Eh]
	 SCS Correlation Energy    =      -1.9919610307627502 [Eh]
	 SCS Total Energy          =    -476.6483124534738636 [Eh]
	-----------------------------------------------------------

  Dipole Moment: [D]
     X:    -0.3733      Y:     2.6185      Z:     0.1840     Total:     2.6513

*** Psi4 exiting successfully. Buy a developer a beer!
