                               Psi4 1.3.2 release

  ==> Input File <==

--------------------------------------------------------------------------
#psi4
#
memory 32 gb

molecule  {
0 1
  O        0.8291000     1.5489640    -0.0096600
  O       -1.9645320    -1.5272950    -0.0272540
  N       -1.2915850     0.6563530    -0.0190760
  C        2.2179880    -0.2284570     0.0063820
  C        0.0783220     0.4095260    -0.0084780
  C        0.8642630    -0.7082250     0.0006420
  C        2.1440040     1.1342220     0.0001060
  C        3.4596960    -1.0625820     0.0169560
  C       -2.2510390    -0.3310160    -0.0197860
  C       -3.6738340     0.1809440     0.0371730
  H        0.5128620    -1.7280920     0.0016880
  H        2.8785440     1.9259390     0.0016350
  H       -1.5649626     1.6318879    -0.1637944
  H        3.5070680    -1.7110750    -0.8631740
  H        4.3526580    -0.4311270     0.0195620
  H        3.4969120    -1.7040060     0.9027390
  H       -3.7998370     1.1241010    -0.5010800
  H       -3.9673170     0.3343150     1.0801190
  H       -4.3271240    -0.5760050    -0.3968180
units angstrom
no_reorient  #important for SAPT in psi4, default
symmetry c1  #important for SAPT in psi4, default
}

set PROPERTIES_ORIGIN ["COM"]
properties('MP2/aug-cc-pvtz', properties = ['dipole'])
--------------------------------------------------------------------------

    Molecular point group: c1
  Charge       = 0
  Multiplicity = 1
  Basis Set: AUG-CC-PVTZ
    Blend: AUG-CC-PVTZ
  Basis Set: (AUG-CC-PVTZ AUX)
    Blend: AUG-CC-PVTZ-JKFIT

    Orbital Energies [Eh]
    ---------------------

    Doubly Occupied:

       1A    -20.622857     2A    -20.534040     3A    -15.618898
       4A    -11.370143     5A    -11.336395     6A    -11.273399
       7A    -11.249942     8A    -11.236465     9A    -11.226510
      10A    -11.215176    11A     -1.460568    12A     -1.388527
      13A     -1.253350    14A     -1.096761    15A     -1.036742
      16A     -0.986924    17A     -0.943764    18A     -0.839558
      19A     -0.790249    20A     -0.767865    21A     -0.711048
      22A     -0.682437    23A     -0.656708    24A     -0.648085
      25A     -0.620318    26A     -0.599132    27A     -0.581502
      28A     -0.571398    29A     -0.568782    30A     -0.563913
      31A     -0.541644    32A     -0.538195    33A     -0.509933
      34A     -0.453858    35A     -0.438340    36A     -0.381642
      37A     -0.289319

  @DF-RHF Final Energy:  -474.65601297953810

   => Energetics <=

    Nuclear Repulsion Energy =            508.8172778182757270
    One-Electron Energy =               -1655.7378086023543347
    Two-Electron Energy =                 672.2645178045405601
    Total Energy =                       -474.6560129795381044
  Basis Set: (AUG-CC-PVTZ AUX)
    Blend: AUG-CC-PVTZ-RI
    Molecular point group: c1

    Geometry (in Angstrom), charge = 0, multiplicity = 1:

       Center              X                  Y                   Z               Mass
    ------------   -----------------  -----------------  -----------------  -----------------
         O            0.836845930750     1.540855742587    -0.006926644917    15.994914619570
         O           -1.956786069250    -1.535403257413    -0.024520644917    15.994914619570
         N           -1.283839069250     0.648244742587    -0.016342644917    14.003074004430
         C            2.225733930750    -0.236565257413     0.009115355083    12.000000000000
         C            0.086067930750     0.401417742587    -0.005744644917    12.000000000000
         C            0.872008930750    -0.716333257413     0.003375355083    12.000000000000
         C            2.151749930750     1.126113742587     0.002839355083    12.000000000000
         C            3.467441930750    -1.070690257413     0.019689355083    12.000000000000
         C           -2.243293069250    -0.339124257413    -0.017052644917    12.000000000000
         C           -3.666088069250     0.172835742587     0.039906355083    12.000000000000
         H            0.520607930750    -1.736200257413     0.004421355083     1.007825032230
         H            2.886289930750     1.917830742587     0.004368355083     1.007825032230
         H           -1.557216669250     1.623779642587    -0.161061044917     1.007825032230
         H            3.514813930750    -1.719183257413    -0.860440644917     1.007825032230
         H            4.360403930750    -0.439235257413     0.022295355083     1.007825032230
         H            3.504657930750    -1.712114257413     0.905472355083     1.007825032230
         H           -3.792091069250     1.115992742587    -0.498346644917     1.007825032230
         H           -3.959571069250     0.326206742587     1.082852355083     1.007825032230
         H           -4.319378069250    -0.584113257413    -0.394084644917     1.007825032230

  Basis Set: AUG-CC-PVTZ
    Blend: AUG-CC-PVTZ
  Basis Set: (AUG-CC-PVTZ AUX)
    Blend: AUG-CC-PVTZ-JKFIT
	 Reference Energy          =    -474.6560129795381044 [Eh]
	 Singles Energy            =      -0.0000000000000000 [Eh]
	 Same-Spin Energy          =      -0.4898122112004182 [Eh]
	 Opposite-Spin Energy      =      -1.5240737723674784 [Eh]
	 Correlation Energy        =      -2.0138859835678966 [Eh]
	 Total Energy              =    -476.6698989631059931 [Eh]

	 ================> DF-SCS-MP2 Energies <==================
	-----------------------------------------------------------
	 SCS Same-Spin Scale       =       0.3333333333333333 [-]
	 SCS Opposite-Spin Scale   =       1.2000000000000000 [-]
	 SCS Same-Spin Energy      =      -0.1632707370668061 [Eh]
	 SCS Opposite-Spin Energy  =      -1.8288885268409740 [Eh]
	 SCS Correlation Energy    =      -1.9921592639077801 [Eh]
	 SCS Total Energy          =    -476.6481722434458561 [Eh]
	-----------------------------------------------------------

  Dipole Moment: [D]
     X:    -0.3623      Y:     2.6127      Z:    -0.1042     Total:     2.6397

*** Psi4 exiting successfully. Buy a developer a beer!
