                               Psi4 1.3.2 release

  ==> Input File <==

--------------------------------------------------------------------------
#psi4
#
memory 32 gb

molecule  {
0 1
  O        0.8291000     1.5489640    -0.0096600
  O       -1.9645320    -1.5272950    -0.0272540
  N       -1.2915850     0.6563530    -0.0190760
  C        2.2179880    -0.2284570     0.0063820
  C        0.0783220     0.4095260    -0.0084780
  C        0.8642630    -0.7082250     0.0006420
  C        2.1440040     1.1342220     0.0001060
  C        3.4596960    -1.0625820     0.0169560
  C       -2.2510390    -0.3310160    -0.0197860
  C       -3.6738340     0.1809440     0.0371730
  H        0.5128620    -1.7280920     0.0016880
  H        2.8769765     1.9269704     0.2516280
  H       -1.5656180     1.6316590    -0.0137960
  H        3.5070680    -1.7110750    -0.8631740
  H        4.3526580    -0.4311270     0.0195620
  H        3.4969120    -1.7040060     0.9027390
  H       -3.7998370     1.1241010    -0.5010800
  H       -3.9673170     0.3343150     1.0801190
  H       -4.3271240    -0.5760050    -0.3968180
units angstrom
no_reorient  #important for SAPT in psi4, default
symmetry c1  #important for SAPT in psi4, default
}

set PROPERTIES_ORIGIN ["COM"]
properties('MP2/aug-cc-pvtz', properties = ['dipole'])
--------------------------------------------------------------------------

    Molecular point group: c1
  Charge       = 0
  Multiplicity = 1
  Basis Set: AUG-CC-PVTZ
    Blend: AUG-CC-PVTZ
  Basis Set: (AUG-CC-PVTZ AUX)
    Blend: AUG-CC-PVTZ-JKFIT

    Orbital Energies [Eh]
    ---------------------

    Doubly Occupied:

       1A    -20.622717     2A    -20.534177     3A    -15.618838
       4A    -11.370613     5A    -11.337583     6A    -11.274978
       7A    -11.250223     8A    -11.237488     9A    -11.226822
      10A    -11.215607    11A     -1.460722    12A     -1.388865
      13A     -1.254960    14A     -1.097298    15A     -1.036985
      16A     -0.987097    17A     -0.943364    18A     -0.840057
      19A     -0.789922    20A     -0.768678    21A     -0.711985
      22A     -0.681840    23A     -0.658353    24A     -0.644276
      25A     -0.620589    26A     -0.599462    27A     -0.578883
      28A     -0.571289    29A     -0.568961    30A     -0.563810
      31A     -0.541545    32A     -0.539165    33A     -0.509311
      34A     -0.454056    35A     -0.438703    36A     -0.381877
      37A     -0.289605

  @DF-RHF Final Energy:  -474.65353551462329

   => Energetics <=

    Nuclear Repulsion Energy =            508.7612339226224094
    One-Electron Energy =               -1655.6081301623685249
    Two-Electron Energy =                 672.1933607251227158
    Total Energy =                       -474.6535355146232860
  Basis Set: (AUG-CC-PVTZ AUX)
    Blend: AUG-CC-PVTZ-RI
    Molecular point group: c1

    Geometry (in Angstrom), charge = 0, multiplicity = 1:

       Center              X                  Y                   Z               Mass
    ------------   -----------------  -----------------  -----------------  -----------------
         O            0.836862040635     1.540849926679    -0.009825477771    15.994914619570
         O           -1.956769959365    -1.535409073321    -0.027419477771    15.994914619570
         N           -1.283822959365     0.648238926679    -0.019241477771    14.003074004430
         C            2.225750040635    -0.236571073321     0.006216522229    12.000000000000
         C            0.086084040635     0.401411926679    -0.008643477771    12.000000000000
         C            0.872025040635    -0.716339073321     0.000476522229    12.000000000000
         C            2.151766040635     1.126107926679    -0.000059477771    12.000000000000
         C            3.467458040635    -1.070696073321     0.016790522229    12.000000000000
         C           -2.243276959365    -0.339130073321    -0.019951477771    12.000000000000
         C           -3.666071959365     0.172829926679     0.037007522229    12.000000000000
         H            0.520624040635    -1.736206073321     0.001522522229     1.007825032230
         H            2.884738540635     1.918856326679     0.251462522229     1.007825032230
         H           -1.557855959365     1.623544926679    -0.013961477771     1.007825032230
         H            3.514830040635    -1.719189073321    -0.863339477771     1.007825032230
         H            4.360420040635    -0.439241073321     0.019396522229     1.007825032230
         H            3.504674040635    -1.712120073321     0.902573522229     1.007825032230
         H           -3.792074959365     1.115986926679    -0.501245477771     1.007825032230
         H           -3.959554959365     0.326200926679     1.079953522229     1.007825032230
         H           -4.319361959365    -0.584119073321    -0.396983477771     1.007825032230

  Basis Set: AUG-CC-PVTZ
    Blend: AUG-CC-PVTZ
  Basis Set: (AUG-CC-PVTZ AUX)
    Blend: AUG-CC-PVTZ-JKFIT
	 Reference Energy          =    -474.6535355146232860 [Eh]
	 Singles Energy            =      -0.0000000000000000 [Eh]
	 Same-Spin Energy          =      -0.4899398261126326 [Eh]
	 Opposite-Spin Energy      =      -1.5243013956166158 [Eh]
	 Correlation Energy        =      -2.0142412217292485 [Eh]
	 Total Energy              =    -476.6677767363525504 [Eh]

	 ================> DF-SCS-MP2 Energies <==================
	-----------------------------------------------------------
	 SCS Same-Spin Scale       =       0.3333333333333333 [-]
	 SCS Opposite-Spin Scale   =       1.2000000000000000 [-]
	 SCS Same-Spin Energy      =      -0.1633132753708775 [Eh]
	 SCS Opposite-Spin Energy  =      -1.8291616747399388 [Eh]
	 SCS Correlation Energy    =      -1.9924749501108163 [Eh]
	 SCS Total Energy          =    -476.6460104647341041 [Eh]
	-----------------------------------------------------------

  Dipole Moment: [D]
     X:    -0.4161      Y:     2.5751      Z:     0.3135     Total:     2.6272

*** Psi4 exiting successfully. Buy a developer a beer!
