                               Psi4 1.3.2 release

  ==> Input File <==

--------------------------------------------------------------------------
#psi4
#
memory 32 gb

molecule  {
0 1
  O        0.8291000     1.5489640    -0.0096600
  O       -1.9645320    -1.5272950    -0.0272540
  N       -1.2915850     0.6563530    -0.0190760
  C        2.2179880    -0.2284570     0.0063820
  C        0.0783220     0.4095260    -0.0084780
  C        0.8642630    -0.7082250     0.0006420
  C        2.1440040     1.1342220     0.0001060
  C        3.4596960    -1.0625820     0.0169560
  C       -2.2510390    -0.3310160    -0.0197860
  C       -3.6738340     0.1809440     0.0371730
  H        0.5128620    -1.7280920     0.0016880
  H        2.8785440     1.9259390     0.0016350
  H       -1.5647441     1.6319642    -0.2137939
  H        3.5070680    -1.7110750    -0.8631740
  H        4.3526580    -0.4311270     0.0195620
  H        3.4969120    -1.7040060     0.9027390
  H       -3.7998370     1.1241010    -0.5010800
  H       -3.9673170     0.3343150     1.0801190
  H       -4.3271240    -0.5760050    -0.3968180
units angstrom
no_reorient  #important for SAPT in psi4, default
symmetry c1  #important for SAPT in psi4, default
}

set PROPERTIES_ORIGIN ["COM"]
properties('MP2/aug-cc-pvtz', properties = ['dipole'])
--------------------------------------------------------------------------

    Molecular point group: c1
  Charge       = 0
  Multiplicity = 1
  Basis Set: AUG-CC-PVTZ
    Blend: AUG-CC-PVTZ
  Basis Set: (AUG-CC-PVTZ AUX)
    Blend: AUG-CC-PVTZ-JKFIT

    Orbital Energies [Eh]
    ---------------------

    Doubly Occupied:

       1A    -20.622775     2A    -20.534250     3A    -15.619318
       4A    -11.370105     5A    -11.336203     6A    -11.273416
       7A    -11.249903     8A    -11.236435     9A    -11.226504
      10A    -11.215219    11A     -1.460454    12A     -1.388582
      13A     -1.252454    14A     -1.096734    15A     -1.036657
      16A     -0.986742    17A     -0.943720    18A     -0.839136
      19A     -0.789225    20A     -0.766973    21A     -0.710547
      22A     -0.682343    23A     -0.656473    24A     -0.648046
      25A     -0.620321    26A     -0.598846    27A     -0.581473
      28A     -0.571360    29A     -0.568778    30A     -0.563865
      31A     -0.541769    32A     -0.537765    33A     -0.509848
      34A     -0.453886    35A     -0.438351    36A     -0.381626
      37A     -0.289430

  @DF-RHF Final Energy:  -474.65526085699503

   => Energetics <=

    Nuclear Repulsion Energy =            508.7736101902619907
    One-Electron Energy =               -1655.6586762231506782
    Two-Electron Energy =                 672.2298051758937163
    Total Energy =                       -474.6552608569950280
  Basis Set: (AUG-CC-PVTZ AUX)
    Blend: AUG-CC-PVTZ-RI
    Molecular point group: c1

    Geometry (in Angstrom), charge = 0, multiplicity = 1:

       Center              X                  Y                   Z               Mass
    ------------   -----------------  -----------------  -----------------  -----------------
         O            0.836844347228     1.540855189623    -0.006564286643    15.994914619570
         O           -1.956787652772    -1.535403810377    -0.024158286643    15.994914619570
         N           -1.283840652772     0.648244189623    -0.015980286643    14.003074004430
         C            2.225732347228    -0.236565810377     0.009477713357    12.000000000000
         C            0.086066347228     0.401417189623    -0.005382286643    12.000000000000
         C            0.872007347228    -0.716333810377     0.003737713357    12.000000000000
         C            2.151748347228     1.126113189623     0.003201713357    12.000000000000
         C            3.467440347228    -1.070690810377     0.020051713357    12.000000000000
         C           -2.243294652772    -0.339124810377    -0.016690286643    12.000000000000
         C           -3.666089652772     0.172835189623     0.040268713357    12.000000000000
         H            0.520606347228    -1.736200810377     0.004783713357     1.007825032230
         H            2.886288347228     1.917830189623     0.004730713357     1.007825032230
         H           -1.556999752772     1.623855389623    -0.210698186643     1.007825032230
         H            3.514812347228    -1.719183810377    -0.860078286643     1.007825032230
         H            4.360402347228    -0.439235810377     0.022657713357     1.007825032230
         H            3.504656347228    -1.712114810377     0.905834713357     1.007825032230
         H           -3.792092652772     1.115992189623    -0.497984286643     1.007825032230
         H           -3.959572652772     0.326206189623     1.083214713357     1.007825032230
         H           -4.319379652772    -0.584113810377    -0.393722286643     1.007825032230

  Basis Set: AUG-CC-PVTZ
    Blend: AUG-CC-PVTZ
  Basis Set: (AUG-CC-PVTZ AUX)
    Blend: AUG-CC-PVTZ-JKFIT
	 Reference Energy          =    -474.6552608569950280 [Eh]
	 Singles Energy            =      -0.0000000000000000 [Eh]
	 Same-Spin Energy          =      -0.4898737904244099 [Eh]
	 Opposite-Spin Energy      =      -1.5242475325811915 [Eh]
	 Correlation Energy        =      -2.0141213230056012 [Eh]
	 Total Energy              =    -476.6693821800006390 [Eh]

	 ================> DF-SCS-MP2 Energies <==================
	-----------------------------------------------------------
	 SCS Same-Spin Scale       =       0.3333333333333333 [-]
	 SCS Opposite-Spin Scale   =       1.2000000000000000 [-]
	 SCS Same-Spin Energy      =      -0.1632912634748033 [Eh]
	 SCS Opposite-Spin Energy  =      -1.8290970390974297 [Eh]
	 SCS Correlation Energy    =      -1.9923883025722331 [Eh]
	 SCS Total Energy          =    -476.6476491595672655 [Eh]
	-----------------------------------------------------------

  Dipole Moment: [D]
     X:    -0.3613      Y:     2.6017      Z:    -0.1696     Total:     2.6321

*** Psi4 exiting successfully. Buy a developer a beer!
