                               Psi4 1.3.2 release

  ==> Input File <==

--------------------------------------------------------------------------
#psi4
#
memory 32 gb

molecule  {
0 1
  O        0.8291000     1.5489640    -0.0096600
  O       -1.9645320    -1.5272950    -0.0272540
  N       -1.2915850     0.6563530    -0.0190760
  C        2.2179880    -0.2284570     0.0063820
  C        0.0783220     0.4095260    -0.0084780
  C        0.8642630    -0.7082250     0.0006420
  C        2.1440040     1.1342220     0.0001060
  C        3.4596960    -1.0625820     0.0169560
  C       -2.2510390    -0.3310160    -0.0197860
  C       -3.6738340     0.1809440     0.0371730
  H        0.5128620    -1.7280920     0.0016880
  H        2.8782305     1.9261453     0.0516336
  H       -1.5656180     1.6316590    -0.0137960
  H        3.5070680    -1.7110750    -0.8631740
  H        4.3526580    -0.4311270     0.0195620
  H        3.4969120    -1.7040060     0.9027390
  H       -3.7998370     1.1241010    -0.5010800
  H       -3.9673170     0.3343150     1.0801190
  H       -4.3271240    -0.5760050    -0.3968180
units angstrom
no_reorient  #important for SAPT in psi4, default
symmetry c1  #important for SAPT in psi4, default
}

set PROPERTIES_ORIGIN ["COM"]
properties('MP2/aug-cc-pvtz', properties = ['dipole'])
--------------------------------------------------------------------------

    Molecular point group: c1
  Charge       = 0
  Multiplicity = 1
  Basis Set: AUG-CC-PVTZ
    Blend: AUG-CC-PVTZ
  Basis Set: (AUG-CC-PVTZ AUX)
    Blend: AUG-CC-PVTZ-JKFIT

    Orbital Energies [Eh]
    ---------------------

    Doubly Occupied:

       1A    -20.622944     2A    -20.533770     3A    -15.618365
       4A    -11.370206     5A    -11.336667     6A    -11.273450
       7A    -11.249944     8A    -11.236543     9A    -11.226531
      10A    -11.215150    11A     -1.460708    12A     -1.388465
      13A     -1.254522    14A     -1.096819    15A     -1.036859
      16A     -0.987151    17A     -0.943799    18A     -0.840116
      19A     -0.791545    20A     -0.768855    21A     -0.711627
      22A     -0.682548    23A     -0.657080    24A     -0.647955
      25A     -0.620364    26A     -0.599466    27A     -0.581422
      28A     -0.571413    29A     -0.568781    30A     -0.563962
      31A     -0.541507    32A     -0.538745    33A     -0.509994
      34A     -0.453832    35A     -0.438322    36A     -0.381671
      37A     -0.289208

  @DF-RHF Final Energy:  -474.65670821061002

   => Energetics <=

    Nuclear Repulsion Energy =            508.8692311336989746
    One-Electron Energy =               -1655.8312693438799670
    Two-Electron Energy =                 672.3053299995709722
    Total Energy =                       -474.6567082106099633
  Basis Set: (AUG-CC-PVTZ AUX)
    Blend: AUG-CC-PVTZ-RI
    Molecular point group: c1

    Geometry (in Angstrom), charge = 0, multiplicity = 1:

       Center              X                  Y                   Z               Mass
    ------------   -----------------  -----------------  -----------------  -----------------
         O            0.836852952599     1.540855906375    -0.008376070765    15.994914619570
         O           -1.956779047401    -1.535403093625    -0.025970070765    15.994914619570
         N           -1.283832047401     0.648244906375    -0.017792070765    14.003074004430
         C            2.225740952599    -0.236565093625     0.007665929235    12.000000000000
         C            0.086074952599     0.401417906375    -0.007194070765    12.000000000000
         C            0.872015952599    -0.716333093625     0.001925929235    12.000000000000
         C            2.151756952599     1.126113906375     0.001389929235    12.000000000000
         C            3.467448952599    -1.070690093625     0.018239929235    12.000000000000
         C           -2.243286047401    -0.339124093625    -0.018502070765    12.000000000000
         C           -3.666081047401     0.172835906375     0.038456929235    12.000000000000
         H            0.520614952599    -1.736200093625     0.002971929235     1.007825032230
         H            2.885983452599     1.918037206375     0.052917529235     1.007825032230
         H           -1.557865047401     1.623550906375    -0.012512070765     1.007825032230
         H            3.514820952599    -1.719183093625    -0.861890070765     1.007825032230
         H            4.360410952599    -0.439235093625     0.020845929235     1.007825032230
         H            3.504664952599    -1.712114093625     0.904022929235     1.007825032230
         H           -3.792084047401     1.115992906375    -0.499796070765     1.007825032230
         H           -3.959564047401     0.326206906375     1.081402929235     1.007825032230
         H           -4.319371047401    -0.584113093625    -0.395534070765     1.007825032230

  Basis Set: AUG-CC-PVTZ
    Blend: AUG-CC-PVTZ
  Basis Set: (AUG-CC-PVTZ AUX)
    Blend: AUG-CC-PVTZ-JKFIT
	 Reference Energy          =    -474.6567082106100202 [Eh]
	 Singles Energy            =      -0.0000000000000000 [Eh]
	 Same-Spin Energy          =      -0.4897421892758898 [Eh]
	 Opposite-Spin Energy      =      -1.5238715181362392 [Eh]
	 Correlation Energy        =      -2.0136137074121292 [Eh]
	 Total Energy              =    -476.6703219180221254 [Eh]

	 ================> DF-SCS-MP2 Energies <==================
	-----------------------------------------------------------
	 SCS Same-Spin Scale       =       0.3333333333333333 [-]
	 SCS Opposite-Spin Scale   =       1.2000000000000000 [-]
	 SCS Same-Spin Energy      =      -0.1632473964252966 [Eh]
	 SCS Opposite-Spin Energy  =      -1.8286458217634869 [Eh]
	 SCS Correlation Energy    =      -1.9918932181887834 [Eh]
	 SCS Total Energy          =    -476.6486014287988269 [Eh]
	-----------------------------------------------------------

  Dipole Moment: [D]
     X:    -0.3669      Y:     2.6248      Z:     0.1396     Total:     2.6540

*** Psi4 exiting successfully. Buy a developer a beer!
