                               Psi4 1.3.2 release

  ==> Input File <==

--------------------------------------------------------------------------
#psi4
#
memory 32 gb

molecule  {
0 1
  O        0.8291000     1.5489640    -0.0096600
  O       -1.9645320    -1.5272950    -0.0272540
  N       -1.2915850     0.6563530    -0.0190760
  C        2.2179880    -0.2284570     0.0063820
  C        0.0783220     0.4095260    -0.0084780
  C        0.8642630    -0.7082250     0.0006420
  C        2.1440040     1.1342220     0.0001060
  C        3.4596960    -1.0625820     0.0169560
  C       -2.2510390    -0.3310160    -0.0197860
  C       -3.6738340     0.1809440     0.0371730
  H        0.5128620    -1.7280920     0.0016880
  H        2.8785440     1.9259390     0.0016350
  H       -1.5645257     1.6320405    -0.2637933
  H        3.5070680    -1.7110750    -0.8631740
  H        4.3526580    -0.4311270     0.0195620
  H        3.4969120    -1.7040060     0.9027390
  H       -3.7998370     1.1241010    -0.5010800
  H       -3.9673170     0.3343150     1.0801190
  H       -4.3271240    -0.5760050    -0.3968180
units angstrom
no_reorient  #important for SAPT in psi4, default
symmetry c1  #important for SAPT in psi4, default
}

set PROPERTIES_ORIGIN ["COM"]
properties('MP2/aug-cc-pvtz', properties = ['dipole'])
--------------------------------------------------------------------------

    Molecular point group: c1
  Charge       = 0
  Multiplicity = 1
  Basis Set: AUG-CC-PVTZ
    Blend: AUG-CC-PVTZ
  Basis Set: (AUG-CC-PVTZ AUX)
    Blend: AUG-CC-PVTZ-JKFIT

    Orbital Energies [Eh]
    ---------------------

    Doubly Occupied:

       1A    -20.622671     2A    -20.534511     3A    -15.619847
       4A    -11.370058     5A    -11.335962     6A    -11.273438
       7A    -11.249842     8A    -11.236399     9A    -11.226497
      10A    -11.215276    11A     -1.460309    12A     -1.388651
      13A     -1.251336    14A     -1.096700    15A     -1.036549
      16A     -0.986517    17A     -0.943665    18A     -0.838635
      19A     -0.788047    20A     -0.765744    21A     -0.709871
      22A     -0.682214    23A     -0.656182    24A     -0.647993
      25A     -0.620328    26A     -0.598467    27A     -0.581433
      28A     -0.571302    29A     -0.568772    30A     -0.563801
      31A     -0.541893    32A     -0.537258    33A     -0.509735
      34A     -0.453921    35A     -0.438358    36A     -0.381607
      37A     -0.289572

  @DF-RHF Final Energy:  -474.65416335921401

   => Energetics <=

    Nuclear Repulsion Energy =            508.7184651024507502
    One-Electron Energy =               -1655.5585370878311551
    Two-Electron Energy =                 672.1859086261663379
    Total Energy =                       -474.6541633592139533
  Basis Set: (AUG-CC-PVTZ AUX)
    Blend: AUG-CC-PVTZ-RI
    Molecular point group: c1

    Geometry (in Angstrom), charge = 0, multiplicity = 1:

       Center              X                  Y                   Z               Mass
    ------------   -----------------  -----------------  -----------------  -----------------
         O            0.836842764431     1.540854636659    -0.006201929093    15.994914619570
         O           -1.956789235569    -1.535404363341    -0.023795929093    15.994914619570
         N           -1.283842235569     0.648243636659    -0.015617929093    14.003074004430
         C            2.225730764431    -0.236566363341     0.009840070907    12.000000000000
         C            0.086064764431     0.401416636659    -0.005019929093    12.000000000000
         C            0.872005764431    -0.716334363341     0.004100070907    12.000000000000
         C            2.151746764431     1.126112636659     0.003564070907    12.000000000000
         C            3.467438764431    -1.070691363341     0.020414070907    12.000000000000
         C           -2.243296235569    -0.339125363341    -0.016327929093    12.000000000000
         C           -3.666091235569     0.172834636659     0.040631070907    12.000000000000
         H            0.520604764431    -1.736201363341     0.005146070907     1.007825032230
         H            2.886286764431     1.917829636659     0.005093070907     1.007825032230
         H           -1.556782935569     1.623931136659    -0.260335229093     1.007825032230
         H            3.514810764431    -1.719184363341    -0.859715929093     1.007825032230
         H            4.360400764431    -0.439236363341     0.023020070907     1.007825032230
         H            3.504654764431    -1.712115363341     0.906197070907     1.007825032230
         H           -3.792094235569     1.115991636659    -0.497621929093     1.007825032230
         H           -3.959574235569     0.326205636659     1.083577070907     1.007825032230
         H           -4.319381235569    -0.584114363341    -0.393359929093     1.007825032230

  Basis Set: AUG-CC-PVTZ
    Blend: AUG-CC-PVTZ
  Basis Set: (AUG-CC-PVTZ AUX)
    Blend: AUG-CC-PVTZ-JKFIT
	 Reference Energy          =    -474.6541633592140101 [Eh]
	 Singles Energy            =      -0.0000000000000000 [Eh]
	 Same-Spin Energy          =      -0.4899527140096017 [Eh]
	 Opposite-Spin Energy      =      -1.5244723007469529 [Eh]
	 Correlation Energy        =      -2.0144250147565548 [Eh]
	 Total Energy              =    -476.6685883739705787 [Eh]

	 ================> DF-SCS-MP2 Energies <==================
	-----------------------------------------------------------
	 SCS Same-Spin Scale       =       0.3333333333333333 [-]
	 SCS Opposite-Spin Scale   =       1.2000000000000000 [-]
	 SCS Same-Spin Energy      =      -0.1633175713365339 [Eh]
	 SCS Opposite-Spin Energy  =      -1.8293667608963435 [Eh]
	 SCS Correlation Energy    =      -1.9926843322328773 [Eh]
	 SCS Total Energy          =    -476.6468476914469079 [Eh]
	-----------------------------------------------------------

  Dipole Moment: [D]
     X:    -0.3601      Y:     2.5877      Z:    -0.2344     Total:     2.6231

*** Psi4 exiting successfully. Buy a developer a beer!
