                               Psi4 1.4a3.dev225

  ==> Input File <==

--------------------------------------------------------------------------
#psi4
#
memory 32 gb

molecule  {
0 1
  O       -0.0000020    -0.6102900    -0.0000420
  C        0.9363500     0.4141040    -0.4566330
  C       -0.9363370     0.4140910     0.4566200
  C        0.0000010     1.5430250    -0.0000030
  C        2.2717190     0.2897090     0.2433650
  C       -2.2717330     0.2897190    -0.2433270
  C        2.9423460    -1.0479970    -0.0522250
  C       -2.9423440    -1.0480000     0.0522380
  H        1.0693000     0.3446630    -1.5460730
  H       -1.0692400     0.3446160     1.5460640
  H        0.4022720     2.1756970     0.7958000
  H       -0.4022820     2.1756850    -0.7958090
  H        2.1021510     0.3966190     1.3216110
  H        2.9117530     1.1256360    -0.0698640
  H       -2.1022070     0.3966710    -1.3215760
  H       -2.9117580     1.1256310     0.0699580
  H        2.2845910    -1.8662570     0.2495040
  H        3.1497060    -1.1530710    -1.1218230
  H        4.0619918    -1.1640004     0.5851551
  H       -3.1496440    -1.1531250     1.1218420
  H       -3.8889120    -1.1460430    -0.4865470
  H       -2.2846070    -1.8662470    -0.2495670
units angstrom
no_reorient  #important for SAPT in psi4, default
symmetry c1  #important for SAPT in psi4, default
}

set PROPERTIES_ORIGIN ["COM"]
properties('MP2/aug-cc-pvtz', properties = ['dipole'])
--------------------------------------------------------------------------

    Molecular point group: c1
  Charge       = 0
  Multiplicity = 1
  Basis Set: AUG-CC-PVTZ
    Blend: AUG-CC-PVTZ
  Basis Set: (AUG-CC-PVTZ AUX)
    Blend: AUG-CC-PVTZ-JKFIT

    Orbital Energies [Eh]
    ---------------------

    Doubly Occupied:

       1A    -20.539728     2A    -11.279202     3A    -11.278340
       4A    -11.231129     5A    -11.225791     6A    -11.221387
       7A    -11.219820     8A    -11.208170     9A     -1.366721
      10A     -1.060269    11A     -1.047990    12A     -0.993772
      13A     -0.909116    14A     -0.842493    15A     -0.805018
      16A     -0.737542    17A     -0.673321    18A     -0.665657
      19A     -0.609167    20A     -0.602471    21A     -0.580179
      22A     -0.557188    23A     -0.545019    24A     -0.523596
      25A     -0.518802    26A     -0.498671    27A     -0.487197
      28A     -0.481964    29A     -0.472393    30A     -0.447946
      31A     -0.431691    32A     -0.402194

  @DF-RHF Final Energy:  -348.16656421438051

   => Energetics <=

    Nuclear Repulsion Energy =            398.7133779091050201
    One-Electron Energy =               -1262.8319923848939652
    Two-Electron Energy =                 515.9520502614084307
    Total Energy =                       -348.1665642143805144
  Basis Set: (AUG-CC-PVTZ AUX)
    Blend: AUG-CC-PVTZ-RI
    Molecular point group: c1

    Geometry (in Angstrom), charge = 0, multiplicity = 1:

       Center              X                  Y                   Z               Mass
    ------------   -----------------  -----------------  -----------------  -----------------
         O           -0.001530962420    -0.612294199064    -0.000911338894    15.994914619570
         C            0.934821037580     0.412099800936    -0.457502338894    12.000000000000
         C           -0.937865962420     0.412086800936     0.455750661106    12.000000000000
         C           -0.001527962420     1.541020800936    -0.000872338894    12.000000000000
         C            2.270190037580     0.287704800936     0.242495661106    12.000000000000
         C           -2.273261962420     0.287714800936    -0.244196338894    12.000000000000
         C            2.940817037580    -1.050001199064    -0.053094338894    12.000000000000
         C           -2.943872962420    -1.050004199064     0.051368661106    12.000000000000
         H            1.067771037580     0.342658800936    -1.546942338894     1.007825032230
         H           -1.070768962420     0.342611800936     1.545194661106     1.007825032230
         H            0.400743037580     2.173692800936     0.794930661106     1.007825032230
         H           -0.403810962420     2.173680800936    -0.796678338894     1.007825032230
         H            2.100622037580     0.394614800936     1.320741661106     1.007825032230
         H            2.910224037580     1.123631800936    -0.070733338894     1.007825032230
         H           -2.103735962420     0.394666800936    -1.322445338894     1.007825032230
         H           -2.913286962420     1.123626800936     0.069088661106     1.007825032230
         H            2.283062037580    -1.868261199064     0.248634661106     1.007825032230
         H            3.148177037580    -1.155075199064    -1.122692338894     1.007825032230
         H            4.060462837580    -1.166004599064     0.584285761106     1.007825032230
         H           -3.151172962420    -1.155129199064     1.120972661106     1.007825032230
         H           -3.890440962420    -1.148047199064    -0.487416338894     1.007825032230
         H           -2.286135962420    -1.868251199064    -0.250436338894     1.007825032230

  Basis Set: AUG-CC-PVTZ
    Blend: AUG-CC-PVTZ
  Basis Set: (AUG-CC-PVTZ AUX)
    Blend: AUG-CC-PVTZ-JKFIT
	 Reference Energy          =    -348.1665642143805144 [Eh]
	 Singles Energy            =      -0.0000000000000000 [Eh]
	 Same-Spin Energy          =      -0.3607693781086498 [Eh]
	 Opposite-Spin Energy      =      -1.2628958903591920 [Eh]
	 Correlation Energy        =      -1.6236652684678419 [Eh]
	 Total Energy              =    -349.7902294828483605 [Eh]

	 ================> DF-SCS-MP2 Energies <==================
	-----------------------------------------------------------
	 SCS Same-Spin Scale       =       0.3333333333333333 [-]
	 SCS Opposite-Spin Scale   =       1.2000000000000000 [-]
	 SCS Same-Spin Energy      =      -0.1202564593695499 [Eh]
	 SCS Opposite-Spin Energy  =      -1.5154750684310303 [Eh]
	 SCS Correlation Energy    =      -1.6357315278005802 [Eh]
	 SCS Total Energy          =    -349.8022957421811157 [Eh]
	-----------------------------------------------------------

  Dipole Moment: [D]
     X:    -0.1899      Y:     1.7696      Z:    -0.0628     Total:     1.7809

*** Psi4 exiting successfully. Buy a developer a beer!
