                               Psi4 1.4a3.dev225

  ==> Input File <==

--------------------------------------------------------------------------
#psi4
#
memory 32 gb

molecule  {
0 1
  O       -0.0000020    -0.6102900    -0.0000420
  C        0.9363500     0.4141040    -0.4566330
  C       -0.9363370     0.4140910     0.4566200
  C        0.0037426     1.5499677     0.0256211
  C        2.2717190     0.2897090     0.2433650
  C       -2.2717330     0.2897190    -0.2433270
  C        2.9423460    -1.0479970    -0.0522250
  C       -2.9423440    -1.0480000     0.0522380
  H        1.0693000     0.3446630    -1.5460730
  H       -1.0692400     0.3446160     1.5460640
  H        0.4022720     2.1756970     0.7958000
  H       -0.4022820     2.1756850    -0.7958090
  H        2.1021510     0.3966190     1.3216110
  H        2.9117530     1.1256360    -0.0698640
  H       -2.1022070     0.3966710    -1.3215760
  H       -2.9117580     1.1256310     0.0699580
  H        2.2845910    -1.8662570     0.2495040
  H        3.1497060    -1.1530710    -1.1218230
  H        3.8888820    -1.1460650     0.4866090
  H       -3.1496440    -1.1531250     1.1218420
  H       -3.8889120    -1.1460430    -0.4865470
  H       -2.2846070    -1.8662470    -0.2495670
units angstrom
no_reorient  #important for SAPT in psi4, default
symmetry c1  #important for SAPT in psi4, default
}

set PROPERTIES_ORIGIN ["COM"]
properties('MP2/aug-cc-pvtz', properties = ['dipole'])
--------------------------------------------------------------------------

    Molecular point group: c1
  Charge       = 0
  Multiplicity = 1
  Basis Set: AUG-CC-PVTZ
    Blend: AUG-CC-PVTZ
  Basis Set: (AUG-CC-PVTZ AUX)
    Blend: AUG-CC-PVTZ-JKFIT

    Orbital Energies [Eh]
    ---------------------

    Doubly Occupied:

       1A    -20.538242     2A    -11.277619     3A    -11.277233
       4A    -11.223930     5A    -11.219068     6A    -11.218588
       7A    -11.207477     8A    -11.207215     9A     -1.364555
      10A     -1.059659    11A     -1.047197    12A     -0.993760
      13A     -0.912916    14A     -0.847315    15A     -0.804894
      16A     -0.736786    17A     -0.671824    18A     -0.664525
      19A     -0.607395    20A     -0.601582    21A     -0.583552
      22A     -0.558835    23A     -0.552175    24A     -0.523905
      25A     -0.520613    26A     -0.498543    27A     -0.491789
      28A     -0.480548    29A     -0.480325    30A     -0.446385
      31A     -0.430725    32A     -0.401799

  @DF-RHF Final Energy:  -348.18556100071237

   => Energetics <=

    Nuclear Repulsion Energy =            399.3698669227866276
    One-Electron Energy =               -1264.2089088172131142
    Two-Electron Energy =                 516.6534808937141179
    Total Energy =                       -348.1855610007123687
  Basis Set: (AUG-CC-PVTZ AUX)
    Blend: AUG-CC-PVTZ-RI
    Molecular point group: c1

    Geometry (in Angstrom), charge = 0, multiplicity = 1:

       Center              X                  Y                   Z               Mass
    ------------   -----------------  -----------------  -----------------  -----------------
         O           -0.000395466191    -0.613182754521    -0.002735737031    15.994914619570
         C            0.935956533809     0.411211245479    -0.459326737031    12.000000000000
         C           -0.936730466191     0.411198245479     0.453926262969    12.000000000000
         C            0.003349133809     1.547074945479     0.022927362969    12.000000000000
         C            2.271325533809     0.286816245479     0.240671262969    12.000000000000
         C           -2.272126466191     0.286826245479    -0.246020737031    12.000000000000
         C            2.941952533809    -1.050889754521    -0.054918737031    12.000000000000
         C           -2.942737466191    -1.050892754521     0.049544262969    12.000000000000
         H            1.068906533809     0.341770245479    -1.548766737031     1.007825032230
         H           -1.069633466191     0.341723245479     1.543370262969     1.007825032230
         H            0.401878533809     2.172804245479     0.793106262969     1.007825032230
         H           -0.402675466191     2.172792245479    -0.798502737031     1.007825032230
         H            2.101757533809     0.393726245479     1.318917262969     1.007825032230
         H            2.911359533809     1.122743245479    -0.072557737031     1.007825032230
         H           -2.102600466191     0.393778245479    -1.324269737031     1.007825032230
         H           -2.912151466191     1.122738245479     0.067264262969     1.007825032230
         H            2.284197533809    -1.869149754521     0.246810262969     1.007825032230
         H            3.149312533809    -1.155963754521    -1.124516737031     1.007825032230
         H            3.888488533809    -1.148957754521     0.483915262969     1.007825032230
         H           -3.150037466191    -1.156017754521     1.119148262969     1.007825032230
         H           -3.889305466191    -1.148935754521    -0.489240737031     1.007825032230
         H           -2.285000466191    -1.869139754521    -0.252260737031     1.007825032230

  Basis Set: AUG-CC-PVTZ
    Blend: AUG-CC-PVTZ
  Basis Set: (AUG-CC-PVTZ AUX)
    Blend: AUG-CC-PVTZ-JKFIT
	 Reference Energy          =    -348.1855610007123687 [Eh]
	 Singles Energy            =      -0.0000000000000000 [Eh]
	 Same-Spin Energy          =      -0.3609088609119654 [Eh]
	 Opposite-Spin Energy      =      -1.2615165749309929 [Eh]
	 Correlation Energy        =      -1.6224254358429584 [Eh]
	 Total Energy              =    -349.8079864365553249 [Eh]

	 ================> DF-SCS-MP2 Energies <==================
	-----------------------------------------------------------
	 SCS Same-Spin Scale       =       0.3333333333333333 [-]
	 SCS Opposite-Spin Scale   =       1.2000000000000000 [-]
	 SCS Same-Spin Energy      =      -0.1203029536373218 [Eh]
	 SCS Opposite-Spin Energy  =      -1.5138198899171915 [Eh]
	 SCS Correlation Energy    =      -1.6341228435545134 [Eh]
	 SCS Total Energy          =    -349.8196838442668763 [Eh]
	-----------------------------------------------------------

  Dipole Moment: [D]
     X:     0.0081      Y:     1.7052      Z:     0.0113     Total:     1.7053

*** Psi4 exiting successfully. Buy a developer a beer!
