                               Psi4 1.4a3.dev225

  ==> Input File <==

--------------------------------------------------------------------------
#psi4
#
memory 32 gb

molecule  {
0 1
  O       -0.0000020    -0.6102900    -0.0000420
  C        0.9363500     0.4141040    -0.4566330
  C       -0.9363370     0.4140910     0.4566200
  C        0.0000010     1.5430250    -0.0000030
  C        2.3158535     0.2855977     0.2665002
  C       -2.2717330     0.2897190    -0.2433270
  C        2.9423460    -1.0479970    -0.0522250
  C       -2.9423440    -1.0480000     0.0522380
  H        1.0693000     0.3446630    -1.5460730
  H       -1.0692400     0.3446160     1.5460640
  H        0.4022720     2.1756970     0.7958000
  H       -0.4022820     2.1756850    -0.7958090
  H        2.1021510     0.3966190     1.3216110
  H        2.9117530     1.1256360    -0.0698640
  H       -2.1022070     0.3966710    -1.3215760
  H       -2.9117580     1.1256310     0.0699580
  H        2.2845910    -1.8662570     0.2495040
  H        3.1497060    -1.1530710    -1.1218230
  H        3.8888820    -1.1460650     0.4866090
  H       -3.1496440    -1.1531250     1.1218420
  H       -3.8889120    -1.1460430    -0.4865470
  H       -2.2846070    -1.8662470    -0.2495670
units angstrom
no_reorient  #important for SAPT in psi4, default
symmetry c1  #important for SAPT in psi4, default
}

set PROPERTIES_ORIGIN ["COM"]
properties('MP2/aug-cc-pvtz', properties = ['dipole'])
--------------------------------------------------------------------------

    Molecular point group: c1
  Charge       = 0
  Multiplicity = 1
  Basis Set: AUG-CC-PVTZ
    Blend: AUG-CC-PVTZ
  Basis Set: (AUG-CC-PVTZ AUX)
    Blend: AUG-CC-PVTZ-JKFIT

    Orbital Energies [Eh]
    ---------------------

    Doubly Occupied:

       1A    -20.538087     2A    -11.278466     3A    -11.276856
       4A    -11.223797     5A    -11.218743     6A    -11.218025
       7A    -11.207301     8A    -11.206452     9A     -1.364124
      10A     -1.057871    11A     -1.046142    12A     -0.994905
      13A     -0.911389    14A     -0.845431    15A     -0.806283
      16A     -0.735477    17A     -0.670580    18A     -0.663815
      19A     -0.607487    20A     -0.602356    21A     -0.583663
      22A     -0.558949    23A     -0.551849    24A     -0.523823
      25A     -0.521340    26A     -0.500460    27A     -0.490428
      28A     -0.482862    29A     -0.479538    30A     -0.446965
      31A     -0.431920    32A     -0.396750

  @DF-RHF Final Energy:  -348.18426190016419

   => Energetics <=

    Nuclear Repulsion Energy =            398.8463669806974394
    One-Electron Energy =               -1263.1769812957265913
    Two-Electron Energy =                 516.1463524148649640
    Total Energy =                       -348.1842619001641879
  Basis Set: (AUG-CC-PVTZ AUX)
    Blend: AUG-CC-PVTZ-RI
    Molecular point group: c1

    Geometry (in Angstrom), charge = 0, multiplicity = 1:

       Center              X                  Y                   Z               Mass
    ------------   -----------------  -----------------  -----------------  -----------------
         O           -0.004643457711    -0.612020240855    -0.002473987415    15.994914619570
         C            0.931708542289     0.412373759145    -0.459064987415    12.000000000000
         C           -0.940978457711     0.412360759145     0.454188012585    12.000000000000
         C           -0.004640457711     1.541294759145    -0.002434987415    12.000000000000
         C            2.311212042289     0.283867459145     0.264068212585    12.000000000000
         C           -2.276374457711     0.287988759145    -0.245758987415    12.000000000000
         C            2.937704542289    -1.049727240855    -0.054656987415    12.000000000000
         C           -2.946985457711    -1.049730240855     0.049806012585    12.000000000000
         H            1.064658542289     0.342932759145    -1.548504987415     1.007825032230
         H           -1.073881457711     0.342885759145     1.543632012585     1.007825032230
         H            0.397630542289     2.173966759145     0.793368012585     1.007825032230
         H           -0.406923457711     2.173954759145    -0.798240987415     1.007825032230
         H            2.097509542289     0.394888759145     1.319179012585     1.007825032230
         H            2.907111542289     1.123905759145    -0.072295987415     1.007825032230
         H           -2.106848457711     0.394940759145    -1.324007987415     1.007825032230
         H           -2.916399457711     1.123900759145     0.067526012585     1.007825032230
         H            2.279949542289    -1.867987240855     0.247072012585     1.007825032230
         H            3.145064542289    -1.154801240855    -1.124254987415     1.007825032230
         H            3.884240542289    -1.147795240855     0.484177012585     1.007825032230
         H           -3.154285457711    -1.154855240855     1.119410012585     1.007825032230
         H           -3.893553457711    -1.147773240855    -0.488978987415     1.007825032230
         H           -2.289248457711    -1.867977240855    -0.251998987415     1.007825032230

  Basis Set: AUG-CC-PVTZ
    Blend: AUG-CC-PVTZ
  Basis Set: (AUG-CC-PVTZ AUX)
    Blend: AUG-CC-PVTZ-JKFIT
	 Reference Energy          =    -348.1842619001641879 [Eh]
	 Singles Energy            =      -0.0000000000000000 [Eh]
	 Same-Spin Energy          =      -0.3608347894035498 [Eh]
	 Opposite-Spin Energy      =      -1.2614922702438935 [Eh]
	 Correlation Energy        =      -1.6223270596474433 [Eh]
	 Total Energy              =    -349.8065889598116200 [Eh]

	 ================> DF-SCS-MP2 Energies <==================
	-----------------------------------------------------------
	 SCS Same-Spin Scale       =       0.3333333333333333 [-]
	 SCS Opposite-Spin Scale   =       1.2000000000000000 [-]
	 SCS Same-Spin Energy      =      -0.1202782631345166 [Eh]
	 SCS Opposite-Spin Energy  =      -1.5137907242926723 [Eh]
	 SCS Correlation Energy    =      -1.6340689874271888 [Eh]
	 SCS Total Energy          =    -349.8183308875914008 [Eh]
	-----------------------------------------------------------

  Dipole Moment: [D]
     X:    -0.0165      Y:     1.7042      Z:    -0.0066     Total:     1.7043

*** Psi4 exiting successfully. Buy a developer a beer!
