                               Psi4 1.4a3.dev225

  ==> Input File <==

--------------------------------------------------------------------------
#psi4
#
memory 32 gb

molecule  {
0 1
  O       -0.0000020    -0.6102900    -0.0000420
  C        0.8935297     0.2820185    -0.3805073
  C       -0.9363370     0.4140910     0.4566200
  C        0.0000010     1.5430250    -0.0000030
  C        2.2717190     0.2897090     0.2433650
  C       -2.2717330     0.2897190    -0.2433270
  C        2.9423460    -1.0479970    -0.0522250
  C       -2.9423440    -1.0480000     0.0522380
  H        1.0693000     0.3446630    -1.5460730
  H       -1.0692400     0.3446160     1.5460640
  H        0.4022720     2.1756970     0.7958000
  H       -0.4022820     2.1756850    -0.7958090
  H        2.1021510     0.3966190     1.3216110
  H        2.9117530     1.1256360    -0.0698640
  H       -2.1022070     0.3966710    -1.3215760
  H       -2.9117580     1.1256310     0.0699580
  H        2.2845910    -1.8662570     0.2495040
  H        3.1497060    -1.1530710    -1.1218230
  H        3.8888820    -1.1460650     0.4866090
  H       -3.1496440    -1.1531250     1.1218420
  H       -3.8889120    -1.1460430    -0.4865470
  H       -2.2846070    -1.8662470    -0.2495670
units angstrom
no_reorient  #important for SAPT in psi4, default
symmetry c1  #important for SAPT in psi4, default
}

set PROPERTIES_ORIGIN ["COM"]
properties('MP2/aug-cc-pvtz', properties = ['dipole'])
--------------------------------------------------------------------------

    Molecular point group: c1
  Charge       = 0
  Multiplicity = 1
  Basis Set: AUG-CC-PVTZ
    Blend: AUG-CC-PVTZ
  Basis Set: (AUG-CC-PVTZ AUX)
    Blend: AUG-CC-PVTZ-JKFIT

    Orbital Energies [Eh]
    ---------------------

    Doubly Occupied:

       1A    -20.550608     2A    -11.285603     3A    -11.281501
       4A    -11.223247     5A    -11.220093     6A    -11.215299
       7A    -11.210932     8A    -11.204811     9A     -1.421894
      10A     -1.066323    11A     -1.046069    12A     -0.991029
      13A     -0.913182    14A     -0.845873    15A     -0.810777
      16A     -0.732016    17A     -0.688902    18A     -0.673502
      19A     -0.620699    20A     -0.606726    21A     -0.582102
      22A     -0.568111    23A     -0.554275    24A     -0.531750
      25A     -0.523773    26A     -0.501361    27A     -0.494645
      28A     -0.485758    29A     -0.475932    30A     -0.462515
      31A     -0.403630    32A     -0.389473

  @DF-RHF Final Energy:  -348.16691399568481

   => Energetics <=

    Nuclear Repulsion Energy =            401.4565124504162554
    One-Electron Energy =               -1268.0820303630944181
    Two-Electron Energy =                 518.4586039169932974
    Total Energy =                       -348.1669139956848085
  Basis Set: (AUG-CC-PVTZ AUX)
    Blend: AUG-CC-PVTZ-RI
    Molecular point group: c1

    Geometry (in Angstrom), charge = 0, multiplicity = 1:

       Center              X                  Y                   Z               Mass
    ------------   -----------------  -----------------  -----------------  -----------------
         O            0.004501299239    -0.598561605392    -0.008046828053    15.994914619570
         C            0.898032999239     0.293746894608    -0.388512128053    12.000000000000
         C           -0.931833700761     0.425819394608     0.448615171947    12.000000000000
         C            0.004504299239     1.554753394608    -0.008007828053    12.000000000000
         C            2.276222299239     0.301437394608     0.235360171947    12.000000000000
         C           -2.267229700761     0.301447394608    -0.251331828053    12.000000000000
         C            2.946849299239    -1.036268605392    -0.060229828053    12.000000000000
         C           -2.937840700761    -1.036271605392     0.044233171947    12.000000000000
         H            1.073803299239     0.356391394608    -1.554077828053     1.007825032230
         H           -1.064736700761     0.356344394608     1.538059171947     1.007825032230
         H            0.406775299239     2.187425394608     0.787795171947     1.007825032230
         H           -0.397778700761     2.187413394608    -0.803813828053     1.007825032230
         H            2.106654299239     0.408347394608     1.313606171947     1.007825032230
         H            2.916256299239     1.137364394608    -0.077868828053     1.007825032230
         H           -2.097703700761     0.408399394608    -1.329580828053     1.007825032230
         H           -2.907254700761     1.137359394608     0.061953171947     1.007825032230
         H            2.289094299239    -1.854528605392     0.241499171947     1.007825032230
         H            3.154209299239    -1.141342605392    -1.129827828053     1.007825032230
         H            3.893385299239    -1.134336605392     0.478604171947     1.007825032230
         H           -3.145140700761    -1.141396605392     1.113837171947     1.007825032230
         H           -3.884408700761    -1.134314605392    -0.494551828053     1.007825032230
         H           -2.280103700761    -1.854518605392    -0.257571828053     1.007825032230

  Basis Set: AUG-CC-PVTZ
    Blend: AUG-CC-PVTZ
  Basis Set: (AUG-CC-PVTZ AUX)
    Blend: AUG-CC-PVTZ-JKFIT
	 Reference Energy          =    -348.1669139956848085 [Eh]
	 Singles Energy            =      -0.0000000000000000 [Eh]
	 Same-Spin Energy          =      -0.3609888107227880 [Eh]
	 Opposite-Spin Energy      =      -1.2600032546374786 [Eh]
	 Correlation Energy        =      -1.6209920653602667 [Eh]
	 Total Energy              =    -349.7879060610450779 [Eh]

	 ================> DF-SCS-MP2 Energies <==================
	-----------------------------------------------------------
	 SCS Same-Spin Scale       =       0.3333333333333333 [-]
	 SCS Opposite-Spin Scale   =       1.2000000000000000 [-]
	 SCS Same-Spin Energy      =      -0.1203296035742627 [Eh]
	 SCS Opposite-Spin Energy  =      -1.5120039055649743 [Eh]
	 SCS Correlation Energy    =      -1.6323335091392370 [Eh]
	 SCS Total Energy          =    -349.7992475048240522 [Eh]
	-----------------------------------------------------------

  Dipole Moment: [D]
     X:    -0.4350      Y:     1.4875      Z:     0.2616     Total:     1.5718

*** Psi4 exiting successfully. Buy a developer a beer!
