                               Psi4 1.4a3.dev225

  ==> Input File <==

--------------------------------------------------------------------------
#psi4
#
memory 32 gb

molecule  {
0 1
  O       -0.0000020    -0.6102900    -0.0000420
  C        0.9363500     0.4141040    -0.4566330
  C       -0.9363370     0.4140910     0.4566200
  C        0.0000010     1.5430250    -0.0000030
  C        2.2702727     0.2765306     0.2949286
  C       -2.2717330     0.2897190    -0.2433270
  C        2.9423460    -1.0479970    -0.0522250
  C       -2.9423440    -1.0480000     0.0522380
  H        1.0693000     0.3446630    -1.5460730
  H       -1.0692400     0.3446160     1.5460640
  H        0.4022720     2.1756970     0.7958000
  H       -0.4022820     2.1756850    -0.7958090
  H        2.1021510     0.3966190     1.3216110
  H        2.9117530     1.1256360    -0.0698640
  H       -2.1022070     0.3966710    -1.3215760
  H       -2.9117580     1.1256310     0.0699580
  H        2.2845910    -1.8662570     0.2495040
  H        3.1497060    -1.1530710    -1.1218230
  H        3.8888820    -1.1460650     0.4866090
  H       -3.1496440    -1.1531250     1.1218420
  H       -3.8889120    -1.1460430    -0.4865470
  H       -2.2846070    -1.8662470    -0.2495670
units angstrom
no_reorient  #important for SAPT in psi4, default
symmetry c1  #important for SAPT in psi4, default
}

set PROPERTIES_ORIGIN ["COM"]
properties('MP2/aug-cc-pvtz', properties = ['dipole'])
--------------------------------------------------------------------------

    Molecular point group: c1
  Charge       = 0
  Multiplicity = 1
  Basis Set: AUG-CC-PVTZ
    Blend: AUG-CC-PVTZ
  Basis Set: (AUG-CC-PVTZ AUX)
    Blend: AUG-CC-PVTZ-JKFIT

    Orbital Energies [Eh]
    ---------------------

    Doubly Occupied:

       1A    -20.537111     2A    -11.277911     3A    -11.276796
       4A    -11.223777     5A    -11.218753     6A    -11.218201
       7A    -11.207283     8A    -11.207226     9A     -1.364454
      10A     -1.058315    11A     -1.046067    12A     -0.994168
      13A     -0.911891    14A     -0.846259    15A     -0.807245
      16A     -0.736824    17A     -0.669479    18A     -0.665033
      19A     -0.608901    20A     -0.599010    21A     -0.584681
      22A     -0.560012    23A     -0.550994    24A     -0.522243
      25A     -0.520528    26A     -0.504080    27A     -0.488685
      28A     -0.485468    29A     -0.476770    30A     -0.445372
      31A     -0.431533    32A     -0.399343

  @DF-RHF Final Energy:  -348.18329506500942

   => Energetics <=

    Nuclear Repulsion Energy =            399.3321086154371642
    One-Electron Energy =               -1264.1419823955523043
    Two-Electron Energy =                 516.6265787151056657
    Total Energy =                       -348.1832950650094745
  Basis Set: (AUG-CC-PVTZ AUX)
    Blend: AUG-CC-PVTZ-RI
    Molecular point group: c1

    Geometry (in Angstrom), charge = 0, multiplicity = 1:

       Center              X                  Y                   Z               Mass
    ------------   -----------------  -----------------  -----------------  -----------------
         O            0.000150128584    -0.611066683078    -0.005463710909    15.994914619570
         C            0.936502128584     0.413327316922    -0.462054710909    12.000000000000
         C           -0.936184871416     0.413314316922     0.451198289091    12.000000000000
         C            0.000153128584     1.542248316922    -0.005424710909    12.000000000000
         C            2.270424828584     0.275753916922     0.289506889091    12.000000000000
         C           -2.271580871416     0.288942316922    -0.248748710909    12.000000000000
         C            2.942498128584    -1.048773683078    -0.057646710909    12.000000000000
         C           -2.942191871416    -1.048776683078     0.046816289091    12.000000000000
         H            1.069452128584     0.343886316922    -1.551494710909     1.007825032230
         H           -1.069087871416     0.343839316922     1.540642289091     1.007825032230
         H            0.402424128584     2.174920316922     0.790378289091     1.007825032230
         H           -0.402129871416     2.174908316922    -0.801230710909     1.007825032230
         H            2.102303128584     0.395842316922     1.316189289091     1.007825032230
         H            2.911905128584     1.124859316922    -0.075285710909     1.007825032230
         H           -2.102054871416     0.395894316922    -1.326997710909     1.007825032230
         H           -2.911605871416     1.124854316922     0.064536289091     1.007825032230
         H            2.284743128584    -1.867033683078     0.244082289091     1.007825032230
         H            3.149858128584    -1.153847683078    -1.127244710909     1.007825032230
         H            3.889034128584    -1.146841683078     0.481187289091     1.007825032230
         H           -3.149491871416    -1.153901683078     1.116420289091     1.007825032230
         H           -3.888759871416    -1.146819683078    -0.491968710909     1.007825032230
         H           -2.284454871416    -1.867023683078    -0.254988710909     1.007825032230

  Basis Set: AUG-CC-PVTZ
    Blend: AUG-CC-PVTZ
  Basis Set: (AUG-CC-PVTZ AUX)
    Blend: AUG-CC-PVTZ-JKFIT
	 Reference Energy          =    -348.1832950650094176 [Eh]
	 Singles Energy            =      -0.0000000000000000 [Eh]
	 Same-Spin Energy          =      -0.3608384744978711 [Eh]
	 Opposite-Spin Energy      =      -1.2615088940931458 [Eh]
	 Correlation Energy        =      -1.6223473685910168 [Eh]
	 Total Energy              =    -349.8056424336004397 [Eh]

	 ================> DF-SCS-MP2 Energies <==================
	-----------------------------------------------------------
	 SCS Same-Spin Scale       =       0.3333333333333333 [-]
	 SCS Opposite-Spin Scale   =       1.2000000000000000 [-]
	 SCS Same-Spin Energy      =      -0.1202794914992904 [Eh]
	 SCS Opposite-Spin Energy  =      -1.5138106729117748 [Eh]
	 SCS Correlation Energy    =      -1.6340901644110652 [Eh]
	 SCS Total Energy          =    -349.8173852294204949 [Eh]
	-----------------------------------------------------------

  Dipole Moment: [D]
     X:    -0.0200      Y:     1.6927      Z:     0.0106     Total:     1.6929

*** Psi4 exiting successfully. Buy a developer a beer!
