                               Psi4 1.4a3.dev225

  ==> Input File <==

--------------------------------------------------------------------------
#psi4
#
memory 32 gb

molecule  {
0 1
  O       -0.0000020    -0.6102900    -0.0000420
  C        0.9363500     0.4141040    -0.4566330
  C       -0.9363370     0.4140910     0.4566200
  C        0.0000010     1.5430250    -0.0000030
  C        2.2717190     0.2897090     0.2433650
  C       -2.2717330     0.2897190    -0.2433270
  C        2.9423460    -1.0479970    -0.0522250
  C       -2.9423440    -1.0480000     0.0522380
  H        1.0693000     0.3446630    -1.5460730
  H       -1.0692400     0.3446160     1.5460640
  H        0.4022720     2.1756970     0.7958000
  H       -0.4022820     2.1756850    -0.7958090
  H        2.1129359     0.4124325     1.3215692
  H        2.9117530     1.1256360    -0.0698640
  H       -2.1022070     0.3966710    -1.3215760
  H       -2.9117580     1.1256310     0.0699580
  H        2.2845910    -1.8662570     0.2495040
  H        3.1497060    -1.1530710    -1.1218230
  H        3.8888820    -1.1460650     0.4866090
  H       -3.1496440    -1.1531250     1.1218420
  H       -3.8889120    -1.1460430    -0.4865470
  H       -2.2846070    -1.8662470    -0.2495670
units angstrom
no_reorient  #important for SAPT in psi4, default
symmetry c1  #important for SAPT in psi4, default
}

set PROPERTIES_ORIGIN ["COM"]
properties('MP2/aug-cc-pvtz', properties = ['dipole'])
--------------------------------------------------------------------------

    Molecular point group: c1
  Charge       = 0
  Multiplicity = 1
  Basis Set: AUG-CC-PVTZ
    Blend: AUG-CC-PVTZ
  Basis Set: (AUG-CC-PVTZ AUX)
    Blend: AUG-CC-PVTZ-JKFIT

    Orbital Energies [Eh]
    ---------------------

    Doubly Occupied:

       1A    -20.538022     2A    -11.277083     3A    -11.276965
       4A    -11.224079     5A    -11.218815     6A    -11.218813
       7A    -11.207471     8A    -11.207342     9A     -1.364949
      10A     -1.059692    11A     -1.047369    12A     -0.994182
      13A     -0.913198    14A     -0.847216    15A     -0.805267
      16A     -0.736138    17A     -0.671606    18A     -0.664902
      19A     -0.607269    20A     -0.601209    21A     -0.584197
      22A     -0.558903    23A     -0.551693    24A     -0.522190
      25A     -0.521277    26A     -0.498908    27A     -0.491764
      28A     -0.480843    29A     -0.479757    30A     -0.446208
      31A     -0.432407    32A     -0.401692

  @DF-RHF Final Energy:  -348.18633919171947

   => Energetics <=

    Nuclear Repulsion Energy =            399.4898802509967481
    One-Electron Energy =               -1264.4495926907334251
    Two-Electron Energy =                 516.7733732480172648
    Total Energy =                       -348.1863391917194122
  Basis Set: (AUG-CC-PVTZ AUX)
    Blend: AUG-CC-PVTZ-RI
    Molecular point group: c1

    Geometry (in Angstrom), charge = 0, multiplicity = 1:

       Center              X                  Y                   Z               Mass
    ------------   -----------------  -----------------  -----------------  -----------------
         O           -0.000097231519    -0.612592285438    -0.000040563561    15.994914619570
         C            0.936254768481     0.411801714562    -0.456631563561    12.000000000000
         C           -0.936432231519     0.411788714562     0.456621436439    12.000000000000
         C           -0.000094231519     1.540722714562    -0.000001563561    12.000000000000
         C            2.271623768481     0.287406714562     0.243366436439    12.000000000000
         C           -2.271828231519     0.287416714562    -0.243325563561    12.000000000000
         C            2.942250768481    -1.050299285438    -0.052223563561    12.000000000000
         C           -2.942439231519    -1.050302285438     0.052239436439    12.000000000000
         H            1.069204768481     0.342360714562    -1.546071563561     1.007825032230
         H           -1.069335231519     0.342313714562     1.546065436439     1.007825032230
         H            0.402176768481     2.173394714562     0.795801436439     1.007825032230
         H           -0.402377231519     2.173382714562    -0.795807563561     1.007825032230
         H            2.112840668481     0.410130214562     1.321570636439     1.007825032230
         H            2.911657768481     1.123333714562    -0.069862563561     1.007825032230
         H           -2.102302231519     0.394368714562    -1.321574563561     1.007825032230
         H           -2.911853231519     1.123328714562     0.069959436439     1.007825032230
         H            2.284495768481    -1.868559285438     0.249505436439     1.007825032230
         H            3.149610768481    -1.155373285438    -1.121821563561     1.007825032230
         H            3.888786768481    -1.148367285438     0.486610436439     1.007825032230
         H           -3.149739231519    -1.155427285438     1.121843436439     1.007825032230
         H           -3.889007231519    -1.148345285438    -0.486545563561     1.007825032230
         H           -2.284702231519    -1.868549285438    -0.249565563561     1.007825032230

  Basis Set: AUG-CC-PVTZ
    Blend: AUG-CC-PVTZ
  Basis Set: (AUG-CC-PVTZ AUX)
    Blend: AUG-CC-PVTZ-JKFIT
	 Reference Energy          =    -348.1863391917194690 [Eh]
	 Singles Energy            =      -0.0000000000000000 [Eh]
	 Same-Spin Energy          =      -0.3609125135323944 [Eh]
	 Opposite-Spin Energy      =      -1.2614481342951676 [Eh]
	 Correlation Energy        =      -1.6223606478275618 [Eh]
	 Total Energy              =    -349.8086998395470459 [Eh]

	 ================> DF-SCS-MP2 Energies <==================
	-----------------------------------------------------------
	 SCS Same-Spin Scale       =       0.3333333333333333 [-]
	 SCS Opposite-Spin Scale   =       1.2000000000000000 [-]
	 SCS Same-Spin Energy      =      -0.1203041711774648 [Eh]
	 SCS Opposite-Spin Energy  =      -1.5137377611542011 [Eh]
	 SCS Correlation Energy    =      -1.6340419323316659 [Eh]
	 SCS Total Energy          =    -349.8203811240511527 [Eh]
	-----------------------------------------------------------

  Dipole Moment: [D]
     X:     0.0036      Y:     1.7101      Z:     0.0010     Total:     1.7101

*** Psi4 exiting successfully. Buy a developer a beer!
