                               Psi4 1.4a3.dev225

  ==> Input File <==

--------------------------------------------------------------------------
#psi4
#
memory 32 gb

molecule  {
0 1
  O       -0.0000020    -0.6102900    -0.0000420
  C        0.9938009     0.5448266    -0.5250893
  C       -0.9363370     0.4140910     0.4566200
  C        0.0000010     1.5430250    -0.0000030
  C        2.2717190     0.2897090     0.2433650
  C       -2.2717330     0.2897190    -0.2433270
  C        2.9423460    -1.0479970    -0.0522250
  C       -2.9423440    -1.0480000     0.0522380
  H        1.0693000     0.3446630    -1.5460730
  H       -1.0692400     0.3446160     1.5460640
  H        0.4022720     2.1756970     0.7958000
  H       -0.4022820     2.1756850    -0.7958090
  H        2.1021510     0.3966190     1.3216110
  H        2.9117530     1.1256360    -0.0698640
  H       -2.1022070     0.3966710    -1.3215760
  H       -2.9117580     1.1256310     0.0699580
  H        2.2845910    -1.8662570     0.2495040
  H        3.1497060    -1.1530710    -1.1218230
  H        3.8888820    -1.1460650     0.4866090
  H       -3.1496440    -1.1531250     1.1218420
  H       -3.8889120    -1.1460430    -0.4865470
  H       -2.2846070    -1.8662470    -0.2495670
units angstrom
no_reorient  #important for SAPT in psi4, default
symmetry c1  #important for SAPT in psi4, default
}

set PROPERTIES_ORIGIN ["COM"]
properties('MP2/aug-cc-pvtz', properties = ['dipole'])
--------------------------------------------------------------------------

    Molecular point group: c1
  Charge       = 0
  Multiplicity = 1
  Basis Set: AUG-CC-PVTZ
    Blend: AUG-CC-PVTZ
  Basis Set: (AUG-CC-PVTZ AUX)
    Blend: AUG-CC-PVTZ-JKFIT

    Orbital Energies [Eh]
    ---------------------

    Doubly Occupied:

       1A    -20.522329     2A    -11.283193     3A    -11.270214
       4A    -11.228723     5A    -11.225460     6A    -11.214784
       7A    -11.210681     8A    -11.203909     9A     -1.322088
      10A     -1.063001    11A     -1.043970    12A     -0.998005
      13A     -0.913706    14A     -0.849641    15A     -0.805609
      16A     -0.741899    17A     -0.660642    18A     -0.654860
      19A     -0.606045    20A     -0.596658    21A     -0.589101
      22A     -0.565000    23A     -0.538577    24A     -0.522223
      25A     -0.515014    26A     -0.494840    27A     -0.488948
      28A     -0.485618    29A     -0.474962    30A     -0.455622
      31A     -0.414050    32A     -0.397731

  @DF-RHF Final Energy:  -348.16525280421689

   => Energetics <=

    Nuclear Repulsion Energy =            397.5247047499422592
    One-Electron Energy =               -1260.6657098442874485
    Two-Electron Energy =                 514.9757522901282982
    Total Energy =                       -348.1652528042169479
  Basis Set: (AUG-CC-PVTZ AUX)
    Blend: AUG-CC-PVTZ-RI
    Molecular point group: c1

    Geometry (in Angstrom), charge = 0, multiplicity = 1:

       Center              X                  Y                   Z               Mass
    ------------   -----------------  -----------------  -----------------  -----------------
         O           -0.006043900717    -0.626200288927     0.007158396378    15.994914619570
         C            0.987758999283     0.528916311073    -0.517888903622    12.000000000000
         C           -0.942378900717     0.398180711073     0.463820396378    12.000000000000
         C           -0.006040900717     1.527114711073     0.007197396378    12.000000000000
         C            2.265677099283     0.273798711073     0.250565396378    12.000000000000
         C           -2.277774900717     0.273808711073    -0.236126603622    12.000000000000
         C            2.936304099283    -1.063907288927    -0.045024603622    12.000000000000
         C           -2.948385900717    -1.063910288927     0.059438396378    12.000000000000
         H            1.063258099283     0.328752711073    -1.538872603622     1.007825032230
         H           -1.075281900717     0.328705711073     1.553264396378     1.007825032230
         H            0.396230099283     2.159786711073     0.803000396378     1.007825032230
         H           -0.408323900717     2.159774711073    -0.788608603622     1.007825032230
         H            2.096109099283     0.380708711073     1.328811396378     1.007825032230
         H            2.905711099283     1.109725711073    -0.062663603622     1.007825032230
         H           -2.108248900717     0.380760711073    -1.314375603622     1.007825032230
         H           -2.917799900717     1.109720711073     0.077158396378     1.007825032230
         H            2.278549099283    -1.882167288927     0.256704396378     1.007825032230
         H            3.143664099283    -1.168981288927    -1.114622603622     1.007825032230
         H            3.882840099283    -1.161975288927     0.493809396378     1.007825032230
         H           -3.155685900717    -1.169035288927     1.129042396378     1.007825032230
         H           -3.894953900717    -1.161953288927    -0.479346603622     1.007825032230
         H           -2.290648900717    -1.882157288927    -0.242366603622     1.007825032230

  Basis Set: AUG-CC-PVTZ
    Blend: AUG-CC-PVTZ
  Basis Set: (AUG-CC-PVTZ AUX)
    Blend: AUG-CC-PVTZ-JKFIT
	 Reference Energy          =    -348.1652528042168910 [Eh]
	 Singles Energy            =      -0.0000000000000000 [Eh]
	 Same-Spin Energy          =      -0.3622957557126124 [Eh]
	 Opposite-Spin Energy      =      -1.2656554727729865 [Eh]
	 Correlation Energy        =      -1.6279512284855988 [Eh]
	 Total Energy              =    -349.7932040327024765 [Eh]

	 ================> DF-SCS-MP2 Energies <==================
	-----------------------------------------------------------
	 SCS Same-Spin Scale       =       0.3333333333333333 [-]
	 SCS Opposite-Spin Scale   =       1.2000000000000000 [-]
	 SCS Same-Spin Energy      =      -0.1207652519042041 [Eh]
	 SCS Opposite-Spin Energy  =      -1.5187865673275838 [Eh]
	 SCS Correlation Energy    =      -1.6395518192317879 [Eh]
	 SCS Total Energy          =    -349.8048046234486605 [Eh]
	-----------------------------------------------------------

  Dipole Moment: [D]
     X:     0.3586      Y:     1.8659      Z:    -0.1517     Total:     1.9060

*** Psi4 exiting successfully. Buy a developer a beer!
