                               Psi4 1.4a3.dev225

  ==> Input File <==

--------------------------------------------------------------------------
#psi4
#
memory 32 gb

molecule  {
0 1
  O       -0.0000020    -0.6102900    -0.0000420
  C        0.9363500     0.4141040    -0.4566330
  C       -0.9363370     0.4140910     0.4566200
  C       -0.1219084     1.6900066     0.0594487
  C        2.2717190     0.2897090     0.2433650
  C       -2.2717330     0.2897190    -0.2433270
  C        2.9423460    -1.0479970    -0.0522250
  C       -2.9423440    -1.0480000     0.0522380
  H        1.0693000     0.3446630    -1.5460730
  H       -1.0692400     0.3446160     1.5460640
  H        0.4022720     2.1756970     0.7958000
  H       -0.4022820     2.1756850    -0.7958090
  H        2.1021510     0.3966190     1.3216110
  H        2.9117530     1.1256360    -0.0698640
  H       -2.1022070     0.3966710    -1.3215760
  H       -2.9117580     1.1256310     0.0699580
  H        2.2845910    -1.8662570     0.2495040
  H        3.1497060    -1.1530710    -1.1218230
  H        3.8888820    -1.1460650     0.4866090
  H       -3.1496440    -1.1531250     1.1218420
  H       -3.8889120    -1.1460430    -0.4865470
  H       -2.2846070    -1.8662470    -0.2495670
units angstrom
no_reorient  #important for SAPT in psi4, default
symmetry c1  #important for SAPT in psi4, default
}

set PROPERTIES_ORIGIN ["COM"]
properties('MP2/aug-cc-pvtz', properties = ['dipole'])
--------------------------------------------------------------------------

    Molecular point group: c1
  Charge       = 0
  Multiplicity = 1
  Basis Set: AUG-CC-PVTZ
    Blend: AUG-CC-PVTZ
  Basis Set: (AUG-CC-PVTZ AUX)
    Blend: AUG-CC-PVTZ-JKFIT

    Orbital Energies [Eh]
    ---------------------

    Doubly Occupied:

       1A    -20.542329     2A    -11.287577     3A    -11.283845
       4A    -11.223371     5A    -11.219912     6A    -11.218290
       7A    -11.208392     8A    -11.206397     9A     -1.358980
      10A     -1.059526    11A     -1.044080    12A     -0.985935
      13A     -0.908518    14A     -0.850484    15A     -0.802922
      16A     -0.744575    17A     -0.673030    18A     -0.654540
      19A     -0.614767    20A     -0.601205    21A     -0.579200
      22A     -0.565819    23A     -0.557454    24A     -0.536389
      25A     -0.522403    26A     -0.499598    27A     -0.490142
      28A     -0.481002    29A     -0.479419    30A     -0.451811
      31A     -0.406303    32A     -0.387701

  @DF-RHF Final Energy:  -348.15604159381985

   => Energetics <=

    Nuclear Repulsion Energy =            396.5794399630869975
    One-Electron Energy =               -1258.5791312521062082
    Two-Electron Energy =                 513.8436496951993604
    Total Energy =                       -348.1560415938198503
  Basis Set: (AUG-CC-PVTZ AUX)
    Blend: AUG-CC-PVTZ-RI
    Molecular point group: c1

    Geometry (in Angstrom), charge = 0, multiplicity = 1:

       Center              X                  Y                   Z               Mass
    ------------   -----------------  -----------------  -----------------  -----------------
         O            0.012818845791    -0.627910195721    -0.006293277043    15.994914619570
         C            0.949170845791     0.396483804279    -0.462884277043    12.000000000000
         C           -0.923516154209     0.396470804279     0.450368722957    12.000000000000
         C           -0.109087554209     1.672386404279     0.053197422957    12.000000000000
         C            2.284539845791     0.272088804279     0.237113722957    12.000000000000
         C           -2.258912154209     0.272098804279    -0.249578277043    12.000000000000
         C            2.955166845791    -1.065617195721    -0.058476277043    12.000000000000
         C           -2.929523154209    -1.065620195721     0.045986722957    12.000000000000
         H            1.082120845791     0.327042804279    -1.552324277043     1.007825032230
         H           -1.056419154209     0.326995804279     1.539812722957     1.007825032230
         H            0.415092845791     2.158076804279     0.789548722957     1.007825032230
         H           -0.389461154209     2.158064804279    -0.802060277043     1.007825032230
         H            2.114971845791     0.378998804279     1.315359722957     1.007825032230
         H            2.924573845791     1.108015804279    -0.076115277043     1.007825032230
         H           -2.089386154209     0.379050804279    -1.327827277043     1.007825032230
         H           -2.898937154209     1.108010804279     0.063706722957     1.007825032230
         H            2.297411845791    -1.883877195721     0.243252722957     1.007825032230
         H            3.162526845791    -1.170691195721    -1.128074277043     1.007825032230
         H            3.901702845791    -1.163685195721     0.480357722957     1.007825032230
         H           -3.136823154209    -1.170745195721     1.115590722957     1.007825032230
         H           -3.876091154209    -1.163663195721    -0.492798277043     1.007825032230
         H           -2.271786154209    -1.883867195721    -0.255818277043     1.007825032230

  Basis Set: AUG-CC-PVTZ
    Blend: AUG-CC-PVTZ
  Basis Set: (AUG-CC-PVTZ AUX)
    Blend: AUG-CC-PVTZ-JKFIT
	 Reference Energy          =    -348.1560415938198503 [Eh]
	 Singles Energy            =      -0.0000000000000000 [Eh]
	 Same-Spin Energy          =      -0.3618114708583188 [Eh]
	 Opposite-Spin Energy      =      -1.2644614963227845 [Eh]
	 Correlation Energy        =      -1.6262729671811034 [Eh]
	 Total Energy              =    -349.7823145610009306 [Eh]

	 ================> DF-SCS-MP2 Energies <==================
	-----------------------------------------------------------
	 SCS Same-Spin Scale       =       0.3333333333333333 [-]
	 SCS Opposite-Spin Scale   =       1.2000000000000000 [-]
	 SCS Same-Spin Energy      =      -0.1206038236194396 [Eh]
	 SCS Opposite-Spin Energy  =      -1.5173537955873413 [Eh]
	 SCS Correlation Energy    =      -1.6379576192067808 [Eh]
	 SCS Total Energy          =    -349.7939992130266091 [Eh]
	-----------------------------------------------------------

  Dipole Moment: [D]
     X:     0.1544      Y:     1.5908      Z:    -0.0341     Total:     1.5986

*** Psi4 exiting successfully. Buy a developer a beer!
