                               Psi4 1.4a3.dev225

  ==> Input File <==

--------------------------------------------------------------------------
#psi4
#
memory 32 gb

molecule  {
0 1
  O       -0.0000020    -0.6102900    -0.0000420
  C        0.9363500     0.4141040    -0.4566330
  C       -0.9363370     0.4140910     0.4566200
  C        0.0000010     1.5430250    -0.0000030
  C        2.2717190     0.2897090     0.2433650
  C       -2.2717330     0.2897190    -0.2433270
  C        2.9423460    -1.0479970    -0.0522250
  C       -2.9423440    -1.0480000     0.0522380
  H        1.0693000     0.3446630    -1.5460730
  H       -1.0692400     0.3446160     1.5460640
  H        0.4022720     2.1756970     0.7958000
  H       -0.4022820     2.1756850    -0.7958090
  H        2.1052433     0.3946694     1.3019479
  H        2.9117530     1.1256360    -0.0698640
  H       -2.1022070     0.3966710    -1.3215760
  H       -2.9117580     1.1256310     0.0699580
  H        2.2845910    -1.8662570     0.2495040
  H        3.1497060    -1.1530710    -1.1218230
  H        3.8888820    -1.1460650     0.4866090
  H       -3.1496440    -1.1531250     1.1218420
  H       -3.8889120    -1.1460430    -0.4865470
  H       -2.2846070    -1.8662470    -0.2495670
units angstrom
no_reorient  #important for SAPT in psi4, default
symmetry c1  #important for SAPT in psi4, default
}

set PROPERTIES_ORIGIN ["COM"]
properties('MP2/aug-cc-pvtz', properties = ['dipole'])
--------------------------------------------------------------------------

    Molecular point group: c1
  Charge       = 0
  Multiplicity = 1
  Basis Set: AUG-CC-PVTZ
    Blend: AUG-CC-PVTZ
  Basis Set: (AUG-CC-PVTZ AUX)
    Blend: AUG-CC-PVTZ-JKFIT

    Orbital Energies [Eh]
    ---------------------

    Doubly Occupied:

       1A    -20.538055     2A    -11.277005     3A    -11.276776
       4A    -11.224064     5A    -11.218831     6A    -11.216308
       7A    -11.207358     8A    -11.207126     9A     -1.364984
      10A     -1.060160    11A     -1.047709    12A     -0.994272
      13A     -0.913104    14A     -0.847555    15A     -0.806003
      16A     -0.736525    17A     -0.671645    18A     -0.665290
      19A     -0.607917    20A     -0.601765    21A     -0.584487
      22A     -0.558946    23A     -0.551698    24A     -0.522189
      25A     -0.521077    26A     -0.499057    27A     -0.491823
      28A     -0.481881    29A     -0.480353    30A     -0.446197
      31A     -0.432457    32A     -0.401559

  @DF-RHF Final Energy:  -348.18638171023230

   => Energetics <=

    Nuclear Repulsion Energy =            399.6051321076815839
    One-Electron Energy =               -1264.6746800458527105
    Two-Electron Energy =                 516.8831662279388865
    Total Energy =                       -348.1863817102322400
  Basis Set: (AUG-CC-PVTZ AUX)
    Blend: AUG-CC-PVTZ-RI
    Molecular point group: c1

    Geometry (in Angstrom), charge = 0, multiplicity = 1:

       Center              X                  Y                   Z               Mass
    ------------   -----------------  -----------------  -----------------  -----------------
         O           -0.000029286808    -0.612435393270     0.000132741114    15.994914619570
         C            0.936322713192     0.411958606730    -0.456458258886    12.000000000000
         C           -0.936364286808     0.411945606730     0.456794741114    12.000000000000
         C           -0.000026286808     1.540879606730     0.000171741114    12.000000000000
         C            2.271691713192     0.287563606730     0.243539741114    12.000000000000
         C           -2.271760286808     0.287573606730    -0.243152258886    12.000000000000
         C            2.942318713192    -1.050142393270    -0.052050258886    12.000000000000
         C           -2.942371286808    -1.050145393270     0.052412741114    12.000000000000
         H            1.069272713192     0.342517606730    -1.545898258886     1.007825032230
         H           -1.069267286808     0.342470606730     1.546238741114     1.007825032230
         H            0.402244713192     2.173551606730     0.795974741114     1.007825032230
         H           -0.402309286808     2.173539606730    -0.795634258886     1.007825032230
         H            2.105216013192     0.392524006730     1.302122641114     1.007825032230
         H            2.911725713192     1.123490606730    -0.069689258886     1.007825032230
         H           -2.102234286808     0.394525606730    -1.321401258886     1.007825032230
         H           -2.911785286808     1.123485606730     0.070132741114     1.007825032230
         H            2.284563713192    -1.868402393270     0.249678741114     1.007825032230
         H            3.149678713192    -1.155216393270    -1.121648258886     1.007825032230
         H            3.888854713192    -1.148210393270     0.486783741114     1.007825032230
         H           -3.149671286808    -1.155270393270     1.122016741114     1.007825032230
         H           -3.888939286808    -1.148188393270    -0.486372258886     1.007825032230
         H           -2.284634286808    -1.868392393270    -0.249392258886     1.007825032230

  Basis Set: AUG-CC-PVTZ
    Blend: AUG-CC-PVTZ
  Basis Set: (AUG-CC-PVTZ AUX)
    Blend: AUG-CC-PVTZ-JKFIT
	 Reference Energy          =    -348.1863817102322969 [Eh]
	 Singles Energy            =      -0.0000000000000000 [Eh]
	 Same-Spin Energy          =      -0.3609150086390706 [Eh]
	 Opposite-Spin Energy      =      -1.2613416917468734 [Eh]
	 Correlation Energy        =      -1.6222567003859441 [Eh]
	 Total Energy              =    -349.8086384106182436 [Eh]

	 ================> DF-SCS-MP2 Energies <==================
	-----------------------------------------------------------
	 SCS Same-Spin Scale       =       0.3333333333333333 [-]
	 SCS Opposite-Spin Scale   =       1.2000000000000000 [-]
	 SCS Same-Spin Energy      =      -0.1203050028796902 [Eh]
	 SCS Opposite-Spin Energy  =      -1.5136100300962481 [Eh]
	 SCS Correlation Energy    =      -1.6339150329759382 [Eh]
	 SCS Total Energy          =    -349.8202967432082460 [Eh]
	-----------------------------------------------------------

  Dipole Moment: [D]
     X:    -0.0015      Y:     1.7120      Z:     0.0122     Total:     1.7120

*** Psi4 exiting successfully. Buy a developer a beer!
