                               Psi4 1.4a3.dev225

  ==> Input File <==

--------------------------------------------------------------------------
#psi4
#
memory 32 gb

molecule  {
0 1
  O       -0.0000020    -0.6102900    -0.0000420
  C        0.9363500     0.4141040    -0.4566330
  C       -0.9363370     0.4140910     0.4566200
  C        0.0000010     1.5430250    -0.0000030
  C        2.2717190     0.2897090     0.2433650
  C       -2.2717330     0.2897190    -0.2433270
  C        2.9423460    -1.0479970    -0.0522250
  C       -2.9423440    -1.0480000     0.0522380
  H        1.0693000     0.3446630    -1.5460730
  H       -1.0692400     0.3446160     1.5460640
  H        0.4022720     2.1756970     0.7958000
  H       -0.4022820     2.1756850    -0.7958090
  H        2.1021510     0.3966190     1.3216110
  H        2.9117530     1.1256360    -0.0698640
  H       -2.1022070     0.3966710    -1.3215760
  H       -2.9117580     1.1256310     0.0699580
  H        2.2845910    -1.8662570     0.2495040
  H        3.1497060    -1.1530710    -1.1218230
  H        3.9061930    -1.1478585     0.4964636
  H       -3.1496440    -1.1531250     1.1218420
  H       -3.8889120    -1.1460430    -0.4865470
  H       -2.2846070    -1.8662470    -0.2495670
units angstrom
no_reorient  #important for SAPT in psi4, default
symmetry c1  #important for SAPT in psi4, default
}

set PROPERTIES_ORIGIN ["COM"]
properties('MP2/aug-cc-pvtz', properties = ['dipole'])
--------------------------------------------------------------------------

    Molecular point group: c1
  Charge       = 0
  Multiplicity = 1
  Basis Set: AUG-CC-PVTZ
    Blend: AUG-CC-PVTZ
  Basis Set: (AUG-CC-PVTZ AUX)
    Blend: AUG-CC-PVTZ-JKFIT

    Orbital Energies [Eh]
    ---------------------

    Doubly Occupied:

       1A    -20.538213     2A    -11.277168     3A    -11.277103
       4A    -11.224207     5A    -11.219040     6A    -11.218911
       7A    -11.209853     8A    -11.207423     9A     -1.365138
      10A     -1.059723    11A     -1.047380    12A     -0.994047
      13A     -0.912539    14A     -0.846481    15A     -0.805019
      16A     -0.736118    17A     -0.671840    18A     -0.664939
      19A     -0.607560    20A     -0.601588    21A     -0.583337
      22A     -0.558187    23A     -0.551277    24A     -0.522065
      25A     -0.521092    26A     -0.498340    27A     -0.491339
      28A     -0.480517    29A     -0.480403    30A     -0.446374
      31A     -0.432410    32A     -0.401696

  @DF-RHF Final Energy:  -348.18585391659701

   => Energetics <=

    Nuclear Repulsion Energy =            399.4262931955730096
    One-Electron Energy =               -1264.3216395800209284
    Two-Electron Energy =                 516.7094924678509642
    Total Energy =                       -348.1858539165970114
  Basis Set: (AUG-CC-PVTZ AUX)
    Blend: AUG-CC-PVTZ-RI
    Molecular point group: c1

    Geometry (in Angstrom), charge = 0, multiplicity = 1:

       Center              X                  Y                   Z               Mass
    ------------   -----------------  -----------------  -----------------  -----------------
         O           -0.000154873145    -0.612436772020    -0.000127973284    15.994914619570
         C            0.936197126855     0.411957227980    -0.456718973284    12.000000000000
         C           -0.936489873145     0.411944227980     0.456534026716    12.000000000000
         C           -0.000151873145     1.540878227980    -0.000088973284    12.000000000000
         C            2.271566126855     0.287562227980     0.243279026716    12.000000000000
         C           -2.271885873145     0.287572227980    -0.243412973284    12.000000000000
         C            2.942193126855    -1.050143772020    -0.052310973284    12.000000000000
         C           -2.942496873145    -1.050146772020     0.052152026716    12.000000000000
         H            1.069147126855     0.342516227980    -1.546158973284     1.007825032230
         H           -1.069392873145     0.342469227980     1.545978026716     1.007825032230
         H            0.402119126855     2.173550227980     0.795714026716     1.007825032230
         H           -0.402434873145     2.173538227980    -0.795894973284     1.007825032230
         H            2.101998126855     0.394472227980     1.321525026716     1.007825032230
         H            2.911600126855     1.123489227980    -0.069949973284     1.007825032230
         H           -2.102359873145     0.394524227980    -1.321661973284     1.007825032230
         H           -2.911910873145     1.123484227980     0.069872026716     1.007825032230
         H            2.284438126855    -1.868403772020     0.249418026716     1.007825032230
         H            3.149553126855    -1.155217772020    -1.121908973284     1.007825032230
         H            3.906040126855    -1.150005272020     0.496377626716     1.007825032230
         H           -3.149796873145    -1.155271772020     1.121756026716     1.007825032230
         H           -3.889064873145    -1.148189772020    -0.486632973284     1.007825032230
         H           -2.284759873145    -1.868393772020    -0.249652973284     1.007825032230

  Basis Set: AUG-CC-PVTZ
    Blend: AUG-CC-PVTZ
  Basis Set: (AUG-CC-PVTZ AUX)
    Blend: AUG-CC-PVTZ-JKFIT
	 Reference Energy          =    -348.1858539165970114 [Eh]
	 Singles Energy            =      -0.0000000000000000 [Eh]
	 Same-Spin Energy          =      -0.3609082546634499 [Eh]
	 Opposite-Spin Energy      =      -1.2615872952542713 [Eh]
	 Correlation Energy        =      -1.6224955499177212 [Eh]
	 Total Energy              =    -349.8083494665147555 [Eh]

	 ================> DF-SCS-MP2 Energies <==================
	-----------------------------------------------------------
	 SCS Same-Spin Scale       =       0.3333333333333333 [-]
	 SCS Opposite-Spin Scale   =       1.2000000000000000 [-]
	 SCS Same-Spin Energy      =      -0.1203027515544833 [Eh]
	 SCS Opposite-Spin Energy  =      -1.5139047543051254 [Eh]
	 SCS Correlation Energy    =      -1.6342075058596086 [Eh]
	 SCS Total Energy          =    -349.8200614224566039 [Eh]
	-----------------------------------------------------------

  Dipole Moment: [D]
     X:    -0.0158      Y:     1.7127      Z:    -0.0050     Total:     1.7128

*** Psi4 exiting successfully. Buy a developer a beer!
