                               Psi4 1.4a3.dev225

  ==> Input File <==

--------------------------------------------------------------------------
#psi4
#
memory 32 gb

molecule  {
0 1
  O       -0.0000020    -0.6102900    -0.0000420
  C        0.9363500     0.4141040    -0.4566330
  C       -0.9363370     0.4140910     0.4566200
  C        0.0000010     1.5430250    -0.0000030
  C        2.2717190     0.2897090     0.2433650
  C       -2.2717330     0.2897190    -0.2433270
  C        2.9423460    -1.0479970    -0.0522250
  C       -2.9423440    -1.0480000     0.0522380
  H        1.0693000     0.3446630    -1.5460730
  H       -1.0813252     0.3382985     1.6451298
  H        0.4022720     2.1756970     0.7958000
  H       -0.4022820     2.1756850    -0.7958090
  H        2.1021510     0.3966190     1.3216110
  H        2.9117530     1.1256360    -0.0698640
  H       -2.1022070     0.3966710    -1.3215760
  H       -2.9117580     1.1256310     0.0699580
  H        2.2845910    -1.8662570     0.2495040
  H        3.1497060    -1.1530710    -1.1218230
  H        3.8888820    -1.1460650     0.4866090
  H       -3.1496440    -1.1531250     1.1218420
  H       -3.8889120    -1.1460430    -0.4865470
  H       -2.2846070    -1.8662470    -0.2495670
units angstrom
no_reorient  #important for SAPT in psi4, default
symmetry c1  #important for SAPT in psi4, default
}

set PROPERTIES_ORIGIN ["COM"]
properties('MP2/aug-cc-pvtz', properties = ['dipole'])
--------------------------------------------------------------------------

    Molecular point group: c1
  Charge       = 0
  Multiplicity = 1
  Basis Set: AUG-CC-PVTZ
    Blend: AUG-CC-PVTZ
  Basis Set: (AUG-CC-PVTZ AUX)
    Blend: AUG-CC-PVTZ-JKFIT

    Orbital Energies [Eh]
    ---------------------

    Doubly Occupied:

       1A    -20.540340     2A    -11.289098     3A    -11.277967
       4A    -11.225452     5A    -11.220161     6A    -11.219259
       7A    -11.207731     8A    -11.207381     9A     -1.366430
      10A     -1.059420    11A     -1.047562    12A     -0.994880
      13A     -0.911053    14A     -0.847414    15A     -0.801635
      16A     -0.730461    17A     -0.671228    18A     -0.661336
      19A     -0.608222    20A     -0.602105    21A     -0.584476
      22A     -0.554230    23A     -0.552141    24A     -0.522286
      25A     -0.521429    26A     -0.498390    27A     -0.492336
      28A     -0.480912    29A     -0.479218    30A     -0.447624
      31A     -0.431112    32A     -0.399801

  @DF-RHF Final Energy:  -348.17956524385409

   => Energetics <=

    Nuclear Repulsion Energy =            399.0072128219754291
    One-Electron Energy =               -1263.4673780655875817
    Two-Electron Energy =                 516.2805999997581239
    Total Energy =                       -348.1795652438540856
  Basis Set: (AUG-CC-PVTZ AUX)
    Blend: AUG-CC-PVTZ-RI
    Molecular point group: c1

    Geometry (in Angstrom), charge = 0, multiplicity = 1:

       Center              X                  Y                   Z               Mass
    ------------   -----------------  -----------------  -----------------  -----------------
         O            0.000104768107    -0.612396813895    -0.000915929132    15.994914619570
         C            0.936456768107     0.411997186105    -0.457506929132    12.000000000000
         C           -0.936230231893     0.411984186105     0.455746070868    12.000000000000
         C            0.000107768107     1.540918186105    -0.000876929132    12.000000000000
         C            2.271825768107     0.287602186105     0.242491070868    12.000000000000
         C           -2.271626231893     0.287612186105    -0.244200929132    12.000000000000
         C            2.942452768107    -1.050103813895    -0.053098929132    12.000000000000
         C           -2.942237231893    -1.050106813895     0.051364070868    12.000000000000
         H            1.069406768107     0.342556186105    -1.546946929132     1.007825032230
         H           -1.081218431893     0.336191686105     1.644255870868     1.007825032230
         H            0.402378768107     2.173590186105     0.794926070868     1.007825032230
         H           -0.402175231893     2.173578186105    -0.796682929132     1.007825032230
         H            2.102257768107     0.394512186105     1.320737070868     1.007825032230
         H            2.911859768107     1.123529186105    -0.070737929132     1.007825032230
         H           -2.102100231893     0.394564186105    -1.322449929132     1.007825032230
         H           -2.911651231893     1.123524186105     0.069084070868     1.007825032230
         H            2.284697768107    -1.868363813895     0.248630070868     1.007825032230
         H            3.149812768107    -1.155177813895    -1.122696929132     1.007825032230
         H            3.888988768107    -1.148171813895     0.485735070868     1.007825032230
         H           -3.149537231893    -1.155231813895     1.120968070868     1.007825032230
         H           -3.888805231893    -1.148149813895    -0.487420929132     1.007825032230
         H           -2.284500231893    -1.868353813895    -0.250440929132     1.007825032230

  Basis Set: AUG-CC-PVTZ
    Blend: AUG-CC-PVTZ
  Basis Set: (AUG-CC-PVTZ AUX)
    Blend: AUG-CC-PVTZ-JKFIT
	 Reference Energy          =    -348.1795652438540856 [Eh]
	 Singles Energy            =      -0.0000000000000000 [Eh]
	 Same-Spin Energy          =      -0.3611258543111979 [Eh]
	 Opposite-Spin Energy      =      -1.2624330689581447 [Eh]
	 Correlation Energy        =      -1.6235589232693426 [Eh]
	 Total Energy              =    -349.8031241671234284 [Eh]

	 ================> DF-SCS-MP2 Energies <==================
	-----------------------------------------------------------
	 SCS Same-Spin Scale       =       0.3333333333333333 [-]
	 SCS Opposite-Spin Scale   =       1.2000000000000000 [-]
	 SCS Same-Spin Energy      =      -0.1203752847703993 [Eh]
	 SCS Opposite-Spin Energy  =      -1.5149196827497735 [Eh]
	 SCS Correlation Energy    =      -1.6352949675201729 [Eh]
	 SCS Total Energy          =    -349.8148602113742527 [Eh]
	-----------------------------------------------------------

  Dipole Moment: [D]
     X:     0.0426      Y:     1.7039      Z:    -0.0979     Total:     1.7072

*** Psi4 exiting successfully. Buy a developer a beer!
