                               Psi4 1.4a3.dev225

  ==> Input File <==

--------------------------------------------------------------------------
#psi4
#
memory 32 gb

molecule  {
0 1
  O       -0.0000020    -0.6102900    -0.0000420
  C        0.9363500     0.4141040    -0.4566330
  C       -0.9363370     0.4140910     0.4566200
  C        0.0000010     1.5430250    -0.0000030
  C        2.2893728     0.2880645     0.2526191
  C       -2.2717330     0.2897190    -0.2433270
  C        2.9423460    -1.0479970    -0.0522250
  C       -2.9423440    -1.0480000     0.0522380
  H        1.0693000     0.3446630    -1.5460730
  H       -1.0692400     0.3446160     1.5460640
  H        0.4022720     2.1756970     0.7958000
  H       -0.4022820     2.1756850    -0.7958090
  H        2.1021510     0.3966190     1.3216110
  H        2.9117530     1.1256360    -0.0698640
  H       -2.1022070     0.3966710    -1.3215760
  H       -2.9117580     1.1256310     0.0699580
  H        2.2845910    -1.8662570     0.2495040
  H        3.1497060    -1.1530710    -1.1218230
  H        3.8888820    -1.1460650     0.4866090
  H       -3.1496440    -1.1531250     1.1218420
  H       -3.8889120    -1.1460430    -0.4865470
  H       -2.2846070    -1.8662470    -0.2495670
units angstrom
no_reorient  #important for SAPT in psi4, default
symmetry c1  #important for SAPT in psi4, default
}

set PROPERTIES_ORIGIN ["COM"]
properties('MP2/aug-cc-pvtz', properties = ['dipole'])
--------------------------------------------------------------------------

    Molecular point group: c1
  Charge       = 0
  Multiplicity = 1
  Basis Set: AUG-CC-PVTZ
    Blend: AUG-CC-PVTZ
  Basis Set: (AUG-CC-PVTZ AUX)
    Blend: AUG-CC-PVTZ-JKFIT

    Orbital Energies [Eh]
    ---------------------

    Doubly Occupied:

       1A    -20.538078     2A    -11.277630     3A    -11.276937
       4A    -11.223956     5A    -11.218795     6A    -11.218432
       7A    -11.207334     8A    -11.206958     9A     -1.364633
      10A     -1.058892    11A     -1.046866    12A     -0.994498
      13A     -0.912450    14A     -0.846425    15A     -0.805577
      16A     -0.735796    17A     -0.671240    18A     -0.664465
      19A     -0.607244    20A     -0.602001    21A     -0.583981
      22A     -0.558887    23A     -0.551791    24A     -0.522236
      25A     -0.521534    26A     -0.499323    27A     -0.490891
      28A     -0.481654    29A     -0.480412    30A     -0.446582
      31A     -0.432342    32A     -0.399869

  @DF-RHF Final Energy:  -348.18606037576461

   => Energetics <=

    Nuclear Repulsion Energy =            399.2451511415601431
    One-Electron Energy =               -1263.9670020884052519
    Two-Electron Energy =                 516.5357905710804971
    Total Energy =                       -348.1860603757645549
  Basis Set: (AUG-CC-PVTZ AUX)
    Blend: AUG-CC-PVTZ-RI
    Molecular point group: c1

    Geometry (in Angstrom), charge = 0, multiplicity = 1:

       Center              X                  Y                   Z               Mass
    ------------   -----------------  -----------------  -----------------  -----------------
         O           -0.001858567569    -0.612279666285    -0.001014156725    15.994914619570
         C            0.934493432431     0.412114333715    -0.457605156725    12.000000000000
         C           -0.938193567569     0.412101333715     0.455647843275    12.000000000000
         C           -0.001855567569     1.541035333715    -0.000975156725    12.000000000000
         C            2.287516232431     0.286074833715     0.251646943275    12.000000000000
         C           -2.273589567569     0.287729333715    -0.244299156725    12.000000000000
         C            2.940489432431    -1.049986666285    -0.053197156725    12.000000000000
         C           -2.944200567569    -1.049989666285     0.051265843275    12.000000000000
         H            1.067443432431     0.342673333715    -1.547045156725     1.007825032230
         H           -1.071096567569     0.342626333715     1.545091843275     1.007825032230
         H            0.400415432431     2.173707333715     0.794827843275     1.007825032230
         H           -0.404138567569     2.173695333715    -0.796781156725     1.007825032230
         H            2.100294432431     0.394629333715     1.320638843275     1.007825032230
         H            2.909896432431     1.123646333715    -0.070836156725     1.007825032230
         H           -2.104063567569     0.394681333715    -1.322548156725     1.007825032230
         H           -2.913614567569     1.123641333715     0.068985843275     1.007825032230
         H            2.282734432431    -1.868246666285     0.248531843275     1.007825032230
         H            3.147849432431    -1.155060666285    -1.122795156725     1.007825032230
         H            3.887025432431    -1.148054666285     0.485636843275     1.007825032230
         H           -3.151500567569    -1.155114666285     1.120869843275     1.007825032230
         H           -3.890768567569    -1.148032666285    -0.487519156725     1.007825032230
         H           -2.286463567569    -1.868236666285    -0.250539156725     1.007825032230

  Basis Set: AUG-CC-PVTZ
    Blend: AUG-CC-PVTZ
  Basis Set: (AUG-CC-PVTZ AUX)
    Blend: AUG-CC-PVTZ-JKFIT
	 Reference Energy          =    -348.1860603757646118 [Eh]
	 Singles Energy            =      -0.0000000000000000 [Eh]
	 Same-Spin Energy          =      -0.3608610600748807 [Eh]
	 Opposite-Spin Energy      =      -1.2614336597546107 [Eh]
	 Correlation Energy        =      -1.6222947198294915 [Eh]
	 Total Energy              =    -349.8083550955940950 [Eh]

	 ================> DF-SCS-MP2 Energies <==================
	-----------------------------------------------------------
	 SCS Same-Spin Scale       =       0.3333333333333333 [-]
	 SCS Opposite-Spin Scale   =       1.2000000000000000 [-]
	 SCS Same-Spin Energy      =      -0.1202870200249602 [Eh]
	 SCS Opposite-Spin Energy  =      -1.5137203917055329 [Eh]
	 SCS Correlation Energy    =      -1.6340074117304930 [Eh]
	 SCS Total Energy          =    -349.8200677874950770 [Eh]
	-----------------------------------------------------------

  Dipole Moment: [D]
     X:    -0.0063      Y:     1.7064      Z:    -0.0024     Total:     1.7064

*** Psi4 exiting successfully. Buy a developer a beer!
