                               Psi4 1.4a3.dev225

  ==> Input File <==

--------------------------------------------------------------------------
#psi4
#
memory 32 gb

molecule  {
0 1
  O       -0.0000020    -0.6102900    -0.0000420
  C        0.9363500     0.4141040    -0.4566330
  C       -0.9363370     0.4140910     0.4566200
  C        0.0000010     1.5430250    -0.0000030
  C        2.2717190     0.2897090     0.2433650
  C       -2.2717330     0.2897190    -0.2433270
  C        2.9423460    -1.0479970    -0.0522250
  C       -2.9423440    -1.0480000     0.0522380
  H        1.0693000     0.3446630    -1.5460730
  H       -1.0692400     0.3446160     1.5460640
  H        0.4022720     2.1756970     0.7958000
  H       -0.4022820     2.1756850    -0.7958090
  H        2.1021510     0.3966190     1.3216110
  H        2.9117530     1.1256360    -0.0698640
  H       -2.1022070     0.3966710    -1.3215760
  H       -2.9117580     1.1256310     0.0699580
  H        2.2845910    -1.8662570     0.2495040
  H        3.1497060    -1.1530710    -1.1218230
  H        3.8888820    -1.1460650     0.4866090
  H       -3.1496440    -1.1531250     1.1218420
  H       -3.8889120    -1.1460430    -0.4865470
  H       -2.4050329    -1.7164332    -0.1943092
units angstrom
no_reorient  #important for SAPT in psi4, default
symmetry c1  #important for SAPT in psi4, default
}

set PROPERTIES_ORIGIN ["COM"]
properties('MP2/aug-cc-pvtz', properties = ['dipole'])
--------------------------------------------------------------------------

    Molecular point group: c1
  Charge       = 0
  Multiplicity = 1
  Basis Set: AUG-CC-PVTZ
    Blend: AUG-CC-PVTZ
  Basis Set: (AUG-CC-PVTZ AUX)
    Blend: AUG-CC-PVTZ-JKFIT

    Orbital Energies [Eh]
    ---------------------

    Doubly Occupied:

       1A    -20.538197     2A    -11.277076     3A    -11.276674
       4A    -11.223885     5A    -11.218861     6A    -11.217296
       7A    -11.207393     8A    -11.183338     9A     -1.365095
      10A     -1.063679    11A     -1.049285    12A     -0.998569
      13A     -0.922679    14A     -0.855750    15A     -0.808038
      16A     -0.736334    17A     -0.674831    18A     -0.664766
      19A     -0.614219    20A     -0.607082    21A     -0.584799
      22A     -0.560590    23A     -0.558188    24A     -0.528605
      25A     -0.520777    26A     -0.500944    27A     -0.496995
      28A     -0.482776    29A     -0.480202    30A     -0.447241
      31A     -0.432042    32A     -0.401489

  @DF-RHF Final Energy:  -348.15192256684225

   => Energetics <=

    Nuclear Repulsion Energy =            400.3509212687745276
    One-Electron Energy =               -1266.0102973326545452
    Two-Electron Energy =                 517.5074534970377726
    Total Energy =                       -348.1519225668422450
  Basis Set: (AUG-CC-PVTZ AUX)
    Blend: AUG-CC-PVTZ-RI
    Molecular point group: c1

    Geometry (in Angstrom), charge = 0, multiplicity = 1:

       Center              X                  Y                   Z               Mass
    ------------   -----------------  -----------------  -----------------  -----------------
         O            0.001061684819    -0.613775839969    -0.000528995991    15.994914619570
         C            0.937413684819     0.410618160031    -0.457119995991    12.000000000000
         C           -0.935273315181     0.410605160031     0.456133004009    12.000000000000
         C            0.001064684819     1.539539160031    -0.000489995991    12.000000000000
         C            2.272782684819     0.286223160031     0.242878004009    12.000000000000
         C           -2.270669315181     0.286233160031    -0.243813995991    12.000000000000
         C            2.943409684819    -1.051482839969    -0.052711995991    12.000000000000
         C           -2.941280315181    -1.051485839969     0.051751004009    12.000000000000
         H            1.070363684819     0.341177160031    -1.546559995991     1.007825032230
         H           -1.068176315181     0.341130160031     1.545577004009     1.007825032230
         H            0.403335684819     2.172211160031     0.795313004009     1.007825032230
         H           -0.401218315181     2.172199160031    -0.796295995991     1.007825032230
         H            2.103214684819     0.393133160031     1.321124004009     1.007825032230
         H            2.912816684819     1.122150160031    -0.070350995991     1.007825032230
         H           -2.101143315181     0.393185160031    -1.322062995991     1.007825032230
         H           -2.910694315181     1.122145160031     0.069471004009     1.007825032230
         H            2.285654684819    -1.869742839969     0.249017004009     1.007825032230
         H            3.150769684819    -1.156556839969    -1.122309995991     1.007825032230
         H            3.889945684819    -1.149550839969     0.486122004009     1.007825032230
         H           -3.148580315181    -1.156610839969     1.121355004009     1.007825032230
         H           -3.887848315181    -1.149528839969    -0.487033995991     1.007825032230
         H           -2.403969215181    -1.719919039969    -0.194796195991     1.007825032230

  Basis Set: AUG-CC-PVTZ
    Blend: AUG-CC-PVTZ
  Basis Set: (AUG-CC-PVTZ AUX)
    Blend: AUG-CC-PVTZ-JKFIT
	 Reference Energy          =    -348.1519225668422450 [Eh]
	 Singles Energy            =      -0.0000000000000000 [Eh]
	 Same-Spin Energy          =      -0.3609690875810848 [Eh]
	 Opposite-Spin Energy      =      -1.2608406906728105 [Eh]
	 Correlation Energy        =      -1.6218097782538952 [Eh]
	 Total Energy              =    -349.7737323450961640 [Eh]

	 ================> DF-SCS-MP2 Energies <==================
	-----------------------------------------------------------
	 SCS Same-Spin Scale       =       0.3333333333333333 [-]
	 SCS Opposite-Spin Scale   =       1.2000000000000000 [-]
	 SCS Same-Spin Energy      =      -0.1203230291936949 [Eh]
	 SCS Opposite-Spin Energy  =      -1.5130088288073724 [Eh]
	 SCS Correlation Energy    =      -1.6333318580010674 [Eh]
	 SCS Total Energy          =    -349.7852544248432878 [Eh]
	-----------------------------------------------------------

  Dipole Moment: [D]
     X:     0.0012      Y:     1.6454      Z:    -0.0102     Total:     1.6454

*** Psi4 exiting successfully. Buy a developer a beer!
