                               Psi4 1.4a3.dev225

  ==> Input File <==

--------------------------------------------------------------------------
#psi4
#
memory 32 gb

molecule  {
0 1
  O       -0.0000020    -0.6102900    -0.0000420
  C        0.9363500     0.4141040    -0.4566330
  C       -0.9363370     0.4140910     0.4566200
  C       -0.0609537     1.6165158     0.0297228
  C        2.2717190     0.2897090     0.2433650
  C       -2.2717330     0.2897190    -0.2433270
  C        2.9423460    -1.0479970    -0.0522250
  C       -2.9423440    -1.0480000     0.0522380
  H        1.0693000     0.3446630    -1.5460730
  H       -1.0692400     0.3446160     1.5460640
  H        0.4022720     2.1756970     0.7958000
  H       -0.4022820     2.1756850    -0.7958090
  H        2.1021510     0.3966190     1.3216110
  H        2.9117530     1.1256360    -0.0698640
  H       -2.1022070     0.3966710    -1.3215760
  H       -2.9117580     1.1256310     0.0699580
  H        2.2845910    -1.8662570     0.2495040
  H        3.1497060    -1.1530710    -1.1218230
  H        3.8888820    -1.1460650     0.4866090
  H       -3.1496440    -1.1531250     1.1218420
  H       -3.8889120    -1.1460430    -0.4865470
  H       -2.2846070    -1.8662470    -0.2495670
units angstrom
no_reorient  #important for SAPT in psi4, default
symmetry c1  #important for SAPT in psi4, default
}

set PROPERTIES_ORIGIN ["COM"]
properties('MP2/aug-cc-pvtz', properties = ['dipole'])
--------------------------------------------------------------------------

    Molecular point group: c1
  Charge       = 0
  Multiplicity = 1
  Basis Set: AUG-CC-PVTZ
    Blend: AUG-CC-PVTZ
  Basis Set: (AUG-CC-PVTZ AUX)
    Blend: AUG-CC-PVTZ-JKFIT

    Orbital Energies [Eh]
    ---------------------

    Doubly Occupied:

       1A    -20.539837     2A    -11.282368     3A    -11.279845
       4A    -11.222765     5A    -11.219106     6A    -11.218494
       7A    -11.207709     8A    -11.206797     9A     -1.361065
      10A     -1.059242    11A     -1.045328    12A     -0.989633
      13A     -0.910443    14A     -0.848584    15A     -0.803597
      16A     -0.740881    17A     -0.671878    18A     -0.659769
      19A     -0.609481    20A     -0.601278    21A     -0.579575
      22A     -0.559801    23A     -0.557254    24A     -0.531782
      25A     -0.521645    26A     -0.499030    27A     -0.490913
      28A     -0.480617    29A     -0.479707    30A     -0.449685
      31A     -0.411645    32A     -0.403936

  @DF-RHF Final Energy:  -348.17796807301852

   => Energetics <=

    Nuclear Repulsion Energy =            398.0346164555766109
    One-Electron Energy =               -1261.5377866962501230
    Two-Electron Energy =                 515.3252021676549930
    Total Energy =                       -348.1779680730185191
  Basis Set: (AUG-CC-PVTZ AUX)
    Blend: AUG-CC-PVTZ-RI
    Molecular point group: c1

    Geometry (in Angstrom), charge = 0, multiplicity = 1:

       Center              X                  Y                   Z               Mass
    ------------   -----------------  -----------------  -----------------  -----------------
         O            0.006408435825    -0.620181404394    -0.003167099643    15.994914619570
         C            0.942760435825     0.404212595606    -0.459758099643    12.000000000000
         C           -0.929926564175     0.404199595606     0.453494900357    12.000000000000
         C           -0.054543264175     1.606624395606     0.026597700357    12.000000000000
         C            2.278129435825     0.279817595606     0.240239900357    12.000000000000
         C           -2.265322564175     0.279827595606    -0.246452099643    12.000000000000
         C            2.948756435825    -1.057888404394    -0.055350099643    12.000000000000
         C           -2.935933564175    -1.057891404394     0.049112900357    12.000000000000
         H            1.075710435825     0.334771595606    -1.549198099643     1.007825032230
         H           -1.062829564175     0.334724595606     1.542938900357     1.007825032230
         H            0.408682435825     2.165805595606     0.792674900357     1.007825032230
         H           -0.395871564175     2.165793595606    -0.798934099643     1.007825032230
         H            2.108561435825     0.386727595606     1.318485900357     1.007825032230
         H            2.918163435825     1.115744595606    -0.072989099643     1.007825032230
         H           -2.095796564175     0.386779595606    -1.324701099643     1.007825032230
         H           -2.905347564175     1.115739595606     0.066832900357     1.007825032230
         H            2.291001435825    -1.876148404394     0.246378900357     1.007825032230
         H            3.156116435825    -1.162962404394    -1.124948099643     1.007825032230
         H            3.895292435825    -1.155956404394     0.483483900357     1.007825032230
         H           -3.143233564175    -1.163016404394     1.118716900357     1.007825032230
         H           -3.882501564175    -1.155934404394    -0.489672099643     1.007825032230
         H           -2.278196564175    -1.876138404394    -0.252692099643     1.007825032230

  Basis Set: AUG-CC-PVTZ
    Blend: AUG-CC-PVTZ
  Basis Set: (AUG-CC-PVTZ AUX)
    Blend: AUG-CC-PVTZ-JKFIT
	 Reference Energy          =    -348.1779680730185191 [Eh]
	 Singles Energy            =      -0.0000000000000000 [Eh]
	 Same-Spin Energy          =      -0.3610115276614115 [Eh]
	 Opposite-Spin Energy      =      -1.2622389799499589 [Eh]
	 Correlation Energy        =      -1.6232505076113704 [Eh]
	 Total Energy              =    -349.8012185806298930 [Eh]

	 ================> DF-SCS-MP2 Energies <==================
	-----------------------------------------------------------
	 SCS Same-Spin Scale       =       0.3333333333333333 [-]
	 SCS Opposite-Spin Scale   =       1.2000000000000000 [-]
	 SCS Same-Spin Energy      =      -0.1203371758871372 [Eh]
	 SCS Opposite-Spin Energy  =      -1.5146867759399507 [Eh]
	 SCS Correlation Energy    =      -1.6350239518270879 [Eh]
	 SCS Total Energy          =    -349.8129920248455846 [Eh]
	-----------------------------------------------------------

  Dipole Moment: [D]
     X:     0.0650      Y:     1.6779      Z:    -0.0133     Total:     1.6792

*** Psi4 exiting successfully. Buy a developer a beer!
