                               Psi4 1.4a3.dev225

  ==> Input File <==

--------------------------------------------------------------------------
#psi4
#
memory 32 gb

molecule  {
0 1
  O       -0.0000020    -0.6102900    -0.0000420
  C        0.9363500     0.4141040    -0.4566330
  C       -0.8723567     0.4338776     0.3131270
  C        0.0000010     1.5430250    -0.0000030
  C        2.2717190     0.2897090     0.2433650
  C       -2.2717330     0.2897190    -0.2433270
  C        2.9423460    -1.0479970    -0.0522250
  C       -2.9423440    -1.0480000     0.0522380
  H        1.0693000     0.3446630    -1.5460730
  H       -1.0692400     0.3446160     1.5460640
  H        0.4022720     2.1756970     0.7958000
  H       -0.4022820     2.1756850    -0.7958090
  H        2.1021510     0.3966190     1.3216110
  H        2.9117530     1.1256360    -0.0698640
  H       -2.1022070     0.3966710    -1.3215760
  H       -2.9117580     1.1256310     0.0699580
  H        2.2845910    -1.8662570     0.2495040
  H        3.1497060    -1.1530710    -1.1218230
  H        3.8888820    -1.1460650     0.4866090
  H       -3.1496440    -1.1531250     1.1218420
  H       -3.8889120    -1.1460430    -0.4865470
  H       -2.2846070    -1.8662470    -0.2495670
units angstrom
no_reorient  #important for SAPT in psi4, default
symmetry c1  #important for SAPT in psi4, default
}

set PROPERTIES_ORIGIN ["COM"]
properties('MP2/aug-cc-pvtz', properties = ['dipole'])
--------------------------------------------------------------------------

    Molecular point group: c1
  Charge       = 0
  Multiplicity = 1
  Basis Set: AUG-CC-PVTZ
    Blend: AUG-CC-PVTZ
  Basis Set: (AUG-CC-PVTZ AUX)
    Blend: AUG-CC-PVTZ-JKFIT

    Orbital Energies [Eh]
    ---------------------

    Doubly Occupied:

       1A    -20.545902     2A    -11.285223     3A    -11.283968
       4A    -11.222423     5A    -11.221924     6A    -11.218984
       7A    -11.210309     8A    -11.208051     9A     -1.398050
      10A     -1.062195    11A     -1.056810    12A     -1.009240
      13A     -0.913823    14A     -0.851089    15A     -0.803260
      16A     -0.731469    17A     -0.682238    18A     -0.667020
      19A     -0.621884    20A     -0.606247    21A     -0.587084
      22A     -0.557703    23A     -0.549076    24A     -0.530375
      25A     -0.524042    26A     -0.500731    27A     -0.496724
      28A     -0.485125    29A     -0.472864    30A     -0.466712
      31A     -0.431505    32A     -0.377836

  @DF-RHF Final Energy:  -348.15932011506538

   => Energetics <=

    Nuclear Repulsion Energy =            401.5606121564260889
    One-Electron Energy =               -1268.2800944115858783
    Two-Electron Energy =                 518.5601621400944623
    Total Energy =                       -348.1593201150653840
  Basis Set: (AUG-CC-PVTZ AUX)
    Blend: AUG-CC-PVTZ-RI
    Molecular point group: c1

    Geometry (in Angstrom), charge = 0, multiplicity = 1:

       Center              X                  Y                   Z               Mass
    ------------   -----------------  -----------------  -----------------  -----------------
         O           -0.006730576737    -0.614533506219     0.015049765041    15.994914619570
         C            0.929621423263     0.409860493781    -0.441541234959    12.000000000000
         C           -0.879085276737     0.429634093781     0.328218765041    12.000000000000
         C           -0.006727576737     1.538781493781     0.015088765041    12.000000000000
         C            2.264990423263     0.285465493781     0.258456765041    12.000000000000
         C           -2.278461576737     0.285475493781    -0.228235234959    12.000000000000
         C            2.935617423263    -1.052240506219    -0.037133234959    12.000000000000
         C           -2.949072576737    -1.052243506219     0.067329765041    12.000000000000
         H            1.062571423263     0.340419493781    -1.530981234959     1.007825032230
         H           -1.075968576737     0.340372493781     1.561155765041     1.007825032230
         H            0.395543423263     2.171453493781     0.810891765041     1.007825032230
         H           -0.409010576737     2.171441493781    -0.780717234959     1.007825032230
         H            2.095422423263     0.392375493781     1.336702765041     1.007825032230
         H            2.905024423263     1.121392493781    -0.054772234959     1.007825032230
         H           -2.108935576737     0.392427493781    -1.306484234959     1.007825032230
         H           -2.918486576737     1.121387493781     0.085049765041     1.007825032230
         H            2.277862423263    -1.870500506219     0.264595765041     1.007825032230
         H            3.142977423263    -1.157314506219    -1.106731234959     1.007825032230
         H            3.882153423263    -1.150308506219     0.501700765041     1.007825032230
         H           -3.156372576737    -1.157368506219     1.136933765041     1.007825032230
         H           -3.895640576737    -1.150286506219    -0.471455234959     1.007825032230
         H           -2.291335576737    -1.870490506219    -0.234475234959     1.007825032230

  Basis Set: AUG-CC-PVTZ
    Blend: AUG-CC-PVTZ
  Basis Set: (AUG-CC-PVTZ AUX)
    Blend: AUG-CC-PVTZ-JKFIT
	 Reference Energy          =    -348.1593201150653840 [Eh]
	 Singles Energy            =      -0.0000000000000000 [Eh]
	 Same-Spin Energy          =      -0.3623000754901017 [Eh]
	 Opposite-Spin Energy      =      -1.2624260385217723 [Eh]
	 Correlation Energy        =      -1.6247261140118741 [Eh]
	 Total Energy              =    -349.7840462290772621 [Eh]

	 ================> DF-SCS-MP2 Energies <==================
	-----------------------------------------------------------
	 SCS Same-Spin Scale       =       0.3333333333333333 [-]
	 SCS Opposite-Spin Scale   =       1.2000000000000000 [-]
	 SCS Same-Spin Energy      =      -0.1207666918300339 [Eh]
	 SCS Opposite-Spin Energy  =      -1.5149112462261267 [Eh]
	 SCS Correlation Energy    =      -1.6356779380561606 [Eh]
	 SCS Total Energy          =    -349.7949980531215601 [Eh]
	-----------------------------------------------------------

  Dipole Moment: [D]
     X:     0.3659      Y:     1.6584      Z:    -0.3383     Total:     1.7317

*** Psi4 exiting successfully. Buy a developer a beer!
