                               Psi4 1.4a3.dev225

  ==> Input File <==

--------------------------------------------------------------------------
#psi4
#
memory 32 gb

molecule  {
0 1
  O       -0.0000020    -0.6102900    -0.0000420
  C        0.9363500     0.4141040    -0.4566330
  C       -0.9363370     0.4140910     0.4566200
  C       -0.0178047     1.5118382    -0.1010312
  C        2.2717190     0.2897090     0.2433650
  C       -2.2717330     0.2897190    -0.2433270
  C        2.9423460    -1.0479970    -0.0522250
  C       -2.9423440    -1.0480000     0.0522380
  H        1.0693000     0.3446630    -1.5460730
  H       -1.0692400     0.3446160     1.5460640
  H        0.4022720     2.1756970     0.7958000
  H       -0.4022820     2.1756850    -0.7958090
  H        2.1021510     0.3966190     1.3216110
  H        2.9117530     1.1256360    -0.0698640
  H       -2.1022070     0.3966710    -1.3215760
  H       -2.9117580     1.1256310     0.0699580
  H        2.2845910    -1.8662570     0.2495040
  H        3.1497060    -1.1530710    -1.1218230
  H        3.8888820    -1.1460650     0.4866090
  H       -3.1496440    -1.1531250     1.1218420
  H       -3.8889120    -1.1460430    -0.4865470
  H       -2.2846070    -1.8662470    -0.2495670
units angstrom
no_reorient  #important for SAPT in psi4, default
symmetry c1  #important for SAPT in psi4, default
}

set PROPERTIES_ORIGIN ["COM"]
properties('MP2/aug-cc-pvtz', properties = ['dipole'])
--------------------------------------------------------------------------

    Molecular point group: c1
  Charge       = 0
  Multiplicity = 1
  Basis Set: AUG-CC-PVTZ
    Blend: AUG-CC-PVTZ
  Basis Set: (AUG-CC-PVTZ AUX)
    Blend: AUG-CC-PVTZ-JKFIT

    Orbital Energies [Eh]
    ---------------------

    Doubly Occupied:

       1A    -20.538031     2A    -11.277116     3A    -11.275597
       4A    -11.226402     5A    -11.220135     6A    -11.218212
       7A    -11.208101     8A    -11.207084     9A     -1.367499
      10A     -1.060592    11A     -1.048742    12A     -0.996951
      13A     -0.914683    14A     -0.847631    15A     -0.805793
      16A     -0.737727    17A     -0.674939    18A     -0.667080
      19A     -0.607314    20A     -0.601637    21A     -0.586795
      22A     -0.559743    23A     -0.549134    24A     -0.524345
      25A     -0.513481    26A     -0.498278    27A     -0.492083
      28A     -0.480870    29A     -0.480709    30A     -0.447333
      31A     -0.433845    32A     -0.399151

  @DF-RHF Final Energy:  -348.17421199933113

   => Energetics <=

    Nuclear Repulsion Energy =            400.0963816067281300
    One-Electron Energy =               -1265.6071197230764938
    Two-Electron Energy =                 517.3365261170172289
    Total Energy =                       -348.1742119993311917
  Basis Set: (AUG-CC-PVTZ AUX)
    Blend: AUG-CC-PVTZ-RI
    Molecular point group: c1

    Geometry (in Angstrom), charge = 0, multiplicity = 1:

       Center              X                  Y                   Z               Mass
    ------------   -----------------  -----------------  -----------------  -----------------
         O            0.001870594123    -0.609172797507     0.010583878455    15.994914619570
         C            0.938222594123     0.415221202493    -0.446007121545    12.000000000000
         C           -0.934464405877     0.415208202493     0.467245878455    12.000000000000
         C           -0.015932105877     1.512955402493    -0.090405321545    12.000000000000
         C            2.273591594123     0.290826202493     0.253990878455    12.000000000000
         C           -2.269860405877     0.290836202493    -0.232701121545    12.000000000000
         C            2.944218594123    -1.046879797507    -0.041599121545    12.000000000000
         C           -2.940471405877    -1.046882797507     0.062863878455    12.000000000000
         H            1.071172594123     0.345780202493    -1.535447121545     1.007825032230
         H           -1.067367405877     0.345733202493     1.556689878455     1.007825032230
         H            0.404144594123     2.176814202493     0.806425878455     1.007825032230
         H           -0.400409405877     2.176802202493    -0.785183121545     1.007825032230
         H            2.104023594123     0.397736202493     1.332236878455     1.007825032230
         H            2.913625594123     1.126753202493    -0.059238121545     1.007825032230
         H           -2.100334405877     0.397788202493    -1.310950121545     1.007825032230
         H           -2.909885405877     1.126748202493     0.080583878455     1.007825032230
         H            2.286463594123    -1.865139797507     0.260129878455     1.007825032230
         H            3.151578594123    -1.151953797507    -1.111197121545     1.007825032230
         H            3.890754594123    -1.144947797507     0.497234878455     1.007825032230
         H           -3.147771405877    -1.152007797507     1.132467878455     1.007825032230
         H           -3.887039405877    -1.144925797507    -0.475921121545     1.007825032230
         H           -2.282734405877    -1.865129797507    -0.238941121545     1.007825032230

  Basis Set: AUG-CC-PVTZ
    Blend: AUG-CC-PVTZ
  Basis Set: (AUG-CC-PVTZ AUX)
    Blend: AUG-CC-PVTZ-JKFIT
	 Reference Energy          =    -348.1742119993311348 [Eh]
	 Singles Energy            =      -0.0000000000000000 [Eh]
	 Same-Spin Energy          =      -0.3612855680592102 [Eh]
	 Opposite-Spin Energy      =      -1.2621439147451685 [Eh]
	 Correlation Energy        =      -1.6234294828043787 [Eh]
	 Total Energy              =    -349.7976414821355320 [Eh]

	 ================> DF-SCS-MP2 Energies <==================
	-----------------------------------------------------------
	 SCS Same-Spin Scale       =       0.3333333333333333 [-]
	 SCS Opposite-Spin Scale   =       1.2000000000000000 [-]
	 SCS Same-Spin Energy      =      -0.1204285226864034 [Eh]
	 SCS Opposite-Spin Energy  =      -1.5145726976942022 [Eh]
	 SCS Correlation Energy    =      -1.6350012203806057 [Eh]
	 SCS Total Energy          =    -349.8092132197117508 [Eh]
	-----------------------------------------------------------

  Dipole Moment: [D]
     X:    -0.0326      Y:     1.6787      Z:    -0.0528     Total:     1.6798

*** Psi4 exiting successfully. Buy a developer a beer!
