                               Psi4 1.4a3.dev225

  ==> Input File <==

--------------------------------------------------------------------------
#psi4
#
memory 32 gb

molecule  {
0 1
  O       -0.0000020    -0.6102900    -0.0000420
  C        0.9363500     0.4141040    -0.4566330
  C       -0.9363370     0.4140910     0.4566200
  C        0.0000010     1.5430250    -0.0000030
  C        2.2809482     0.3194113     0.0867668
  C       -2.2717330     0.2897190    -0.2433270
  C        2.9423460    -1.0479970    -0.0522250
  C       -2.9423440    -1.0480000     0.0522380
  H        1.0693000     0.3446630    -1.5460730
  H       -1.0692400     0.3446160     1.5460640
  H        0.4022720     2.1756970     0.7958000
  H       -0.4022820     2.1756850    -0.7958090
  H        2.1021510     0.3966190     1.3216110
  H        2.9117530     1.1256360    -0.0698640
  H       -2.1022070     0.3966710    -1.3215760
  H       -2.9117580     1.1256310     0.0699580
  H        2.2845910    -1.8662570     0.2495040
  H        3.1497060    -1.1530710    -1.1218230
  H        3.8888820    -1.1460650     0.4866090
  H       -3.1496440    -1.1531250     1.1218420
  H       -3.8889120    -1.1460430    -0.4865470
  H       -2.2846070    -1.8662470    -0.2495670
units angstrom
no_reorient  #important for SAPT in psi4, default
symmetry c1  #important for SAPT in psi4, default
}

set PROPERTIES_ORIGIN ["COM"]
properties('MP2/aug-cc-pvtz', properties = ['dipole'])
--------------------------------------------------------------------------

    Molecular point group: c1
  Charge       = 0
  Multiplicity = 1
  Basis Set: AUG-CC-PVTZ
    Blend: AUG-CC-PVTZ
  Basis Set: (AUG-CC-PVTZ AUX)
    Blend: AUG-CC-PVTZ-JKFIT

    Orbital Energies [Eh]
    ---------------------

    Doubly Occupied:

       1A    -20.541579     2A    -11.277849     3A    -11.276674
       4A    -11.225951     5A    -11.225460     6A    -11.219270
       7A    -11.210461     8A    -11.207750     9A     -1.367035
      10A     -1.067248    11A     -1.050739    12A     -0.995192
      13A     -0.918219    14A     -0.851857    15A     -0.802836
      16A     -0.736638    17A     -0.678389    18A     -0.666161
      19A     -0.611331    20A     -0.603848    21A     -0.583693
      22A     -0.557666    23A     -0.554105    24A     -0.527988
      25A     -0.522424    26A     -0.508194    27A     -0.493061
      28A     -0.483823    29A     -0.456495    30A     -0.448036
      31A     -0.424597    32A     -0.400464

  @DF-RHF Final Energy:  -348.16128421312402

   => Energetics <=

    Nuclear Repulsion Energy =            399.8983122193901067
    One-Electron Energy =               -1265.1291318140001749
    Two-Electron Energy =                 517.0695353814860482
    Total Energy =                       -348.1612842131239631
  Basis Set: (AUG-CC-PVTZ AUX)
    Blend: AUG-CC-PVTZ-RI
    Molecular point group: c1

    Geometry (in Angstrom), charge = 0, multiplicity = 1:

       Center              X                  Y                   Z               Mass
    ------------   -----------------  -----------------  -----------------  -----------------
         O           -0.000972579453    -0.615576308531     0.016427996821    15.994914619570
         C            0.935379420547     0.408817691469    -0.440163003179    12.000000000000
         C           -0.937307579453     0.408804691469     0.473089996821    12.000000000000
         C           -0.000969579453     1.537738691469     0.016466996821    12.000000000000
         C            2.279977620547     0.314124991469     0.103236796821    12.000000000000
         C           -2.272703579453     0.284432691469    -0.226857003179    12.000000000000
         C            2.941375420547    -1.053283308531    -0.035755003179    12.000000000000
         C           -2.943314579453    -1.053286308531     0.068707996821    12.000000000000
         H            1.068329420547     0.339376691469    -1.529603003179     1.007825032230
         H           -1.070210579453     0.339329691469     1.562533996821     1.007825032230
         H            0.401301420547     2.170410691469     0.812269996821     1.007825032230
         H           -0.403252579453     2.170398691469    -0.779339003179     1.007825032230
         H            2.101180420547     0.391332691469     1.338080996821     1.007825032230
         H            2.910782420547     1.120349691469    -0.053394003179     1.007825032230
         H           -2.103177579453     0.391384691469    -1.305106003179     1.007825032230
         H           -2.912728579453     1.120344691469     0.086427996821     1.007825032230
         H            2.283620420547    -1.871543308531     0.265973996821     1.007825032230
         H            3.148735420547    -1.158357308531    -1.105353003179     1.007825032230
         H            3.887911420547    -1.151351308531     0.503078996821     1.007825032230
         H           -3.150614579453    -1.158411308531     1.138311996821     1.007825032230
         H           -3.889882579453    -1.151329308531    -0.470077003179     1.007825032230
         H           -2.285577579453    -1.871533308531    -0.233097003179     1.007825032230

  Basis Set: AUG-CC-PVTZ
    Blend: AUG-CC-PVTZ
  Basis Set: (AUG-CC-PVTZ AUX)
    Blend: AUG-CC-PVTZ-JKFIT
	 Reference Energy          =    -348.1612842131240200 [Eh]
	 Singles Energy            =      -0.0000000000000000 [Eh]
	 Same-Spin Energy          =      -0.3618277125186212 [Eh]
	 Opposite-Spin Energy      =      -1.2631785229896364 [Eh]
	 Correlation Energy        =      -1.6250062355082575 [Eh]
	 Total Energy              =    -349.7862904486322577 [Eh]

	 ================> DF-SCS-MP2 Energies <==================
	-----------------------------------------------------------
	 SCS Same-Spin Scale       =       0.3333333333333333 [-]
	 SCS Opposite-Spin Scale   =       1.2000000000000000 [-]
	 SCS Same-Spin Energy      =      -0.1206092375062071 [Eh]
	 SCS Opposite-Spin Energy  =      -1.5158142275875637 [Eh]
	 SCS Correlation Energy    =      -1.6364234650937708 [Eh]
	 SCS Total Energy          =    -349.7977076782178187 [Eh]
	-----------------------------------------------------------

  Dipole Moment: [D]
     X:     0.0337      Y:     1.7076      Z:    -0.0871     Total:     1.7102

*** Psi4 exiting successfully. Buy a developer a beer!
