                               Psi4 1.4a3.dev225

  ==> Input File <==

--------------------------------------------------------------------------
#psi4
#
memory 32 gb

molecule  {
0 1
  O        0.0162098    -0.6283149    -0.0079480
  C        0.9363500     0.4141040    -0.4566330
  C       -0.9363370     0.4140910     0.4566200
  C        0.0000010     1.5430250    -0.0000030
  C        2.2717190     0.2897090     0.2433650
  C       -2.2717330     0.2897190    -0.2433270
  C        2.9423460    -1.0479970    -0.0522250
  C       -2.9423440    -1.0480000     0.0522380
  H        1.0693000     0.3446630    -1.5460730
  H       -1.0692400     0.3446160     1.5460640
  H        0.4022720     2.1756970     0.7958000
  H       -0.4022820     2.1756850    -0.7958090
  H        2.1021510     0.3966190     1.3216110
  H        2.9117530     1.1256360    -0.0698640
  H       -2.1022070     0.3966710    -1.3215760
  H       -2.9117580     1.1256310     0.0699580
  H        2.2845910    -1.8662570     0.2495040
  H        3.1497060    -1.1530710    -1.1218230
  H        3.8888820    -1.1460650     0.4866090
  H       -3.1496440    -1.1531250     1.1218420
  H       -3.8889120    -1.1460430    -0.4865470
  H       -2.2846070    -1.8662470    -0.2495670
units angstrom
no_reorient  #important for SAPT in psi4, default
symmetry c1  #important for SAPT in psi4, default
}

set PROPERTIES_ORIGIN ["COM"]
properties('MP2/aug-cc-pvtz', properties = ['dipole'])
--------------------------------------------------------------------------

    Molecular point group: c1
  Charge       = 0
  Multiplicity = 1
  Basis Set: AUG-CC-PVTZ
    Blend: AUG-CC-PVTZ
  Basis Set: (AUG-CC-PVTZ AUX)
    Blend: AUG-CC-PVTZ-JKFIT

    Orbital Energies [Eh]
    ---------------------

    Doubly Occupied:

       1A    -20.537980     2A    -11.280021     3A    -11.276298
       4A    -11.224970     5A    -11.220340     6A    -11.217964
       7A    -11.207930     8A    -11.206509     9A     -1.357472
      10A     -1.059605    11A     -1.048046    12A     -0.994988
      13A     -0.912110    14A     -0.847203    15A     -0.803793
      16A     -0.737137    17A     -0.669595    18A     -0.663475
      19A     -0.606308    20A     -0.601427    21A     -0.584192
      22A     -0.558708    23A     -0.549402    24A     -0.521352
      25A     -0.520859    26A     -0.497781    27A     -0.491988
      28A     -0.480775    29A     -0.479918    30A     -0.447363
      31A     -0.431666    32A     -0.402502

  @DF-RHF Final Energy:  -348.18468589004954

   => Energetics <=

    Nuclear Repulsion Energy =            399.0452651880485746
    One-Electron Energy =               -1263.5805445272631005
    Two-Electron Energy =                 516.3505934491649896
    Total Energy =                       -348.1846858900495363
  Basis Set: (AUG-CC-PVTZ AUX)
    Blend: AUG-CC-PVTZ-RI
    Molecular point group: c1

    Geometry (in Angstrom), charge = 0, multiplicity = 1:

       Center              X                  Y                   Z               Mass
    ------------   -----------------  -----------------  -----------------  -----------------
         O            0.013937291155    -0.627950821966    -0.006838686952    15.994914619570
         C            0.934077491155     0.414468078034    -0.455523686952    12.000000000000
         C           -0.938609508845     0.414455078034     0.457729313048    12.000000000000
         C           -0.002271508845     1.543389078034     0.001106313048    12.000000000000
         C            2.269446491155     0.290073078034     0.244474313048    12.000000000000
         C           -2.274005508845     0.290083078034    -0.242217686952    12.000000000000
         C            2.940073491155    -1.047632921966    -0.051115686952    12.000000000000
         C           -2.944616508845    -1.047635921966     0.053347313048    12.000000000000
         H            1.067027491155     0.345027078034    -1.544963686952     1.007825032230
         H           -1.071512508845     0.344980078034     1.547173313048     1.007825032230
         H            0.399999491155     2.176061078034     0.796909313048     1.007825032230
         H           -0.404554508845     2.176049078034    -0.794699686952     1.007825032230
         H            2.099878491155     0.396983078034     1.322720313048     1.007825032230
         H            2.909480491155     1.126000078034    -0.068754686952     1.007825032230
         H           -2.104479508845     0.397035078034    -1.320466686952     1.007825032230
         H           -2.914030508845     1.125995078034     0.071067313048     1.007825032230
         H            2.282318491155    -1.865892921966     0.250613313048     1.007825032230
         H            3.147433491155    -1.152706921966    -1.120713686952     1.007825032230
         H            3.886609491155    -1.145700921966     0.487718313048     1.007825032230
         H           -3.151916508845    -1.152760921966     1.122951313048     1.007825032230
         H           -3.891184508845    -1.145678921966    -0.485437686952     1.007825032230
         H           -2.286879508845    -1.865882921966    -0.248457686952     1.007825032230

  Basis Set: AUG-CC-PVTZ
    Blend: AUG-CC-PVTZ
  Basis Set: (AUG-CC-PVTZ AUX)
    Blend: AUG-CC-PVTZ-JKFIT
	 Reference Energy          =    -348.1846858900495363 [Eh]
	 Singles Energy            =      -0.0000000000000000 [Eh]
	 Same-Spin Energy          =      -0.3611762686388159 [Eh]
	 Opposite-Spin Energy      =      -1.2622769670686851 [Eh]
	 Correlation Energy        =      -1.6234532357075011 [Eh]
	 Total Energy              =    -349.8081391257570658 [Eh]

	 ================> DF-SCS-MP2 Energies <==================
	-----------------------------------------------------------
	 SCS Same-Spin Scale       =       0.3333333333333333 [-]
	 SCS Opposite-Spin Scale   =       1.2000000000000000 [-]
	 SCS Same-Spin Energy      =      -0.1203920895462720 [Eh]
	 SCS Opposite-Spin Energy  =      -1.5147323604824221 [Eh]
	 SCS Correlation Energy    =      -1.6351244500286941 [Eh]
	 SCS Total Energy          =    -349.8198103400782202 [Eh]
	-----------------------------------------------------------

  Dipole Moment: [D]
     X:    -0.0952      Y:     1.7578      Z:     0.0266     Total:     1.7605

*** Psi4 exiting successfully. Buy a developer a beer!
