                               Psi4 1.4a3.dev225

  ==> Input File <==

--------------------------------------------------------------------------
#psi4
#
memory 32 gb

molecule  {
0 1
  O       -0.0000020    -0.6102900    -0.0000420
  C        0.9363500     0.4141040    -0.4566330
  C       -0.9363370     0.4140910     0.4566200
  C        0.0000010     1.5430250    -0.0000030
  C        2.2717190     0.2897090     0.2433650
  C       -2.2717330     0.2897190    -0.2433270
  C        2.9423460    -1.0479970    -0.0522250
  C       -2.9423440    -1.0480000     0.0522380
  H        1.0693000     0.3446630    -1.5460730
  H       -1.0692400     0.3446160     1.5460640
  H        0.4022720     2.1756970     0.7958000
  H       -0.4022820     2.1756850    -0.7958090
  H        2.1021510     0.3966190     1.3216110
  H        2.9117530     1.1256360    -0.0698640
  H       -2.1022070     0.3966710    -1.3215760
  H       -2.9001045     1.1104107     0.0642537
  H        2.2845910    -1.8662570     0.2495040
  H        3.1497060    -1.1530710    -1.1218230
  H        3.8888820    -1.1460650     0.4866090
  H       -3.1496440    -1.1531250     1.1218420
  H       -3.8889120    -1.1460430    -0.4865470
  H       -2.2846070    -1.8662470    -0.2495670
units angstrom
no_reorient  #important for SAPT in psi4, default
symmetry c1  #important for SAPT in psi4, default
}

set PROPERTIES_ORIGIN ["COM"]
properties('MP2/aug-cc-pvtz', properties = ['dipole'])
--------------------------------------------------------------------------

    Molecular point group: c1
  Charge       = 0
  Multiplicity = 1
  Basis Set: AUG-CC-PVTZ
    Blend: AUG-CC-PVTZ
  Basis Set: (AUG-CC-PVTZ AUX)
    Blend: AUG-CC-PVTZ-JKFIT

    Orbital Energies [Eh]
    ---------------------

    Doubly Occupied:

       1A    -20.537886     2A    -11.276916     3A    -11.276804
       4A    -11.224031     5A    -11.218771     6A    -11.216287
       7A    -11.207305     8A    -11.207126     9A     -1.364831
      10A     -1.060130    11A     -1.047714    12A     -0.994221
      13A     -0.913081    14A     -0.847617    15A     -0.805759
      16A     -0.736161    17A     -0.672552    18A     -0.664814
      19A     -0.607380    20A     -0.602729    21A     -0.584025
      22A     -0.558752    23A     -0.551725    24A     -0.522098
      25A     -0.521162    26A     -0.498445    27A     -0.492469
      28A     -0.481301    29A     -0.480442    30A     -0.446233
      31A     -0.432324    32A     -0.401505

  @DF-RHF Final Energy:  -348.18638722412550

   => Energetics <=

    Nuclear Repulsion Energy =            399.6136523417747526
    One-Electron Energy =               -1264.6948860416966909
    Two-Electron Energy =                 516.8948464757964985
    Total Energy =                       -348.1863872241254967
  Basis Set: (AUG-CC-PVTZ AUX)
    Blend: AUG-CC-PVTZ-RI
    Molecular point group: c1

    Geometry (in Angstrom), charge = 0, multiplicity = 1:

       Center              X                  Y                   Z               Mass
    ------------   -----------------  -----------------  -----------------  -----------------
         O           -0.000104903408    -0.612318180121     0.000009450338    15.994914619570
         C            0.936247096592     0.412075819879    -0.456581549662    12.000000000000
         C           -0.936439903408     0.412062819879     0.456671450338    12.000000000000
         C           -0.000101903408     1.540996819879     0.000048450338    12.000000000000
         C            2.271616096592     0.287680819879     0.243416450338    12.000000000000
         C           -2.271835903408     0.287690819879    -0.243275549662    12.000000000000
         C            2.942243096592    -1.050025180121    -0.052173549662    12.000000000000
         C           -2.942446903408    -1.050028180121     0.052289450338    12.000000000000
         H            1.069197096592     0.342634819879    -1.546021549662     1.007825032230
         H           -1.069342903408     0.342587819879     1.546115450338     1.007825032230
         H            0.402169096592     2.173668819879     0.795851450338     1.007825032230
         H           -0.402384903408     2.173656819879    -0.795757549662     1.007825032230
         H            2.102048096592     0.394590819879     1.321662450338     1.007825032230
         H            2.911650096592     1.123607819879    -0.069812549662     1.007825032230
         H           -2.102309903408     0.394642819879    -1.321524549662     1.007825032230
         H           -2.900207403408     1.108382519879     0.064305150338     1.007825032230
         H            2.284488096592    -1.868285180121     0.249555450338     1.007825032230
         H            3.149603096592    -1.155099180121    -1.121771549662     1.007825032230
         H            3.888779096592    -1.148093180121     0.486660450338     1.007825032230
         H           -3.149746903408    -1.155153180121     1.121893450338     1.007825032230
         H           -3.889014903408    -1.148071180121    -0.486495549662     1.007825032230
         H           -2.284709903408    -1.868275180121    -0.249515549662     1.007825032230

  Basis Set: AUG-CC-PVTZ
    Blend: AUG-CC-PVTZ
  Basis Set: (AUG-CC-PVTZ AUX)
    Blend: AUG-CC-PVTZ-JKFIT
	 Reference Energy          =    -348.1863872241254967 [Eh]
	 Singles Energy            =      -0.0000000000000000 [Eh]
	 Same-Spin Energy          =      -0.3609238797304563 [Eh]
	 Opposite-Spin Energy      =      -1.2613506091651450 [Eh]
	 Correlation Energy        =      -1.6222744888956013 [Eh]
	 Total Energy              =    -349.8086617130210811 [Eh]

	 ================> DF-SCS-MP2 Energies <==================
	-----------------------------------------------------------
	 SCS Same-Spin Scale       =       0.3333333333333333 [-]
	 SCS Opposite-Spin Scale   =       1.2000000000000000 [-]
	 SCS Same-Spin Energy      =      -0.1203079599101521 [Eh]
	 SCS Opposite-Spin Energy  =      -1.5136207309981740 [Eh]
	 SCS Correlation Energy    =      -1.6339286909083259 [Eh]
	 SCS Total Energy          =    -349.8203159150338024 [Eh]
	-----------------------------------------------------------

  Dipole Moment: [D]
     X:    -0.0083      Y:     1.7193      Z:     0.0022     Total:     1.7193

*** Psi4 exiting successfully. Buy a developer a beer!
