                               Psi4 1.4a3.dev225

  ==> Input File <==

--------------------------------------------------------------------------
#psi4
#
memory 32 gb

molecule  {
0 1
  O       -0.0000020    -0.6102900    -0.0000420
  C        0.9363500     0.4141040    -0.4566330
  C       -0.9363370     0.4140910     0.4566200
  C        0.0000010     1.5430250    -0.0000030
  C        2.2717190     0.2897090     0.2433650
  C       -2.2717330     0.2897190    -0.2433270
  C        2.9423460    -1.0479970    -0.0522250
  C       -2.9423440    -1.0480000     0.0522380
  H        1.0693000     0.3446630    -1.5460730
  H       -1.0752826     0.3414572     1.5955969
  H        0.4022720     2.1756970     0.7958000
  H       -0.4022820     2.1756850    -0.7958090
  H        2.1021510     0.3966190     1.3216110
  H        2.9117530     1.1256360    -0.0698640
  H       -2.1022070     0.3966710    -1.3215760
  H       -2.9117580     1.1256310     0.0699580
  H        2.2845910    -1.8662570     0.2495040
  H        3.1497060    -1.1530710    -1.1218230
  H        3.8888820    -1.1460650     0.4866090
  H       -3.1496440    -1.1531250     1.1218420
  H       -3.8889120    -1.1460430    -0.4865470
  H       -2.2846070    -1.8662470    -0.2495670
units angstrom
no_reorient  #important for SAPT in psi4, default
symmetry c1  #important for SAPT in psi4, default
}

set PROPERTIES_ORIGIN ["COM"]
properties('MP2/aug-cc-pvtz', properties = ['dipole'])
--------------------------------------------------------------------------

    Molecular point group: c1
  Charge       = 0
  Multiplicity = 1
  Basis Set: AUG-CC-PVTZ
    Blend: AUG-CC-PVTZ
  Basis Set: (AUG-CC-PVTZ AUX)
    Blend: AUG-CC-PVTZ-JKFIT

    Orbital Energies [Eh]
    ---------------------

    Doubly Occupied:

       1A    -20.539143     2A    -11.283136     3A    -11.277445
       4A    -11.224714     5A    -11.219456     6A    -11.219030
       7A    -11.207532     8A    -11.207359     9A     -1.365648
      10A     -1.059507    11A     -1.047431    12A     -0.994501
      13A     -0.911953    14A     -0.847235    15A     -0.803115
      16A     -0.732957    17A     -0.671233    18A     -0.663349
      19A     -0.607795    20A     -0.601858    21A     -0.584258
      22A     -0.556441    23A     -0.551979    24A     -0.522164
      25A     -0.521353    26A     -0.498408    27A     -0.492095
      28A     -0.480645    29A     -0.479901    30A     -0.446887
      31A     -0.431755    32A     -0.400832

  @DF-RHF Final Energy:  -348.18404994932342

   => Energetics <=

    Nuclear Repulsion Energy =            399.2548995045146398
    One-Electron Energy =               -1263.9756674358754935
    Two-Electron Energy =                 516.5367179820374304
    Total Energy =                       -348.1840499493233665
  Basis Set: (AUG-CC-PVTZ AUX)
    Blend: AUG-CC-PVTZ-RI
    Molecular point group: c1

    Geometry (in Angstrom), charge = 0, multiplicity = 1:

       Center              X                  Y                   Z               Mass
    ------------   -----------------  -----------------  -----------------  -----------------
         O            0.000051396984    -0.612424713039    -0.000478430945    15.994914619570
         C            0.936403396984     0.411969286961    -0.457069430945    12.000000000000
         C           -0.936283603016     0.411956286961     0.456183569055    12.000000000000
         C            0.000054396984     1.540890286961    -0.000439430945    12.000000000000
         C            2.271772396984     0.287574286961     0.242928569055    12.000000000000
         C           -2.271679603016     0.287584286961    -0.243763430945    12.000000000000
         C            2.942399396984    -1.050131713039    -0.052661430945    12.000000000000
         C           -2.942290603016    -1.050134713039     0.051801569055    12.000000000000
         H            1.069353396984     0.342528286961    -1.546509430945     1.007825032230
         H           -1.075229203016     0.339322486961     1.595160469055     1.007825032230
         H            0.402325396984     2.173562286961     0.795363569055     1.007825032230
         H           -0.402228603016     2.173550286961    -0.796245430945     1.007825032230
         H            2.102204396984     0.394484286961     1.321174569055     1.007825032230
         H            2.911806396984     1.123501286961    -0.070300430945     1.007825032230
         H           -2.102153603016     0.394536286961    -1.322012430945     1.007825032230
         H           -2.911704603016     1.123496286961     0.069521569055     1.007825032230
         H            2.284644396984    -1.868391713039     0.249067569055     1.007825032230
         H            3.149759396984    -1.155205713039    -1.122259430945     1.007825032230
         H            3.888935396984    -1.148199713039     0.486172569055     1.007825032230
         H           -3.149590603016    -1.155259713039     1.121405569055     1.007825032230
         H           -3.888858603016    -1.148177713039    -0.486983430945     1.007825032230
         H           -2.284553603016    -1.868381713039    -0.250003430945     1.007825032230

  Basis Set: AUG-CC-PVTZ
    Blend: AUG-CC-PVTZ
  Basis Set: (AUG-CC-PVTZ AUX)
    Blend: AUG-CC-PVTZ-JKFIT
	 Reference Energy          =    -348.1840499493234233 [Eh]
	 Singles Energy            =      -0.0000000000000000 [Eh]
	 Same-Spin Energy          =      -0.3610194775659074 [Eh]
	 Opposite-Spin Energy      =      -1.2619241459492130 [Eh]
	 Correlation Energy        =      -1.6229436235151202 [Eh]
	 Total Energy              =    -349.8069935728385644 [Eh]

	 ================> DF-SCS-MP2 Energies <==================
	-----------------------------------------------------------
	 SCS Same-Spin Scale       =       0.3333333333333333 [-]
	 SCS Opposite-Spin Scale   =       1.2000000000000000 [-]
	 SCS Same-Spin Energy      =      -0.1203398258553025 [Eh]
	 SCS Opposite-Spin Energy  =      -1.5143089751390555 [Eh]
	 SCS Correlation Energy    =      -1.6346488009943578 [Eh]
	 SCS Total Energy          =    -349.8186987503177647 [Eh]
	-----------------------------------------------------------

  Dipole Moment: [D]
     X:     0.0203      Y:     1.7056      Z:    -0.0454     Total:     1.7064

*** Psi4 exiting successfully. Buy a developer a beer!
