                               Psi4 1.4a3.dev225

  ==> Input File <==

--------------------------------------------------------------------------
#psi4
#
memory 32 gb

molecule  {
0 1
  O       -0.0000020    -0.6102900    -0.0000420
  C        0.9363500     0.4141040    -0.4566330
  C       -0.9363370     0.4140910     0.4566200
  C        0.0304784     1.5062796    -0.0148659
  C        2.2717190     0.2897090     0.2433650
  C       -2.2717330     0.2897190    -0.2433270
  C        2.9423460    -1.0479970    -0.0522250
  C       -2.9423440    -1.0480000     0.0522380
  H        1.0693000     0.3446630    -1.5460730
  H       -1.0692400     0.3446160     1.5460640
  H        0.4022720     2.1756970     0.7958000
  H       -0.4022820     2.1756850    -0.7958090
  H        2.1021510     0.3966190     1.3216110
  H        2.9117530     1.1256360    -0.0698640
  H       -2.1022070     0.3966710    -1.3215760
  H       -2.9117580     1.1256310     0.0699580
  H        2.2845910    -1.8662570     0.2495040
  H        3.1497060    -1.1530710    -1.1218230
  H        3.8888820    -1.1460650     0.4866090
  H       -3.1496440    -1.1531250     1.1218420
  H       -3.8889120    -1.1460430    -0.4865470
  H       -2.2846070    -1.8662470    -0.2495670
units angstrom
no_reorient  #important for SAPT in psi4, default
symmetry c1  #important for SAPT in psi4, default
}

set PROPERTIES_ORIGIN ["COM"]
properties('MP2/aug-cc-pvtz', properties = ['dipole'])
--------------------------------------------------------------------------

    Molecular point group: c1
  Charge       = 0
  Multiplicity = 1
  Basis Set: AUG-CC-PVTZ
    Blend: AUG-CC-PVTZ
  Basis Set: (AUG-CC-PVTZ AUX)
    Blend: AUG-CC-PVTZ-JKFIT

    Orbital Energies [Eh]
    ---------------------

    Doubly Occupied:

       1A    -20.537503     2A    -11.276055     3A    -11.274105
       4A    -11.225454     5A    -11.219057     6A    -11.218877
       7A    -11.207699     8A    -11.207277     9A     -1.367746
      10A     -1.060773    11A     -1.048617    12A     -0.996966
      13A     -0.914787    14A     -0.846663    15A     -0.806157
      16A     -0.733126    17A     -0.672159    18A     -0.667263
      19A     -0.608019    20A     -0.601955    21A     -0.587287
      22A     -0.559367    23A     -0.549497    24A     -0.521063
      25A     -0.515505    26A     -0.497985    27A     -0.492326
      28A     -0.481068    29A     -0.480424    30A     -0.448895
      31A     -0.435794    32A     -0.400319

  @DF-RHF Final Energy:  -348.18362168622514

   => Energetics <=

    Nuclear Repulsion Energy =            400.2734404554331604
    One-Electron Energy =               -1265.9945516813631912
    Two-Electron Energy =                 517.5374895397048931
    Total Energy =                       -348.1836216862251376
  Basis Set: (AUG-CC-PVTZ AUX)
    Blend: AUG-CC-PVTZ-RI
    Molecular point group: c1

    Geometry (in Angstrom), charge = 0, multiplicity = 1:

       Center              X                  Y                   Z               Mass
    ------------   -----------------  -----------------  -----------------  -----------------
         O           -0.003207184381    -0.608588217403     0.001522150683    15.994914619570
         C            0.933144815619     0.415805782597    -0.455068849317    12.000000000000
         C           -0.939542184381     0.415792782597     0.458184150683    12.000000000000
         C            0.027273215619     1.507981382597    -0.013301749317    12.000000000000
         C            2.268513815619     0.291410782597     0.244929150683    12.000000000000
         C           -2.274938184381     0.291420782597    -0.241762849317    12.000000000000
         C            2.939140815619    -1.046295217403    -0.050660849317    12.000000000000
         C           -2.945549184381    -1.046298217403     0.053802150683    12.000000000000
         H            1.066094815619     0.346364782597    -1.544508849317     1.007825032230
         H           -1.072445184381     0.346317782597     1.547628150683     1.007825032230
         H            0.399066815619     2.177398782597     0.797364150683     1.007825032230
         H           -0.405487184381     2.177386782597    -0.794244849317     1.007825032230
         H            2.098945815619     0.398320782597     1.323175150683     1.007825032230
         H            2.908547815619     1.127337782597    -0.068299849317     1.007825032230
         H           -2.105412184381     0.398372782597    -1.320011849317     1.007825032230
         H           -2.914963184381     1.127332782597     0.071522150683     1.007825032230
         H            2.281385815619    -1.864555217403     0.251068150683     1.007825032230
         H            3.146500815619    -1.151369217403    -1.120258849317     1.007825032230
         H            3.885676815619    -1.144363217403     0.488173150683     1.007825032230
         H           -3.152849184381    -1.151423217403     1.123406150683     1.007825032230
         H           -3.892117184381    -1.144341217403    -0.484982849317     1.007825032230
         H           -2.287812184381    -1.864545217403    -0.248002849317     1.007825032230

  Basis Set: AUG-CC-PVTZ
    Blend: AUG-CC-PVTZ
  Basis Set: (AUG-CC-PVTZ AUX)
    Blend: AUG-CC-PVTZ-JKFIT
	 Reference Energy          =    -348.1836216862251376 [Eh]
	 Singles Energy            =      -0.0000000000000000 [Eh]
	 Same-Spin Energy          =      -0.3611804975952921 [Eh]
	 Opposite-Spin Energy      =      -1.2616715248044519 [Eh]
	 Correlation Energy        =      -1.6228520223997440 [Eh]
	 Total Energy              =    -349.8064737086248783 [Eh]

	 ================> DF-SCS-MP2 Energies <==================
	-----------------------------------------------------------
	 SCS Same-Spin Scale       =       0.3333333333333333 [-]
	 SCS Opposite-Spin Scale   =       1.2000000000000000 [-]
	 SCS Same-Spin Energy      =      -0.1203934991984307 [Eh]
	 SCS Opposite-Spin Energy  =      -1.5140058297653423 [Eh]
	 SCS Correlation Energy    =      -1.6343993289637730 [Eh]
	 SCS Total Energy          =    -349.8180210151888900 [Eh]
	-----------------------------------------------------------

  Dipole Moment: [D]
     X:    -0.0267      Y:     1.7019      Z:     0.0050     Total:     1.7022

*** Psi4 exiting successfully. Buy a developer a beer!
