                               Psi4 1.4a3.dev225

  ==> Input File <==

--------------------------------------------------------------------------
#psi4
#
memory 32 gb

molecule  {
0 1
  O       -0.0000020    -0.6102900    -0.0000420
  C        0.9363500     0.4141040    -0.4566330
  C       -0.9363370     0.4140910     0.4566200
  C        0.0000010     1.5430250    -0.0000030
  C        2.2717190     0.2897090     0.2433650
  C       -2.2717330     0.2897190    -0.2433270
  C        2.9423460    -1.0479970    -0.0522250
  C       -2.9423440    -1.0480000     0.0522380
  H        1.0693000     0.3446630    -1.5460730
  H       -1.0692400     0.3446160     1.5460640
  H        0.4022720     2.1756970     0.7958000
  H       -0.4022820     2.1756850    -0.7958090
  H        2.1021510     0.3966190     1.3216110
  H        2.9117530     1.1256360    -0.0698640
  H       -2.1022070     0.3966710    -1.3215760
  H       -2.9117580     1.1256310     0.0699580
  H        2.2845910    -1.8662570     0.2495040
  H        3.1497060    -1.1530710    -1.1218230
  H        3.8888820    -1.1460650     0.4866090
  H       -3.1713516    -1.1217372     1.1200374
  H       -3.8889120    -1.1460430    -0.4865470
  H       -2.2846070    -1.8662470    -0.2495670
units angstrom
no_reorient  #important for SAPT in psi4, default
symmetry c1  #important for SAPT in psi4, default
}

set PROPERTIES_ORIGIN ["COM"]
properties('MP2/aug-cc-pvtz', properties = ['dipole'])
--------------------------------------------------------------------------

    Molecular point group: c1
  Charge       = 0
  Multiplicity = 1
  Basis Set: AUG-CC-PVTZ
    Blend: AUG-CC-PVTZ
  Basis Set: (AUG-CC-PVTZ AUX)
    Blend: AUG-CC-PVTZ-JKFIT

    Orbital Energies [Eh]
    ---------------------

    Doubly Occupied:

       1A    -20.538081     2A    -11.276979     3A    -11.276948
       4A    -11.224043     5A    -11.218816     6A    -11.218584
       7A    -11.207468     8A    -11.207346     9A     -1.364988
      10A     -1.059816    11A     -1.047442    12A     -0.994244
      13A     -0.913212    14A     -0.846954    15A     -0.804863
      16A     -0.735884    17A     -0.671772    18A     -0.664877
      19A     -0.607477    20A     -0.602353    21A     -0.584239
      22A     -0.558575    23A     -0.551923    24A     -0.522450
      25A     -0.520860    26A     -0.497322    27A     -0.492364
      28A     -0.481122    29A     -0.479980    30A     -0.446274
      31A     -0.432368    32A     -0.401602

  @DF-RHF Final Energy:  -348.18619765199929

   => Energetics <=

    Nuclear Repulsion Energy =            399.5151015033952149
    One-Electron Energy =               -1264.5001492787134794
    Two-Electron Energy =                 516.7988501233189709
    Total Energy =                       -348.1861976519992368
  Basis Set: (AUG-CC-PVTZ AUX)
    Blend: AUG-CC-PVTZ-RI
    Molecular point group: c1

    Geometry (in Angstrom), charge = 0, multiplicity = 1:

       Center              X                  Y                   Z               Mass
    ------------   -----------------  -----------------  -----------------  -----------------
         O            0.000189757731    -0.612729845080    -0.000024993671    15.994914619570
         C            0.936541757731     0.411664154920    -0.456615993671    12.000000000000
         C           -0.936145242269     0.411651154920     0.456637006329    12.000000000000
         C            0.000192757731     1.540585154920     0.000014006329    12.000000000000
         C            2.271910757731     0.287269154920     0.243382006329    12.000000000000
         C           -2.271541242269     0.287279154920    -0.243309993671    12.000000000000
         C            2.942537757731    -1.050436845080    -0.052207993671    12.000000000000
         C           -2.942152242269    -1.050439845080     0.052255006329    12.000000000000
         H            1.069491757731     0.342223154920    -1.546055993671     1.007825032230
         H           -1.069048242269     0.342176154920     1.546081006329     1.007825032230
         H            0.402463757731     2.173257154920     0.795817006329     1.007825032230
         H           -0.402090242269     2.173245154920    -0.795791993671     1.007825032230
         H            2.102342757731     0.394179154920     1.321628006329     1.007825032230
         H            2.911944757731     1.123196154920    -0.069846993671     1.007825032230
         H           -2.102015242269     0.394231154920    -1.321558993671     1.007825032230
         H           -2.911566242269     1.123191154920     0.069975006329     1.007825032230
         H            2.284782757731    -1.868696845080     0.249521006329     1.007825032230
         H            3.149897757731    -1.155510845080    -1.121805993671     1.007825032230
         H            3.889073757731    -1.148504845080     0.486626006329     1.007825032230
         H           -3.171159842269    -1.124177045080     1.120054406329     1.007825032230
         H           -3.888720242269    -1.148482845080    -0.486529993671     1.007825032230
         H           -2.284415242269    -1.868686845080    -0.249549993671     1.007825032230

  Basis Set: AUG-CC-PVTZ
    Blend: AUG-CC-PVTZ
  Basis Set: (AUG-CC-PVTZ AUX)
    Blend: AUG-CC-PVTZ-JKFIT
	 Reference Energy          =    -348.1861976519992936 [Eh]
	 Singles Energy            =      -0.0000000000000000 [Eh]
	 Same-Spin Energy          =      -0.3609319238373281 [Eh]
	 Opposite-Spin Energy      =      -1.2614996121229525 [Eh]
	 Correlation Energy        =      -1.6224315359602806 [Eh]
	 Total Energy              =    -349.8086291879595819 [Eh]

	 ================> DF-SCS-MP2 Energies <==================
	-----------------------------------------------------------
	 SCS Same-Spin Scale       =       0.3333333333333333 [-]
	 SCS Opposite-Spin Scale   =       1.2000000000000000 [-]
	 SCS Same-Spin Energy      =      -0.1203106412791094 [Eh]
	 SCS Opposite-Spin Energy  =      -1.5137995345475430 [Eh]
	 SCS Correlation Energy    =      -1.6341101758266523 [Eh]
	 SCS Total Energy          =    -349.8203078278259568 [Eh]
	-----------------------------------------------------------

  Dipole Moment: [D]
     X:    -0.0083      Y:     1.7134      Z:    -0.0018     Total:     1.7134

*** Psi4 exiting successfully. Buy a developer a beer!
