                               Psi4 1.4a3.dev225

  ==> Input File <==

--------------------------------------------------------------------------
#psi4
#
memory 32 gb

molecule  {
0 1
  O       -0.0000020    -0.6102900    -0.0000420
  C        0.9363500     0.4141040    -0.4566330
  C       -0.9363370     0.4140910     0.4566200
  C        0.0000010     1.5430250    -0.0000030
  C        2.2717190     0.2897090     0.2433650
  C       -2.2717330     0.2897190    -0.2433270
  C        2.9423460    -1.0479970    -0.0522250
  C       -2.9423440    -1.0480000     0.0522380
  H        1.0693000     0.3446630    -1.5460730
  H       -1.0450696     0.3572511     1.3479324
  H        0.4022720     2.1756970     0.7958000
  H       -0.4022820     2.1756850    -0.7958090
  H        2.1021510     0.3966190     1.3216110
  H        2.9117530     1.1256360    -0.0698640
  H       -2.1022070     0.3966710    -1.3215760
  H       -2.9117580     1.1256310     0.0699580
  H        2.2845910    -1.8662570     0.2495040
  H        3.1497060    -1.1530710    -1.1218230
  H        3.8888820    -1.1460650     0.4866090
  H       -3.1496440    -1.1531250     1.1218420
  H       -3.8889120    -1.1460430    -0.4865470
  H       -2.2846070    -1.8662470    -0.2495670
units angstrom
no_reorient  #important for SAPT in psi4, default
symmetry c1  #important for SAPT in psi4, default
}

set PROPERTIES_ORIGIN ["COM"]
properties('MP2/aug-cc-pvtz', properties = ['dipole'])
--------------------------------------------------------------------------

    Molecular point group: c1
  Charge       = 0
  Multiplicity = 1
  Basis Set: AUG-CC-PVTZ
    Blend: AUG-CC-PVTZ
  Basis Set: (AUG-CC-PVTZ AUX)
    Blend: AUG-CC-PVTZ-JKFIT

    Orbital Energies [Eh]
    ---------------------

    Doubly Occupied:

       1A    -20.535159     2A    -11.275813     3A    -11.251635
       4A    -11.222368     5A    -11.218290     6A    -11.217136
       7A    -11.207479     8A    -11.206880     9A     -1.363763
      10A     -1.063563    11A     -1.048128    12A     -0.993986
      13A     -0.923263    14A     -0.847991    15A     -0.818970
      16A     -0.751103    17A     -0.677112    18A     -0.666500
      19A     -0.606580    20A     -0.601111    21A     -0.584198
      22A     -0.567923    23A     -0.551107    24A     -0.522610
      25A     -0.520455    26A     -0.498929    27A     -0.491355
      28A     -0.482583    29A     -0.479760    30A     -0.444461
      31A     -0.435050    32A     -0.403639

  @DF-RHF Final Energy:  -348.15494147241117

   => Energetics <=

    Nuclear Repulsion Energy =            400.7136678708538398
    One-Electron Energy =               -1266.7794194974433140
    Two-Electron Energy =                 517.9108101541783071
    Total Energy =                       -348.1549414724111102
  Basis Set: (AUG-CC-PVTZ AUX)
    Blend: AUG-CC-PVTZ-RI
    Molecular point group: c1

    Geometry (in Angstrom), charge = 0, multiplicity = 1:

       Center              X                  Y                   Z               Mass
    ------------   -----------------  -----------------  -----------------  -----------------
         O           -0.000215458636    -0.612564212294     0.001709059987    15.994914619570
         C            0.936136541364     0.411829787706    -0.454881940013    12.000000000000
         C           -0.936550458636     0.411816787706     0.458371059987    12.000000000000
         C           -0.000212458636     1.540750787706     0.001748059987    12.000000000000
         C            2.271505541364     0.287434787706     0.245116059987    12.000000000000
         C           -2.271946458636     0.287444787706    -0.241575940013    12.000000000000
         C            2.942132541364    -1.050271212294    -0.050473940013    12.000000000000
         C           -2.942557458636    -1.050274212294     0.053989059987    12.000000000000
         H            1.069086541364     0.342388787706    -1.544321940013     1.007825032230
         H           -1.045283058636     0.354976887706     1.349683459987     1.007825032230
         H            0.402058541364     2.173422787706     0.797551059987     1.007825032230
         H           -0.402495458636     2.173410787706    -0.794057940013     1.007825032230
         H            2.101937541364     0.394344787706     1.323362059987     1.007825032230
         H            2.911539541364     1.123361787706    -0.068112940013     1.007825032230
         H           -2.102420458636     0.394396787706    -1.319824940013     1.007825032230
         H           -2.911971458636     1.123356787706     0.071709059987     1.007825032230
         H            2.284377541364    -1.868531212294     0.251255059987     1.007825032230
         H            3.149492541364    -1.155345212294    -1.120071940013     1.007825032230
         H            3.888668541364    -1.148339212294     0.488360059987     1.007825032230
         H           -3.149857458636    -1.155399212294     1.123593059987     1.007825032230
         H           -3.889125458636    -1.148317212294    -0.484795940013     1.007825032230
         H           -2.284820458636    -1.868521212294    -0.247815940013     1.007825032230

  Basis Set: AUG-CC-PVTZ
    Blend: AUG-CC-PVTZ
  Basis Set: (AUG-CC-PVTZ AUX)
    Blend: AUG-CC-PVTZ-JKFIT
	 Reference Energy          =    -348.1549414724111671 [Eh]
	 Singles Energy            =      -0.0000000000000000 [Eh]
	 Same-Spin Energy          =      -0.3607053412217238 [Eh]
	 Opposite-Spin Energy      =      -1.2605327696174506 [Eh]
	 Correlation Energy        =      -1.6212381108391745 [Eh]
	 Total Energy              =    -349.7761795832503253 [Eh]

	 ================> DF-SCS-MP2 Energies <==================
	-----------------------------------------------------------
	 SCS Same-Spin Scale       =       0.3333333333333333 [-]
	 SCS Opposite-Spin Scale   =       1.2000000000000000 [-]
	 SCS Same-Spin Energy      =      -0.1202351137405746 [Eh]
	 SCS Opposite-Spin Energy  =      -1.5126393235409408 [Eh]
	 SCS Correlation Energy    =      -1.6328744372815154 [Eh]
	 SCS Total Energy          =    -349.7878159096927106 [Eh]
	-----------------------------------------------------------

  Dipole Moment: [D]
     X:    -0.0596      Y:     1.7144      Z:     0.1127     Total:     1.7192

*** Psi4 exiting successfully. Buy a developer a beer!
