                               Psi4 1.4a3.dev225

  ==> Input File <==

--------------------------------------------------------------------------
#psi4
#
memory 32 gb

molecule  {
0 1
  O       -0.0000020    -0.6102900    -0.0000420
  C        0.9363500     0.4141040    -0.4566330
  C       -0.9363370     0.4140910     0.4566200
  C        0.0000010     1.5430250    -0.0000030
  C        2.2717190     0.2897090     0.2433650
  C       -2.2717330     0.2897190    -0.2433270
  C        2.9211869    -1.0605789    -0.0420916
  C       -2.9423440    -1.0480000     0.0522380
  H        1.0693000     0.3446630    -1.5460730
  H       -1.0692400     0.3446160     1.5460640
  H        0.4022720     2.1756970     0.7958000
  H       -0.4022820     2.1756850    -0.7958090
  H        2.1021510     0.3966190     1.3216110
  H        2.9117530     1.1256360    -0.0698640
  H       -2.1022070     0.3966710    -1.3215760
  H       -2.9117580     1.1256310     0.0699580
  H        2.2845910    -1.8662570     0.2495040
  H        3.1497060    -1.1530710    -1.1218230
  H        3.8888820    -1.1460650     0.4866090
  H       -3.1496440    -1.1531250     1.1218420
  H       -3.8889120    -1.1460430    -0.4865470
  H       -2.2846070    -1.8662470    -0.2495670
units angstrom
no_reorient  #important for SAPT in psi4, default
symmetry c1  #important for SAPT in psi4, default
}

set PROPERTIES_ORIGIN ["COM"]
properties('MP2/aug-cc-pvtz', properties = ['dipole'])
--------------------------------------------------------------------------

    Molecular point group: c1
  Charge       = 0
  Multiplicity = 1
  Basis Set: AUG-CC-PVTZ
    Blend: AUG-CC-PVTZ
  Basis Set: (AUG-CC-PVTZ AUX)
    Blend: AUG-CC-PVTZ-JKFIT

    Orbital Energies [Eh]
    ---------------------

    Doubly Occupied:

       1A    -20.538157     2A    -11.277015     3A    -11.276782
       4A    -11.223920     5A    -11.218909     6A    -11.218840
       7A    -11.207576     8A    -11.207384     9A     -1.365071
      10A     -1.059930    11A     -1.047405    12A     -0.994239
      13A     -0.913022    14A     -0.847180    15A     -0.805223
      16A     -0.735937    17A     -0.672176    18A     -0.664802
      19A     -0.607017    20A     -0.603184    21A     -0.583120
      22A     -0.556893    23A     -0.552629    24A     -0.523772
      25A     -0.520825    26A     -0.497688    27A     -0.493388
      28A     -0.481776    29A     -0.478661    30A     -0.446701
      31A     -0.431740    32A     -0.401526

  @DF-RHF Final Energy:  -348.18555248158884

   => Energetics <=

    Nuclear Repulsion Energy =            399.6556166978843976
    One-Electron Energy =               -1264.7773684162764312
    Two-Electron Energy =                 516.9361992368031906
    Total Energy =                       -348.1855524815888430
  Basis Set: (AUG-CC-PVTZ AUX)
    Blend: AUG-CC-PVTZ-RI
    Molecular point group: c1

    Geometry (in Angstrom), charge = 0, multiplicity = 1:

       Center              X                  Y                   Z               Mass
    ------------   -----------------  -----------------  -----------------  -----------------
         O            0.002223260427    -0.611129415067    -0.001106629881    15.994914619570
         C            0.938575260427     0.413264584933    -0.457697629881    12.000000000000
         C           -0.934111739573     0.413251584933     0.455555370119    12.000000000000
         C            0.002226260427     1.542185584933    -0.001067629881    12.000000000000
         C            2.273944260427     0.288869584933     0.242300370119    12.000000000000
         C           -2.269507739573     0.288879584933    -0.244391629881    12.000000000000
         C            2.923412160427    -1.061418315067    -0.043156229881    12.000000000000
         C           -2.940118739573    -1.048839415067     0.051173370119    12.000000000000
         H            1.071525260427     0.343823584933    -1.547137629881     1.007825032230
         H           -1.067014739573     0.343776584933     1.544999370119     1.007825032230
         H            0.404497260427     2.174857584933     0.794735370119     1.007825032230
         H           -0.400056739573     2.174845584933    -0.796873629881     1.007825032230
         H            2.104376260427     0.395779584933     1.320546370119     1.007825032230
         H            2.913978260427     1.124796584933    -0.070928629881     1.007825032230
         H           -2.099981739573     0.395831584933    -1.322640629881     1.007825032230
         H           -2.909532739573     1.124791584933     0.068893370119     1.007825032230
         H            2.286816260427    -1.867096415067     0.248439370119     1.007825032230
         H            3.151931260427    -1.153910415067    -1.122887629881     1.007825032230
         H            3.891107260427    -1.146904415067     0.485544370119     1.007825032230
         H           -3.147418739573    -1.153964415067     1.120777370119     1.007825032230
         H           -3.886686739573    -1.146882415067    -0.487611629881     1.007825032230
         H           -2.282381739573    -1.867086415067    -0.250631629881     1.007825032230

  Basis Set: AUG-CC-PVTZ
    Blend: AUG-CC-PVTZ
  Basis Set: (AUG-CC-PVTZ AUX)
    Blend: AUG-CC-PVTZ-JKFIT
	 Reference Energy          =    -348.1855524815888430 [Eh]
	 Singles Energy            =      -0.0000000000000000 [Eh]
	 Same-Spin Energy          =      -0.3609309606689458 [Eh]
	 Opposite-Spin Energy      =      -1.2615131141828624 [Eh]
	 Correlation Energy        =      -1.6224440748518081 [Eh]
	 Total Energy              =    -349.8079965564406280 [Eh]

	 ================> DF-SCS-MP2 Energies <==================
	-----------------------------------------------------------
	 SCS Same-Spin Scale       =       0.3333333333333333 [-]
	 SCS Opposite-Spin Scale   =       1.2000000000000000 [-]
	 SCS Same-Spin Energy      =      -0.1203103202229819 [Eh]
	 SCS Opposite-Spin Energy  =      -1.5138157370194347 [Eh]
	 SCS Correlation Energy    =      -1.6341260572424166 [Eh]
	 SCS Total Energy          =    -349.8196785388312833 [Eh]
	-----------------------------------------------------------

  Dipole Moment: [D]
     X:    -0.0027      Y:     1.7072      Z:     0.0042     Total:     1.7072

*** Psi4 exiting successfully. Buy a developer a beer!
