                               Psi4 1.4a3.dev225

  ==> Input File <==

--------------------------------------------------------------------------
#psi4
#
memory 32 gb

molecule  {
0 1
  O       -0.0000020    -0.6102900    -0.0000420
  C        0.9363500     0.4141040    -0.4566330
  C       -0.9363370     0.4140910     0.4566200
  C        0.0000010     1.5430250    -0.0000030
  C        2.2717190     0.2897090     0.2433650
  C       -2.2717330     0.2897190    -0.2433270
  C        2.9423460    -1.0479970    -0.0522250
  C       -2.9423440    -1.0480000     0.0522380
  H        1.0693000     0.3446630    -1.5460730
  H       -1.0692400     0.3446160     1.5460640
  H        0.4022720     2.1756970     0.7958000
  H       -0.4022820     2.1756850    -0.7958090
  H        2.1021510     0.3966190     1.3216110
  H        2.9117530     1.1256360    -0.0698640
  H       -2.1022070     0.3966710    -1.3215760
  H       -2.9700257     1.2017323     0.0984794
  H        2.2845910    -1.8662570     0.2495040
  H        3.1497060    -1.1530710    -1.1218230
  H        3.8888820    -1.1460650     0.4866090
  H       -3.1496440    -1.1531250     1.1218420
  H       -3.8889120    -1.1460430    -0.4865470
  H       -2.2846070    -1.8662470    -0.2495670
units angstrom
no_reorient  #important for SAPT in psi4, default
symmetry c1  #important for SAPT in psi4, default
}

set PROPERTIES_ORIGIN ["COM"]
properties('MP2/aug-cc-pvtz', properties = ['dipole'])
--------------------------------------------------------------------------

    Molecular point group: c1
  Charge       = 0
  Multiplicity = 1
  Basis Set: AUG-CC-PVTZ
    Blend: AUG-CC-PVTZ
  Basis Set: (AUG-CC-PVTZ AUX)
    Blend: AUG-CC-PVTZ-JKFIT

    Orbital Energies [Eh]
    ---------------------

    Doubly Occupied:

       1A    -20.539203     2A    -11.278080     3A    -11.277449
       4A    -11.231142     5A    -11.224295     6A    -11.219178
       7A    -11.208676     8A    -11.207667     9A     -1.365962
      10A     -1.058803    11A     -1.046108    12A     -0.994325
      13A     -0.913882    14A     -0.845538    15A     -0.802380
      16A     -0.735469    17A     -0.668287    18A     -0.665553
      19A     -0.607964    20A     -0.596501    21A     -0.584536
      22A     -0.559485    23A     -0.551869    24A     -0.522741
      25A     -0.521420    26A     -0.499035    27A     -0.490259
      28A     -0.481284    29A     -0.473372    30A     -0.446022
      31A     -0.432942    32A     -0.402376

  @DF-RHF Final Energy:  -348.18001136033769

   => Energetics <=

    Nuclear Repulsion Energy =            399.0528169580148869
    One-Electron Energy =               -1263.5620465332146978
    Two-Electron Energy =                 516.3292182148620668
    Total Energy =                       -348.1800113603377440
  Basis Set: (AUG-CC-PVTZ AUX)
    Blend: AUG-CC-PVTZ-RI
    Molecular point group: c1

    Geometry (in Angstrom), charge = 0, multiplicity = 1:

       Center              X                  Y                   Z               Mass
    ------------   -----------------  -----------------  -----------------  -----------------
         O            0.000512673964    -0.613124776028    -0.000292847361    15.994914619570
         C            0.936864673964     0.411269223972    -0.456883847361    12.000000000000
         C           -0.935822326036     0.411256223972     0.456369152639    12.000000000000
         C            0.000515673964     1.540190223972    -0.000253847361    12.000000000000
         C            2.272233673964     0.286874223972     0.243114152639    12.000000000000
         C           -2.271218326036     0.286884223972    -0.243577847361    12.000000000000
         C            2.942860673964    -1.050831776028    -0.052475847361    12.000000000000
         C           -2.941829326036    -1.050834776028     0.051987152639    12.000000000000
         H            1.069814673964     0.341828223972    -1.546323847361     1.007825032230
         H           -1.068725326036     0.341781223972     1.545813152639     1.007825032230
         H            0.402786673964     2.172862223972     0.795549152639     1.007825032230
         H           -0.401767326036     2.172850223972    -0.796059847361     1.007825032230
         H            2.102665673964     0.393784223972     1.321360152639     1.007825032230
         H            2.912267673964     1.122801223972    -0.070114847361     1.007825032230
         H           -2.101692326036     0.393836223972    -1.321826847361     1.007825032230
         H           -2.969511026036     1.198897523972     0.098228552639     1.007825032230
         H            2.285105673964    -1.869091776028     0.249253152639     1.007825032230
         H            3.150220673964    -1.155905776028    -1.122073847361     1.007825032230
         H            3.889396673964    -1.148899776028     0.486358152639     1.007825032230
         H           -3.149129326036    -1.155959776028     1.121591152639     1.007825032230
         H           -3.888397326036    -1.148877776028    -0.486797847361     1.007825032230
         H           -2.284092326036    -1.869081776028    -0.249817847361     1.007825032230

  Basis Set: AUG-CC-PVTZ
    Blend: AUG-CC-PVTZ
  Basis Set: (AUG-CC-PVTZ AUX)
    Blend: AUG-CC-PVTZ-JKFIT
	 Reference Energy          =    -348.1800113603376872 [Eh]
	 Singles Energy            =      -0.0000000000000000 [Eh]
	 Same-Spin Energy          =      -0.3609195804986596 [Eh]
	 Opposite-Spin Energy      =      -1.2621856362063610 [Eh]
	 Correlation Energy        =      -1.6231052167050206 [Eh]
	 Total Energy              =    -349.8031165770427151 [Eh]

	 ================> DF-SCS-MP2 Energies <==================
	-----------------------------------------------------------
	 SCS Same-Spin Scale       =       0.3333333333333333 [-]
	 SCS Opposite-Spin Scale   =       1.2000000000000000 [-]
	 SCS Same-Spin Energy      =      -0.1203065268328865 [Eh]
	 SCS Opposite-Spin Energy  =      -1.5146227634476332 [Eh]
	 SCS Correlation Energy    =      -1.6349292902805197 [Eh]
	 SCS Total Energy          =    -349.8149406506182117 [Eh]
	-----------------------------------------------------------

  Dipole Moment: [D]
     X:     0.0498      Y:     1.6389      Z:    -0.0125     Total:     1.6397

*** Psi4 exiting successfully. Buy a developer a beer!
