                               Psi4 1.4a3.dev225

  ==> Input File <==

--------------------------------------------------------------------------
#psi4
#
memory 32 gb

molecule  {
0 1
  O       -0.0000020    -0.6102900    -0.0000420
  C        0.9363500     0.4141040    -0.4566330
  C       -0.9363370     0.4140910     0.4566200
  C        0.0000010     1.5430250    -0.0000030
  C        2.2717190     0.2897090     0.2433650
  C       -2.2717330     0.2897190    -0.2433270
  C        2.9423460    -1.0479970    -0.0522250
  C       -2.9423440    -1.0480000     0.0522380
  H        1.0693000     0.3446630    -1.5460730
  H       -1.0692400     0.3446160     1.5460640
  H        0.4022720     2.1756970     0.7958000
  H       -0.4022820     2.1756850    -0.7958090
  H        2.1021510     0.3966190     1.3216110
  H        2.9117530     1.1256360    -0.0698640
  H       -2.1022070     0.3966710    -1.3215760
  H       -2.9117580     1.1256310     0.0699580
  H        2.2845910    -1.8662570     0.2495040
  H        3.1534949    -1.1549909    -1.1413668
  H        3.8888820    -1.1460650     0.4866090
  H       -3.1496440    -1.1531250     1.1218420
  H       -3.8889120    -1.1460430    -0.4865470
  H       -2.2846070    -1.8662470    -0.2495670
units angstrom
no_reorient  #important for SAPT in psi4, default
symmetry c1  #important for SAPT in psi4, default
}

set PROPERTIES_ORIGIN ["COM"]
properties('MP2/aug-cc-pvtz', properties = ['dipole'])
--------------------------------------------------------------------------

    Molecular point group: c1
  Charge       = 0
  Multiplicity = 1
  Basis Set: AUG-CC-PVTZ
    Blend: AUG-CC-PVTZ
  Basis Set: (AUG-CC-PVTZ AUX)
    Blend: AUG-CC-PVTZ-JKFIT

    Orbital Energies [Eh]
    ---------------------

    Doubly Occupied:

       1A    -20.538131     2A    -11.277035     3A    -11.277034
       4A    -11.224107     5A    -11.219091     6A    -11.218856
       7A    -11.209881     8A    -11.207378     9A     -1.365048
      10A     -1.059650    11A     -1.047318    12A     -0.993997
      13A     -0.912635    14A     -0.846527    15A     -0.804815
      16A     -0.735933    17A     -0.671789    18A     -0.664936
      19A     -0.606967    20A     -0.601540    21A     -0.583881
      22A     -0.557964    23A     -0.551822    24A     -0.522224
      25A     -0.521240    26A     -0.497700    27A     -0.491930
      28A     -0.480515    29A     -0.479448    30A     -0.446297
      31A     -0.432504    32A     -0.401696

  @DF-RHF Final Energy:  -348.18586977578269

   => Energetics <=

    Nuclear Repulsion Energy =            399.4325737450650990
    One-Electron Energy =               -1264.3371047615260068
    Two-Electron Energy =                 516.7186612406781023
    Total Energy =                       -348.1858697757827485
  Basis Set: (AUG-CC-PVTZ AUX)
    Blend: AUG-CC-PVTZ-RI
    Molecular point group: c1

    Geometry (in Angstrom), charge = 0, multiplicity = 1:

       Center              X                  Y                   Z               Mass
    ------------   -----------------  -----------------  -----------------  -----------------
         O           -0.000035439511    -0.612435655595     0.000131687400    15.994914619570
         C            0.936316560489     0.411958344405    -0.456459312600    12.000000000000
         C           -0.936370439511     0.411945344405     0.456793687400    12.000000000000
         C           -0.000032439511     1.540879344405     0.000170687400    12.000000000000
         C            2.271685560489     0.287563344405     0.243538687400    12.000000000000
         C           -2.271766439511     0.287573344405    -0.243153312600    12.000000000000
         C            2.942312560489    -1.050142655595    -0.052051312600    12.000000000000
         C           -2.942377439511    -1.050145655595     0.052411687400    12.000000000000
         H            1.069266560489     0.342517344405    -1.545899312600     1.007825032230
         H           -1.069273439511     0.342470344405     1.546237687400     1.007825032230
         H            0.402238560489     2.173551344405     0.795973687400     1.007825032230
         H           -0.402315439511     2.173539344405    -0.795635312600     1.007825032230
         H            2.102117560489     0.394473344405     1.321784687400     1.007825032230
         H            2.911719560489     1.123490344405    -0.069690312600     1.007825032230
         H           -2.102240439511     0.394525344405    -1.321402312600     1.007825032230
         H           -2.911791439511     1.123485344405     0.070131687400     1.007825032230
         H            2.284557560489    -1.868402655595     0.249677687400     1.007825032230
         H            3.153461460489    -1.157136555595    -1.141193112600     1.007825032230
         H            3.888848560489    -1.148210655595     0.486782687400     1.007825032230
         H           -3.149677439511    -1.155270655595     1.122015687400     1.007825032230
         H           -3.888945439511    -1.148188655595    -0.486373312600     1.007825032230
         H           -2.284640439511    -1.868392655595    -0.249393312600     1.007825032230

  Basis Set: AUG-CC-PVTZ
    Blend: AUG-CC-PVTZ
  Basis Set: (AUG-CC-PVTZ AUX)
    Blend: AUG-CC-PVTZ-JKFIT
	 Reference Energy          =    -348.1858697757826917 [Eh]
	 Singles Energy            =      -0.0000000000000000 [Eh]
	 Same-Spin Energy          =      -0.3609096208954405 [Eh]
	 Opposite-Spin Energy      =      -1.2615840634231192 [Eh]
	 Correlation Energy        =      -1.6224936843185598 [Eh]
	 Total Energy              =    -349.8083634601012477 [Eh]

	 ================> DF-SCS-MP2 Energies <==================
	-----------------------------------------------------------
	 SCS Same-Spin Scale       =       0.3333333333333333 [-]
	 SCS Opposite-Spin Scale   =       1.2000000000000000 [-]
	 SCS Same-Spin Energy      =      -0.1203032069651468 [Eh]
	 SCS Opposite-Spin Energy  =      -1.5139008761077430 [Eh]
	 SCS Correlation Energy    =      -1.6342040830728899 [Eh]
	 SCS Total Energy          =    -349.8200738588556078 [Eh]
	-----------------------------------------------------------

  Dipole Moment: [D]
     X:    -0.0049      Y:     1.7116      Z:     0.0127     Total:     1.7116

*** Psi4 exiting successfully. Buy a developer a beer!
