                               Psi4 1.4a3.dev225

  ==> Input File <==

--------------------------------------------------------------------------
#psi4
#
memory 32 gb

molecule  {
0 1
  O       -0.0000020    -0.6102900    -0.0000420
  C        0.9363500     0.4141040    -0.4566330
  C       -0.9363370     0.4140910     0.4566200
  C        0.0000010     1.5430250    -0.0000030
  C        2.2717190     0.2897090     0.2433650
  C       -2.2717330     0.2897190    -0.2433270
  C        2.8125549    -1.1172463     0.0098169
  C       -2.9423440    -1.0480000     0.0522380
  H        1.0693000     0.3446630    -1.5460730
  H       -1.0692400     0.3446160     1.5460640
  H        0.4022720     2.1756970     0.7958000
  H       -0.4022820     2.1756850    -0.7958090
  H        2.1021510     0.3966190     1.3216110
  H        2.9117530     1.1256360    -0.0698640
  H       -2.1022070     0.3966710    -1.3215760
  H       -2.9117580     1.1256310     0.0699580
  H        2.2845910    -1.8662570     0.2495040
  H        3.1497060    -1.1530710    -1.1218230
  H        3.8888820    -1.1460650     0.4866090
  H       -3.1496440    -1.1531250     1.1218420
  H       -3.8889120    -1.1460430    -0.4865470
  H       -2.2846070    -1.8662470    -0.2495670
units angstrom
no_reorient  #important for SAPT in psi4, default
symmetry c1  #important for SAPT in psi4, default
}

set PROPERTIES_ORIGIN ["COM"]
properties('MP2/aug-cc-pvtz', properties = ['dipole'])
--------------------------------------------------------------------------

    Molecular point group: c1
  Charge       = 0
  Multiplicity = 1
  Basis Set: AUG-CC-PVTZ
    Blend: AUG-CC-PVTZ
  Basis Set: (AUG-CC-PVTZ AUX)
    Blend: AUG-CC-PVTZ-JKFIT

    Orbital Energies [Eh]
    ---------------------

    Doubly Occupied:

       1A    -20.538875     2A    -11.277352     3A    -11.276200
       4A    -11.223468     5A    -11.221169     6A    -11.219037
       7A    -11.212183     8A    -11.207609     9A     -1.365799
      10A     -1.061624    11A     -1.047987    12A     -0.995175
      13A     -0.913826    14A     -0.850212    15A     -0.807491
      16A     -0.736318    17A     -0.675506    18A     -0.664736
      19A     -0.613658    20A     -0.605114    21A     -0.583682
      22A     -0.562054    23A     -0.546420    24A     -0.537676
      25A     -0.518415    26A     -0.502541    27A     -0.489651
      28A     -0.482526    29A     -0.458836    30A     -0.448111
      31A     -0.427998    32A     -0.400837

  @DF-RHF Final Energy:  -348.15416913384570

   => Energetics <=

    Nuclear Repulsion Energy =            400.4283080129083032
    One-Electron Energy =               -1266.2207840052205938
    Two-Electron Energy =                 517.6383068584666489
    Total Energy =                       -348.1541691338456985
  Basis Set: (AUG-CC-PVTZ AUX)
    Blend: AUG-CC-PVTZ-RI
    Molecular point group: c1

    Geometry (in Angstrom), charge = 0, multiplicity = 1:

       Center              X                  Y                   Z               Mass
    ------------   -----------------  -----------------  -----------------  -----------------
         O            0.013647738858    -0.605169886668    -0.006565680055    15.994914619570
         C            0.949999738858     0.419224113332    -0.463156680055    12.000000000000
         C           -0.922687261142     0.419211113332     0.450096319945    12.000000000000
         C            0.013650738858     1.548145113332    -0.006526680055    12.000000000000
         C            2.285368738858     0.294829113332     0.236841319945    12.000000000000
         C           -2.258083261142     0.294839113332    -0.249850680055    12.000000000000
         C            2.826204638858    -1.112126186668     0.003293219945    12.000000000000
         C           -2.928694261142    -1.042879886668     0.045714319945    12.000000000000
         H            1.082949738858     0.349783113332    -1.552596680055     1.007825032230
         H           -1.055590261142     0.349736113332     1.539540319945     1.007825032230
         H            0.415921738858     2.180817113332     0.789276319945     1.007825032230
         H           -0.388632261142     2.180805113332    -0.802332680055     1.007825032230
         H            2.115800738858     0.401739113332     1.315087319945     1.007825032230
         H            2.925402738858     1.130756113332    -0.076387680055     1.007825032230
         H           -2.088557261142     0.401791113332    -1.328099680055     1.007825032230
         H           -2.898108261142     1.130751113332     0.063434319945     1.007825032230
         H            2.298240738858    -1.861136886668     0.242980319945     1.007825032230
         H            3.163355738858    -1.147950886668    -1.128346680055     1.007825032230
         H            3.902531738858    -1.140944886668     0.480085319945     1.007825032230
         H           -3.135994261142    -1.148004886668     1.115318319945     1.007825032230
         H           -3.875262261142    -1.140922886668    -0.493070680055     1.007825032230
         H           -2.270957261142    -1.861126886668    -0.256090680055     1.007825032230

  Basis Set: AUG-CC-PVTZ
    Blend: AUG-CC-PVTZ
  Basis Set: (AUG-CC-PVTZ AUX)
    Blend: AUG-CC-PVTZ-JKFIT
	 Reference Energy          =    -348.1541691338456985 [Eh]
	 Singles Energy            =      -0.0000000000000000 [Eh]
	 Same-Spin Energy          =      -0.3613419710107223 [Eh]
	 Opposite-Spin Energy      =      -1.2628762326437688 [Eh]
	 Correlation Energy        =      -1.6242182036544910 [Eh]
	 Total Energy              =    -349.7783873375001917 [Eh]

	 ================> DF-SCS-MP2 Energies <==================
	-----------------------------------------------------------
	 SCS Same-Spin Scale       =       0.3333333333333333 [-]
	 SCS Opposite-Spin Scale   =       1.2000000000000000 [-]
	 SCS Same-Spin Energy      =      -0.1204473236702408 [Eh]
	 SCS Opposite-Spin Energy  =      -1.5154514791725224 [Eh]
	 SCS Correlation Energy    =      -1.6358988028427632 [Eh]
	 SCS Total Energy          =    -349.7900679366884447 [Eh]
	-----------------------------------------------------------

  Dipole Moment: [D]
     X:    -0.0289      Y:     1.7461      Z:     0.0260     Total:     1.7465

*** Psi4 exiting successfully. Buy a developer a beer!
