                               Psi4 1.4a3.dev225

  ==> Input File <==

--------------------------------------------------------------------------
#psi4
#
memory 32 gb

molecule  {
0 1
  O       -0.0000020    -0.6102900    -0.0000420
  C        0.9363500     0.4141040    -0.4566330
  C       -0.9363370     0.4140910     0.4566200
  C        0.0000010     1.5430250    -0.0000030
  C        2.2717190     0.2897090     0.2433650
  C       -2.2717330     0.2897190    -0.2433270
  C        2.9423460    -1.0479970    -0.0522250
  C       -2.9423440    -1.0480000     0.0522380
  H        1.0693000     0.3446630    -1.5460730
  H       -1.0692400     0.3446160     1.5460640
  H        0.4022720     2.1756970     0.7958000
  H       -0.4022820     2.1756850    -0.7958090
  H        2.1021510     0.3966190     1.3216110
  H        2.9117530     1.1256360    -0.0698640
  H       -2.1022070     0.3966710    -1.3215760
  H       -2.9117580     1.1256310     0.0699580
  H        2.3146983    -1.8288029     0.2356930
  H        3.1497060    -1.1530710    -1.1218230
  H        3.8888820    -1.1460650     0.4866090
  H       -3.1496440    -1.1531250     1.1218420
  H       -3.8889120    -1.1460430    -0.4865470
  H       -2.2846070    -1.8662470    -0.2495670
units angstrom
no_reorient  #important for SAPT in psi4, default
symmetry c1  #important for SAPT in psi4, default
}

set PROPERTIES_ORIGIN ["COM"]
properties('MP2/aug-cc-pvtz', properties = ['dipole'])
--------------------------------------------------------------------------

    Molecular point group: c1
  Charge       = 0
  Multiplicity = 1
  Basis Set: AUG-CC-PVTZ
    Blend: AUG-CC-PVTZ
  Basis Set: (AUG-CC-PVTZ AUX)
    Blend: AUG-CC-PVTZ-JKFIT

    Orbital Energies [Eh]
    ---------------------

    Doubly Occupied:

       1A    -20.538116     2A    -11.277017     3A    -11.276883
       4A    -11.224003     5A    -11.218840     6A    -11.218348
       7A    -11.207371     8A    -11.201388     9A     -1.365026
      10A     -1.060302    11A     -1.047749    12A     -0.994980
      13A     -0.914932    14A     -0.848959    15A     -0.805793
      16A     -0.736038    17A     -0.672315    18A     -0.664869
      19A     -0.607338    20A     -0.603999    21A     -0.584218
      22A     -0.558661    23A     -0.553730    24A     -0.523791
      25A     -0.521126    26A     -0.498481    27A     -0.494190
      28A     -0.481559    29A     -0.480444    30A     -0.446603
      31A     -0.432294    32A     -0.401593

  @DF-RHF Final Energy:  -348.18534272269517

   => Energetics <=

    Nuclear Repulsion Energy =            399.7006959053228456
    One-Electron Energy =               -1264.8501628519506994
    Two-Electron Energy =                 516.9641242239326857
    Total Energy =                       -348.1853427226951680
  Basis Set: (AUG-CC-PVTZ AUX)
    Blend: AUG-CC-PVTZ-RI
    Molecular point group: c1

    Geometry (in Angstrom), charge = 0, multiplicity = 1:

       Center              X                  Y                   Z               Mass
    ------------   -----------------  -----------------  -----------------  -----------------
         O           -0.000267896167    -0.612783425534     0.000081052577    15.994914619570
         C            0.936084103833     0.411610574466    -0.456509947423    12.000000000000
         C           -0.936602896167     0.411597574466     0.456743052577    12.000000000000
         C           -0.000264896167     1.540531574466     0.000120052577    12.000000000000
         C            2.271453103833     0.287215574466     0.243488052577    12.000000000000
         C           -2.271998896167     0.287225574466    -0.243203947423    12.000000000000
         C            2.942080103833    -1.050490425534    -0.052101947423    12.000000000000
         C           -2.942609896167    -1.050493425534     0.052361052577    12.000000000000
         H            1.069034103833     0.342169574466    -1.545949947423     1.007825032230
         H           -1.069505896167     0.342122574466     1.546187052577     1.007825032230
         H            0.402006103833     2.173203574466     0.795923052577     1.007825032230
         H           -0.402547896167     2.173191574466    -0.795685947423     1.007825032230
         H            2.101885103833     0.394125574466     1.321734052577     1.007825032230
         H            2.911487103833     1.123142574466    -0.069740947423     1.007825032230
         H           -2.102472896167     0.394177574466    -1.321452947423     1.007825032230
         H           -2.912023896167     1.123137574466     0.070081052577     1.007825032230
         H            2.314432403833    -1.831296325534     0.235816052577     1.007825032230
         H            3.149440103833    -1.155564425534    -1.121699947423     1.007825032230
         H            3.888616103833    -1.148558425534     0.486732052577     1.007825032230
         H           -3.149909896167    -1.155618425534     1.121965052577     1.007825032230
         H           -3.889177896167    -1.148536425534    -0.486423947423     1.007825032230
         H           -2.284872896167    -1.868740425534    -0.249443947423     1.007825032230

  Basis Set: AUG-CC-PVTZ
    Blend: AUG-CC-PVTZ
  Basis Set: (AUG-CC-PVTZ AUX)
    Blend: AUG-CC-PVTZ-JKFIT
	 Reference Energy          =    -348.1853427226951680 [Eh]
	 Singles Energy            =      -0.0000000000000000 [Eh]
	 Same-Spin Energy          =      -0.3609100785429870 [Eh]
	 Opposite-Spin Energy      =      -1.2611818428902368 [Eh]
	 Correlation Energy        =      -1.6220919214332239 [Eh]
	 Total Energy              =    -349.8074346441283637 [Eh]

	 ================> DF-SCS-MP2 Energies <==================
	-----------------------------------------------------------
	 SCS Same-Spin Scale       =       0.3333333333333333 [-]
	 SCS Opposite-Spin Scale   =       1.2000000000000000 [-]
	 SCS Same-Spin Energy      =      -0.1203033595143290 [Eh]
	 SCS Opposite-Spin Energy  =      -1.5134182114682841 [Eh]
	 SCS Correlation Energy    =      -1.6337215709826132 [Eh]
	 SCS Total Energy          =    -349.8190642936777977 [Eh]
	-----------------------------------------------------------

  Dipole Moment: [D]
     X:    -0.0020      Y:     1.6873      Z:     0.0039     Total:     1.6873

*** Psi4 exiting successfully. Buy a developer a beer!
