                               Psi4 1.4a3.dev225

  ==> Input File <==

--------------------------------------------------------------------------
#psi4
#
memory 32 gb

molecule  {
0 1
  O       -0.0000020    -0.6102900    -0.0000420
  C        0.9363500     0.4141040    -0.4566330
  C       -0.9363370     0.4140910     0.4566200
  C        0.0000010     1.5430250    -0.0000030
  C        2.2717190     0.2897090     0.2433650
  C       -2.2717330     0.2897190    -0.2433270
  C        2.9423460    -1.0479970    -0.0522250
  C       -2.9423440    -1.0480000     0.0522380
  H        1.0693000     0.3446630    -1.5460730
  H       -1.0692400     0.3446160     1.5460640
  H        0.4022720     2.1756970     0.7958000
  H       -0.4022820     2.1756850    -0.7958090
  H        2.1021510     0.3966190     1.3216110
  H        2.9117530     1.1256360    -0.0698640
  H       -2.1022070     0.3966710    -1.3215760
  H       -2.9117580     1.1256310     0.0699580
  H        2.2845910    -1.8662570     0.2495040
  H        3.1591782    -1.1578708    -1.1706824
  H        3.8888820    -1.1460650     0.4866090
  H       -3.1496440    -1.1531250     1.1218420
  H       -3.8889120    -1.1460430    -0.4865470
  H       -2.2846070    -1.8662470    -0.2495670
units angstrom
no_reorient  #important for SAPT in psi4, default
symmetry c1  #important for SAPT in psi4, default
}

set PROPERTIES_ORIGIN ["COM"]
properties('MP2/aug-cc-pvtz', properties = ['dipole'])
--------------------------------------------------------------------------

    Molecular point group: c1
  Charge       = 0
  Multiplicity = 1
  Basis Set: AUG-CC-PVTZ
    Blend: AUG-CC-PVTZ
  Basis Set: (AUG-CC-PVTZ AUX)
    Blend: AUG-CC-PVTZ-JKFIT

    Orbital Energies [Eh]
    ---------------------

    Doubly Occupied:

       1A    -20.538215     2A    -11.277106     3A    -11.277105
       4A    -11.224177     5A    -11.219508     6A    -11.218899
       7A    -11.213620     8A    -11.207412     9A     -1.365131
      10A     -1.059521    11A     -1.047225    12A     -0.993733
      13A     -0.911897    14A     -0.845699    15A     -0.804438
      16A     -0.735858    17A     -0.671909    18A     -0.664966
      19A     -0.606446    20A     -0.601381    21A     -0.583579
      22A     -0.556705    23A     -0.551936    24A     -0.522307
      25A     -0.521362    26A     -0.496754    27A     -0.491964
      28A     -0.480635    29A     -0.477500    30A     -0.446401
      31A     -0.432644    32A     -0.401793

  @DF-RHF Final Energy:  -348.18434992421146

   => Energetics <=

    Nuclear Repulsion Energy =            399.3125141229103292
    One-Electron Energy =               -1264.0980764383327823
    Two-Electron Energy =                 516.6012123912109928
    Total Energy =                       -348.1843499242114603
  Basis Set: (AUG-CC-PVTZ AUX)
    Blend: AUG-CC-PVTZ-RI
    Molecular point group: c1

    Geometry (in Angstrom), charge = 0, multiplicity = 1:

       Center              X                  Y                   Z               Mass
    ------------   -----------------  -----------------  -----------------  -----------------
         O           -0.000085637126    -0.612410218945     0.000390616755    15.994914619570
         C            0.936266362874     0.411983781055    -0.456200383245    12.000000000000
         C           -0.936420637126     0.411970781055     0.457052616755    12.000000000000
         C           -0.000082637126     1.540904781055     0.000429616755    12.000000000000
         C            2.271635362874     0.287588781055     0.243797616755    12.000000000000
         C           -2.271816637126     0.287598781055    -0.242894383245    12.000000000000
         C            2.942262362874    -1.050117218945    -0.051792383245    12.000000000000
         C           -2.942427637126    -1.050120218945     0.052670616755    12.000000000000
         H            1.069216362874     0.342542781055    -1.545640383245     1.007825032230
         H           -1.069323637126     0.342495781055     1.546496616755     1.007825032230
         H            0.402188362874     2.173576781055     0.796232616755     1.007825032230
         H           -0.402365637126     2.173564781055    -0.795376383245     1.007825032230
         H            2.102067362874     0.394498781055     1.322043616755     1.007825032230
         H            2.911669362874     1.123515781055    -0.069431383245     1.007825032230
         H           -2.102290637126     0.394550781055    -1.321143383245     1.007825032230
         H           -2.911841637126     1.123510781055     0.070390616755     1.007825032230
         H            2.284507362874    -1.868377218945     0.249936616755     1.007825032230
         H            3.159094562874    -1.159991018945    -1.170249783245     1.007825032230
         H            3.888798362874    -1.148185218945     0.487041616755     1.007825032230
         H           -3.149727637126    -1.155245218945     1.122274616755     1.007825032230
         H           -3.888995637126    -1.148163218945    -0.486114383245     1.007825032230
         H           -2.284690637126    -1.868367218945    -0.249134383245     1.007825032230

  Basis Set: AUG-CC-PVTZ
    Blend: AUG-CC-PVTZ
  Basis Set: (AUG-CC-PVTZ AUX)
    Blend: AUG-CC-PVTZ-JKFIT
	 Reference Energy          =    -348.1843499242114603 [Eh]
	 Singles Energy            =      -0.0000000000000000 [Eh]
	 Same-Spin Energy          =      -0.3608907460681918 [Eh]
	 Opposite-Spin Energy      =      -1.2617666143905055 [Eh]
	 Correlation Energy        =      -1.6226573604586974 [Eh]
	 Total Energy              =    -349.8070072846701350 [Eh]

	 ================> DF-SCS-MP2 Energies <==================
	-----------------------------------------------------------
	 SCS Same-Spin Scale       =       0.3333333333333333 [-]
	 SCS Opposite-Spin Scale   =       1.2000000000000000 [-]
	 SCS Same-Spin Energy      =      -0.1202969153560639 [Eh]
	 SCS Opposite-Spin Energy  =      -1.5141199372686065 [Eh]
	 SCS Correlation Energy    =      -1.6344168526246705 [Eh]
	 SCS Total Energy          =    -349.8187667768361280 [Eh]
	-----------------------------------------------------------

  Dipole Moment: [D]
     X:    -0.0128      Y:     1.7182      Z:     0.0328     Total:     1.7186

*** Psi4 exiting successfully. Buy a developer a beer!
