                               Psi4 1.4a3.dev225

  ==> Input File <==

--------------------------------------------------------------------------
#psi4
#
memory 32 gb

molecule  {
0 1
  O       -0.0000020    -0.6102900    -0.0000420
  C        0.9363500     0.4141040    -0.4566330
  C       -0.9363370     0.4140910     0.4566200
  C        0.0000010     1.5430250    -0.0000030
  C        2.2717190     0.2897090     0.2433650
  C       -2.2717330     0.2897190    -0.2433270
  C        2.9423460    -1.0479970    -0.0522250
  C       -2.9423440    -1.0480000     0.0522380
  H        1.0693000     0.3446630    -1.5460730
  H       -1.0692400     0.3446160     1.5460640
  H        0.4022720     2.1756970     0.7958000
  H       -0.4022820     2.1756850    -0.7958090
  H        2.1021510     0.3966190     1.3216110
  H        2.9117530     1.1256360    -0.0698640
  H       -2.1022070     0.3966710    -1.3215760
  H       -2.9117580     1.1256310     0.0699580
  H        2.2845910    -1.8662570     0.2495040
  H        3.1875949    -1.1722702    -1.3172605
  H        3.8888820    -1.1460650     0.4866090
  H       -3.1496440    -1.1531250     1.1218420
  H       -3.8889120    -1.1460430    -0.4865470
  H       -2.2846070    -1.8662470    -0.2495670
units angstrom
no_reorient  #important for SAPT in psi4, default
symmetry c1  #important for SAPT in psi4, default
}

set PROPERTIES_ORIGIN ["COM"]
properties('MP2/aug-cc-pvtz', properties = ['dipole'])
--------------------------------------------------------------------------

    Molecular point group: c1
  Charge       = 0
  Multiplicity = 1
  Basis Set: AUG-CC-PVTZ
    Blend: AUG-CC-PVTZ
  Basis Set: (AUG-CC-PVTZ AUX)
    Blend: AUG-CC-PVTZ-JKFIT

    Orbital Energies [Eh]
    ---------------------

    Doubly Occupied:

       1A    -20.538762     2A    -11.277602     3A    -11.277561
       4A    -11.231412     5A    -11.224648     6A    -11.221942
       7A    -11.219180     8A    -11.207633     9A     -1.365675
      10A     -1.059521    11A     -1.047305    12A     -0.993179
      13A     -0.909719    14A     -0.843006    15A     -0.803123
      16A     -0.735754    17A     -0.672685    18A     -0.665294
      19A     -0.605774    20A     -0.601074    21A     -0.582698
      22A     -0.554228    23A     -0.550466    24A     -0.523207
      25A     -0.522164    26A     -0.495795    27A     -0.491595
      28A     -0.481360    29A     -0.461643    30A     -0.446991
      31A     -0.433482    32A     -0.402401

  @DF-RHF Final Energy:  -348.16682371631799

   => Energetics <=

    Nuclear Repulsion Energy =            398.7679118020437841
    One-Electron Energy =               -1262.9757140433080167
    Two-Electron Energy =                 516.0409785249462402
    Total Energy =                       -348.1668237163180493
  Basis Set: (AUG-CC-PVTZ AUX)
    Blend: AUG-CC-PVTZ-RI
    Molecular point group: c1

    Geometry (in Angstrom), charge = 0, multiplicity = 1:

       Center              X                  Y                   Z               Mass
    ------------   -----------------  -----------------  -----------------  -----------------
         O           -0.000336626968    -0.612283036580     0.001685264412    15.994914619570
         C            0.936015373032     0.412110963420    -0.454905735588    12.000000000000
         C           -0.936671626968     0.412097963420     0.458347264412    12.000000000000
         C           -0.000333626968     1.541031963420     0.001724264412    12.000000000000
         C            2.271384373032     0.287715963420     0.245092264412    12.000000000000
         C           -2.272067626968     0.287725963420    -0.241599735588    12.000000000000
         C            2.942011373032    -1.049990036580    -0.050497735588    12.000000000000
         C           -2.942678626968    -1.049993036580     0.053965264412    12.000000000000
         H            1.068965373032     0.342669963420    -1.544345735588     1.007825032230
         H           -1.069574626968     0.342622963420     1.547791264412     1.007825032230
         H            0.401937373032     2.173703963420     0.797527264412     1.007825032230
         H           -0.402616626968     2.173691963420    -0.794081735588     1.007825032230
         H            2.101816373032     0.394625963420     1.323338264412     1.007825032230
         H            2.911418373032     1.123642963420    -0.068136735588     1.007825032230
         H           -2.102541626968     0.394677963420    -1.319848735588     1.007825032230
         H           -2.912092626968     1.123637963420     0.071685264412     1.007825032230
         H            2.284256373032    -1.868250036580     0.251231264412     1.007825032230
         H            3.187260273032    -1.174263236580    -1.315533235588     1.007825032230
         H            3.888547373032    -1.148058036580     0.488336264412     1.007825032230
         H           -3.149978626968    -1.155118036580     1.123569264412     1.007825032230
         H           -3.889246626968    -1.148036036580    -0.484819735588     1.007825032230
         H           -2.284941626968    -1.868240036580    -0.247839735588     1.007825032230

  Basis Set: AUG-CC-PVTZ
    Blend: AUG-CC-PVTZ
  Basis Set: (AUG-CC-PVTZ AUX)
    Blend: AUG-CC-PVTZ-JKFIT
	 Reference Energy          =    -348.1668237163179924 [Eh]
	 Singles Energy            =      -0.0000000000000000 [Eh]
	 Same-Spin Energy          =      -0.3607821441297293 [Eh]
	 Opposite-Spin Energy      =      -1.2628655825687860 [Eh]
	 Correlation Energy        =      -1.6236477266985152 [Eh]
	 Total Energy              =    -349.7904714430164859 [Eh]

	 ================> DF-SCS-MP2 Energies <==================
	-----------------------------------------------------------
	 SCS Same-Spin Scale       =       0.3333333333333333 [-]
	 SCS Opposite-Spin Scale   =       1.2000000000000000 [-]
	 SCS Same-Spin Energy      =      -0.1202607147099098 [Eh]
	 SCS Opposite-Spin Energy  =      -1.5154386990825433 [Eh]
	 SCS Correlation Energy    =      -1.6356994137924530 [Eh]
	 SCS Total Energy          =    -349.8025231301104441 [Eh]
	-----------------------------------------------------------

  Dipole Moment: [D]
     X:    -0.0603      Y:     1.7574      Z:     0.1521     Total:     1.7650

*** Psi4 exiting successfully. Buy a developer a beer!
