                               Psi4 1.4a3.dev225

  ==> Input File <==

--------------------------------------------------------------------------
#psi4
#
memory 32 gb

molecule  {
0 1
  O       -0.0000020    -0.6102900    -0.0000420
  C        0.9363500     0.4141040    -0.4566330
  C       -0.9363370     0.4140910     0.4566200
  C        0.0000010     1.5430250    -0.0000030
  C        2.2717190     0.2897090     0.2433650
  C       -2.2717330     0.2897190    -0.2433270
  C        2.9423460    -1.0479970    -0.0522250
  C       -2.9423440    -1.0480000     0.0522380
  H        1.0693000     0.3446630    -1.5460730
  H       -1.0716570     0.3433525     1.5658772
  H        0.4022720     2.1756970     0.7958000
  H       -0.4022820     2.1756850    -0.7958090
  H        2.1021510     0.3966190     1.3216110
  H        2.9117530     1.1256360    -0.0698640
  H       -2.1022070     0.3966710    -1.3215760
  H       -2.9117580     1.1256310     0.0699580
  H        2.2845910    -1.8662570     0.2495040
  H        3.1497060    -1.1530710    -1.1218230
  H        3.8888820    -1.1460650     0.4866090
  H       -3.1496440    -1.1531250     1.1218420
  H       -3.8889120    -1.1460430    -0.4865470
  H       -2.2846070    -1.8662470    -0.2495670
units angstrom
no_reorient  #important for SAPT in psi4, default
symmetry c1  #important for SAPT in psi4, default
}

set PROPERTIES_ORIGIN ["COM"]
properties('MP2/aug-cc-pvtz', properties = ['dipole'])
--------------------------------------------------------------------------

    Molecular point group: c1
  Charge       = 0
  Multiplicity = 1
  Basis Set: AUG-CC-PVTZ
    Blend: AUG-CC-PVTZ
  Basis Set: (AUG-CC-PVTZ AUX)
    Blend: AUG-CC-PVTZ-JKFIT

    Orbital Energies [Eh]
    ---------------------

    Doubly Occupied:

       1A    -20.538489     2A    -11.279470     3A    -11.277165
       4A    -11.224314     5A    -11.219070     6A    -11.218906
       7A    -11.207424     8A    -11.207356     9A     -1.365242
      10A     -1.059640    11A     -1.047402    12A     -0.994314
      13A     -0.912653    14A     -0.847166    15A     -0.804232
      16A     -0.734717    17A     -0.671454    18A     -0.664363
      19A     -0.607569    20A     -0.601726    21A     -0.584158
      22A     -0.557881    23A     -0.551831    24A     -0.522166
      25A     -0.521248    26A     -0.498438    27A     -0.491965
      28A     -0.480517    29A     -0.480270    30A     -0.446484
      31A     -0.432151    32A     -0.401338

  @DF-RHF Final Energy:  -348.18573588480655

   => Energetics <=

    Nuclear Repulsion Energy =            399.4093925059157186
    One-Electron Energy =               -1264.2880130482678851
    Two-Electron Energy =                 516.6928846575456191
    Total Energy =                       -348.1857358848064905
  Basis Set: (AUG-CC-PVTZ AUX)
    Blend: AUG-CC-PVTZ-RI
    Molecular point group: c1

    Geometry (in Angstrom), charge = 0, multiplicity = 1:

       Center              X                  Y                   Z               Mass
    ------------   -----------------  -----------------  -----------------  -----------------
         O            0.000019373956    -0.612441453233    -0.000215932387    15.994914619570
         C            0.936371373956     0.411952546767    -0.456806932387    12.000000000000
         C           -0.936315626044     0.411939546767     0.456446067613    12.000000000000
         C            0.000022373956     1.540873546767    -0.000176932387    12.000000000000
         C            2.271740373956     0.287557546767     0.243191067613    12.000000000000
         C           -2.271711626044     0.287567546767    -0.243500932387    12.000000000000
         C            2.942367373956    -1.050148453233    -0.052398932387    12.000000000000
         C           -2.942322626044    -1.050151453233     0.052064067613    12.000000000000
         H            1.069321373956     0.342511546767    -1.546246932387     1.007825032230
         H           -1.071635626044     0.341201046767     1.565703267613     1.007825032230
         H            0.402293373956     2.173545546767     0.795626067613     1.007825032230
         H           -0.402260626044     2.173533546767    -0.795982932387     1.007825032230
         H            2.102172373956     0.394467546767     1.321437067613     1.007825032230
         H            2.911774373956     1.123484546767    -0.070037932387     1.007825032230
         H           -2.102185626044     0.394519546767    -1.321749932387     1.007825032230
         H           -2.911736626044     1.123479546767     0.069784067613     1.007825032230
         H            2.284612373956    -1.868408453233     0.249330067613     1.007825032230
         H            3.149727373956    -1.155222453233    -1.121996932387     1.007825032230
         H            3.888903373956    -1.148216453233     0.486435067613     1.007825032230
         H           -3.149622626044    -1.155276453233     1.121668067613     1.007825032230
         H           -3.888890626044    -1.148194453233    -0.486720932387     1.007825032230
         H           -2.284585626044    -1.868398453233    -0.249740932387     1.007825032230

  Basis Set: AUG-CC-PVTZ
    Blend: AUG-CC-PVTZ
  Basis Set: (AUG-CC-PVTZ AUX)
    Blend: AUG-CC-PVTZ-JKFIT
	 Reference Energy          =    -348.1857358848065473 [Eh]
	 Singles Energy            =      -0.0000000000000000 [Eh]
	 Same-Spin Energy          =      -0.3609599591358983 [Eh]
	 Opposite-Spin Energy      =      -1.2616451926974941 [Eh]
	 Correlation Energy        =      -1.6226051518333924 [Eh]
	 Total Energy              =    -349.8083410366399448 [Eh]

	 ================> DF-SCS-MP2 Energies <==================
	-----------------------------------------------------------
	 SCS Same-Spin Scale       =       0.3333333333333333 [-]
	 SCS Opposite-Spin Scale   =       1.2000000000000000 [-]
	 SCS Same-Spin Energy      =      -0.1203199863786328 [Eh]
	 SCS Opposite-Spin Energy  =      -1.5139742312369928 [Eh]
	 SCS Correlation Energy    =      -1.6342942176156257 [Eh]
	 SCS Total Energy          =    -349.8200301024221517 [Eh]
	-----------------------------------------------------------

  Dipole Moment: [D]
     X:     0.0079      Y:     1.7067      Z:    -0.0173     Total:     1.7068

*** Psi4 exiting successfully. Buy a developer a beer!
