                               Psi4 1.4a3.dev225

  ==> Input File <==

--------------------------------------------------------------------------
#psi4
#
memory 32 gb

molecule  {
0 1
  O       -0.0000020    -0.6102900    -0.0000420
  C        0.9363500     0.4141040    -0.4566330
  C       -0.9363370     0.4140910     0.4566200
  C        0.0181353     1.5794524     0.1555536
  C        2.2717190     0.2897090     0.2433650
  C       -2.2717330     0.2897190    -0.2433270
  C        2.9423460    -1.0479970    -0.0522250
  C       -2.9423440    -1.0480000     0.0522380
  H        1.0693000     0.3446630    -1.5460730
  H       -1.0692400     0.3446160     1.5460640
  H        0.4022720     2.1756970     0.7958000
  H       -0.4022820     2.1756850    -0.7958090
  H        2.1021510     0.3966190     1.3216110
  H        2.9117530     1.1256360    -0.0698640
  H       -2.1022070     0.3966710    -1.3215760
  H       -2.9117580     1.1256310     0.0699580
  H        2.2845910    -1.8662570     0.2495040
  H        3.1497060    -1.1530710    -1.1218230
  H        3.8888820    -1.1460650     0.4866090
  H       -3.1496440    -1.1531250     1.1218420
  H       -3.8889120    -1.1460430    -0.4865470
  H       -2.2846070    -1.8662470    -0.2495670
units angstrom
no_reorient  #important for SAPT in psi4, default
symmetry c1  #important for SAPT in psi4, default
}

set PROPERTIES_ORIGIN ["COM"]
properties('MP2/aug-cc-pvtz', properties = ['dipole'])
--------------------------------------------------------------------------

    Molecular point group: c1
  Charge       = 0
  Multiplicity = 1
  Basis Set: AUG-CC-PVTZ
    Blend: AUG-CC-PVTZ
  Basis Set: (AUG-CC-PVTZ AUX)
    Blend: AUG-CC-PVTZ-JKFIT

    Orbital Energies [Eh]
    ---------------------

    Doubly Occupied:

       1A    -20.539955     2A    -11.282233     3A    -11.280183
       4A    -11.225826     5A    -11.220756     6A    -11.217913
       7A    -11.208382     8A    -11.206805     9A     -1.363428
      10A     -1.059724    11A     -1.046955    12A     -0.993414
      13A     -0.912095    14A     -0.850532    15A     -0.803871
      16A     -0.748788    17A     -0.675615    18A     -0.664862
      19A     -0.606224    20A     -0.600753    21A     -0.581726
      22A     -0.560251    23A     -0.551511    24A     -0.531313
      25A     -0.516632    26A     -0.499247    27A     -0.491406
      28A     -0.480888    29A     -0.480380    30A     -0.446817
      31A     -0.418304    32A     -0.400067

  @DF-RHF Final Energy:  -348.15494704785550

   => Energetics <=

    Nuclear Repulsion Energy =            398.6605144591811154
    One-Electron Energy =               -1262.6972079119705086
    Two-Electron Energy =                 515.8817464049340060
    Total Energy =                       -348.1549470478554440
  Basis Set: (AUG-CC-PVTZ AUX)
    Blend: AUG-CC-PVTZ-RI
    Molecular point group: c1

    Geometry (in Angstrom), charge = 0, multiplicity = 1:

       Center              X                  Y                   Z               Mass
    ------------   -----------------  -----------------  -----------------  -----------------
         O           -0.001909100210    -0.616283565692    -0.016400320613    15.994914619570
         C            0.934442899790     0.408110434308    -0.472991320613    12.000000000000
         C           -0.938244100210     0.408097434308     0.440261679387    12.000000000000
         C            0.016228199790     1.573458834308     0.139195279387    12.000000000000
         C            2.269811899790     0.283715434308     0.227006679387    12.000000000000
         C           -2.273640100210     0.283725434308    -0.259685320613    12.000000000000
         C            2.940438899790    -1.053990565692    -0.068583320613    12.000000000000
         C           -2.944251100210    -1.053993565692     0.035879679387    12.000000000000
         H            1.067392899790     0.338669434308    -1.562431320613     1.007825032230
         H           -1.071147100210     0.338622434308     1.529705679387     1.007825032230
         H            0.400364899790     2.169703434308     0.779441679387     1.007825032230
         H           -0.404189100210     2.169691434308    -0.812167320613     1.007825032230
         H            2.100243899790     0.390625434308     1.305252679387     1.007825032230
         H            2.909845899790     1.119642434308    -0.086222320613     1.007825032230
         H           -2.104114100210     0.390677434308    -1.337934320613     1.007825032230
         H           -2.913665100210     1.119637434308     0.053599679387     1.007825032230
         H            2.282683899790    -1.872250565692     0.233145679387     1.007825032230
         H            3.147798899790    -1.159064565692    -1.138181320613     1.007825032230
         H            3.886974899790    -1.152058565692     0.470250679387     1.007825032230
         H           -3.151551100210    -1.159118565692     1.105483679387     1.007825032230
         H           -3.890819100210    -1.152036565692    -0.502905320613     1.007825032230
         H           -2.286514100210    -1.872240565692    -0.265925320613     1.007825032230

  Basis Set: AUG-CC-PVTZ
    Blend: AUG-CC-PVTZ
  Basis Set: (AUG-CC-PVTZ AUX)
    Blend: AUG-CC-PVTZ-JKFIT
	 Reference Energy          =    -348.1549470478555008 [Eh]
	 Singles Energy            =      -0.0000000000000000 [Eh]
	 Same-Spin Energy          =      -0.3613257712163384 [Eh]
	 Opposite-Spin Energy      =      -1.2631309645790756 [Eh]
	 Correlation Energy        =      -1.6244567357954138 [Eh]
	 Total Energy              =    -349.7794037836509347 [Eh]

	 ================> DF-SCS-MP2 Energies <==================
	-----------------------------------------------------------
	 SCS Same-Spin Scale       =       0.3333333333333333 [-]
	 SCS Opposite-Spin Scale   =       1.2000000000000000 [-]
	 SCS Same-Spin Energy      =      -0.1204419237387794 [Eh]
	 SCS Opposite-Spin Energy  =      -1.5157571574948907 [Eh]
	 SCS Correlation Energy    =      -1.6361990812336702 [Eh]
	 SCS Total Energy          =    -349.7911461290891566 [Eh]
	-----------------------------------------------------------

  Dipole Moment: [D]
     X:     0.0457      Y:     1.6369      Z:     0.0578     Total:     1.6386

*** Psi4 exiting successfully. Buy a developer a beer!
