                               Psi4 1.4a3.dev225

  ==> Input File <==

--------------------------------------------------------------------------
#psi4
#
memory 32 gb

molecule  {
0 1
  O       -0.0000020    -0.6102900    -0.0000420
  C        0.9363500     0.4141040    -0.4566330
  C       -0.9363370     0.4140910     0.4566200
  C        0.0000010     1.5430250    -0.0000030
  C        2.2717190     0.2897090     0.2433650
  C       -2.2717330     0.2897190    -0.2433270
  C        2.8565487    -1.0958419    -0.0111823
  C       -2.9423440    -1.0480000     0.0522380
  H        1.0693000     0.3446630    -1.5460730
  H       -1.0692400     0.3446160     1.5460640
  H        0.4022720     2.1756970     0.7958000
  H       -0.4022820     2.1756850    -0.7958090
  H        2.1021510     0.3966190     1.3216110
  H        2.9117530     1.1256360    -0.0698640
  H       -2.1022070     0.3966710    -1.3215760
  H       -2.9117580     1.1256310     0.0699580
  H        2.2845910    -1.8662570     0.2495040
  H        3.1497060    -1.1530710    -1.1218230
  H        3.8888820    -1.1460650     0.4866090
  H       -3.1496440    -1.1531250     1.1218420
  H       -3.8889120    -1.1460430    -0.4865470
  H       -2.2846070    -1.8662470    -0.2495670
units angstrom
no_reorient  #important for SAPT in psi4, default
symmetry c1  #important for SAPT in psi4, default
}

set PROPERTIES_ORIGIN ["COM"]
properties('MP2/aug-cc-pvtz', properties = ['dipole'])
--------------------------------------------------------------------------

    Molecular point group: c1
  Charge       = 0
  Multiplicity = 1
  Basis Set: AUG-CC-PVTZ
    Blend: AUG-CC-PVTZ
  Basis Set: (AUG-CC-PVTZ AUX)
    Blend: AUG-CC-PVTZ-JKFIT

    Orbital Energies [Eh]
    ---------------------

    Doubly Occupied:

       1A    -20.538518     2A    -11.277170     3A    -11.276335
       4A    -11.223591     5A    -11.219881     6A    -11.218927
       7A    -11.209645     8A    -11.207499     9A     -1.365431
      10A     -1.060758    11A     -1.047646    12A     -0.994636
      13A     -0.913110    14A     -0.848331    15A     -0.806263
      16A     -0.736024    17A     -0.674011    18A     -0.664657
      19A     -0.608911    20A     -0.605822    21A     -0.582443
      22A     -0.558459    23A     -0.549430    24A     -0.532150
      25A     -0.519159    26A     -0.501467    27A     -0.491554
      28A     -0.482634    29A     -0.468260    30A     -0.447635
      31A     -0.429579    32A     -0.401160

  @DF-RHF Final Energy:  -348.17266824236958

   => Energetics <=

    Nuclear Repulsion Energy =            400.1038740258719031
    One-Electron Energy =               -1265.6308882370515221
    Two-Electron Energy =                 517.3543459688100938
    Total Energy =                       -348.1726682423695820
  Basis Set: (AUG-CC-PVTZ AUX)
    Blend: AUG-CC-PVTZ-RI
    Molecular point group: c1

    Geometry (in Angstrom), charge = 0, multiplicity = 1:

       Center              X                  Y                   Z               Mass
    ------------   -----------------  -----------------  -----------------  -----------------
         O            0.009021052254    -0.607420918649    -0.004357261657    15.994914619570
         C            0.945373052254     0.416973081351    -0.460948261657    12.000000000000
         C           -0.927313947746     0.416960081351     0.452304738343    12.000000000000
         C            0.009024052254     1.545894081351    -0.004318261657    12.000000000000
         C            2.280742052254     0.292578081351     0.239049738343    12.000000000000
         C           -2.262709947746     0.292588081351    -0.247642261657    12.000000000000
         C            2.865571752254    -1.092972818649    -0.015497561657    12.000000000000
         C           -2.933320947746    -1.045130918649     0.047922738343    12.000000000000
         H            1.078323052254     0.347532081351    -1.550388261657     1.007825032230
         H           -1.060216947746     0.347485081351     1.541748738343     1.007825032230
         H            0.411295052254     2.178566081351     0.791484738343     1.007825032230
         H           -0.393258947746     2.178554081351    -0.800124261657     1.007825032230
         H            2.111174052254     0.399488081351     1.317295738343     1.007825032230
         H            2.920776052254     1.128505081351    -0.074179261657     1.007825032230
         H           -2.093183947746     0.399540081351    -1.325891261657     1.007825032230
         H           -2.902734947746     1.128500081351     0.065642738343     1.007825032230
         H            2.293614052254    -1.863387918649     0.245188738343     1.007825032230
         H            3.158729052254    -1.150201918649    -1.126138261657     1.007825032230
         H            3.897905052254    -1.143195918649     0.482293738343     1.007825032230
         H           -3.140620947746    -1.150255918649     1.117526738343     1.007825032230
         H           -3.879888947746    -1.143173918649    -0.490862261657     1.007825032230
         H           -2.275583947746    -1.863377918649    -0.253882261657     1.007825032230

  Basis Set: AUG-CC-PVTZ
    Blend: AUG-CC-PVTZ
  Basis Set: (AUG-CC-PVTZ AUX)
    Blend: AUG-CC-PVTZ-JKFIT
	 Reference Energy          =    -348.1726682423695820 [Eh]
	 Singles Energy            =      -0.0000000000000000 [Eh]
	 Same-Spin Energy          =      -0.3611012346060526 [Eh]
	 Opposite-Spin Energy      =      -1.2620857591009629 [Eh]
	 Correlation Energy        =      -1.6231869937070156 [Eh]
	 Total Energy              =    -349.7958552360765907 [Eh]

	 ================> DF-SCS-MP2 Energies <==================
	-----------------------------------------------------------
	 SCS Same-Spin Scale       =       0.3333333333333333 [-]
	 SCS Opposite-Spin Scale   =       1.2000000000000000 [-]
	 SCS Same-Spin Energy      =      -0.1203670782020175 [Eh]
	 SCS Opposite-Spin Energy  =      -1.5145029109211554 [Eh]
	 SCS Correlation Energy    =      -1.6348699891231731 [Eh]
	 SCS Total Energy          =    -349.8075382314927424 [Eh]
	-----------------------------------------------------------

  Dipole Moment: [D]
     X:    -0.0156      Y:     1.7223      Z:     0.0170     Total:     1.7225

*** Psi4 exiting successfully. Buy a developer a beer!
