                               Psi4 1.4a3.dev225

  ==> Input File <==

--------------------------------------------------------------------------
#psi4
#
memory 32 gb

molecule  {
0 1
  O       -0.0000020    -0.6102900    -0.0000420
  C        0.9363500     0.4141040    -0.4566330
  C       -0.9363370     0.4140910     0.4566200
  C        0.0000010     1.5430250    -0.0000030
  C        2.2717190     0.2897090     0.2433650
  C       -2.2717330     0.2897190    -0.2433270
  C        2.9423460    -1.0479970    -0.0522250
  C       -2.9423440    -1.0480000     0.0522380
  H        1.0693000     0.3446630    -1.5460730
  H       -1.0692400     0.3446160     1.5460640
  H        0.4096306     2.1872702     0.8103572
  H       -0.4022820     2.1756850    -0.7958090
  H        2.1021510     0.3966190     1.3216110
  H        2.9117530     1.1256360    -0.0698640
  H       -2.1022070     0.3966710    -1.3215760
  H       -2.9117580     1.1256310     0.0699580
  H        2.2845910    -1.8662570     0.2495040
  H        3.1497060    -1.1530710    -1.1218230
  H        3.8888820    -1.1460650     0.4866090
  H       -3.1496440    -1.1531250     1.1218420
  H       -3.8889120    -1.1460430    -0.4865470
  H       -2.2846070    -1.8662470    -0.2495670
units angstrom
no_reorient  #important for SAPT in psi4, default
symmetry c1  #important for SAPT in psi4, default
}

set PROPERTIES_ORIGIN ["COM"]
properties('MP2/aug-cc-pvtz', properties = ['dipole'])
--------------------------------------------------------------------------

    Molecular point group: c1
  Charge       = 0
  Multiplicity = 1
  Basis Set: AUG-CC-PVTZ
    Blend: AUG-CC-PVTZ
  Basis Set: (AUG-CC-PVTZ AUX)
    Blend: AUG-CC-PVTZ-JKFIT

    Orbital Energies [Eh]
    ---------------------

    Doubly Occupied:

       1A    -20.538257     2A    -11.277209     3A    -11.277188
       4A    -11.226480     5A    -11.218963     6A    -11.218831
       7A    -11.207461     8A    -11.207359     9A     -1.365176
      10A     -1.059853    11A     -1.047207    12A     -0.993489
      13A     -0.913299    14A     -0.846772    15A     -0.805121
      16A     -0.734958    17A     -0.671499    18A     -0.664295
      19A     -0.606988    20A     -0.601694    21A     -0.584203
      22A     -0.558936    23A     -0.551201    24A     -0.521466
      25A     -0.520719    26A     -0.498378    27A     -0.491909
      28A     -0.480648    29A     -0.480400    30A     -0.446151
      31A     -0.432608    32A     -0.401631

  @DF-RHF Final Energy:  -348.18578749872984

   => Energetics <=

    Nuclear Repulsion Energy =            399.4172964402691264
    One-Electron Energy =               -1264.3054711341176244
    Two-Electron Energy =                 516.7023871951186038
    Total Energy =                       -348.1857874987298374
  Basis Set: (AUG-CC-PVTZ AUX)
    Blend: AUG-CC-PVTZ-RI
    Molecular point group: c1

    Geometry (in Angstrom), charge = 0, multiplicity = 1:

       Center              X                  Y                   Z               Mass
    ------------   -----------------  -----------------  -----------------  -----------------
         O           -0.000066968804    -0.612554833087    -0.000169508889    15.994914619570
         C            0.936285031196     0.411839166913    -0.456760508889    12.000000000000
         C           -0.936401968804     0.411826166913     0.456492491111    12.000000000000
         C           -0.000063968804     1.540760166913    -0.000130508889    12.000000000000
         C            2.271654031196     0.287444166913     0.243237491111    12.000000000000
         C           -2.271797968804     0.287454166913    -0.243454508889    12.000000000000
         C            2.942281031196    -1.050261833087    -0.052352508889    12.000000000000
         C           -2.942408968804    -1.050264833087     0.052110491111    12.000000000000
         H            1.069235031196     0.342398166913    -1.546200508889     1.007825032230
         H           -1.069304968804     0.342351166913     1.545936491111     1.007825032230
         H            0.409565631196     2.185005366913     0.810229691111     1.007825032230
         H           -0.402346968804     2.173420166913    -0.795936508889     1.007825032230
         H            2.102086031196     0.394354166913     1.321483491111     1.007825032230
         H            2.911688031196     1.123371166913    -0.069991508889     1.007825032230
         H           -2.102271968804     0.394406166913    -1.321703508889     1.007825032230
         H           -2.911822968804     1.123366166913     0.069830491111     1.007825032230
         H            2.284526031196    -1.868521833087     0.249376491111     1.007825032230
         H            3.149641031196    -1.155335833087    -1.121950508889     1.007825032230
         H            3.888817031196    -1.148329833087     0.486481491111     1.007825032230
         H           -3.149708968804    -1.155389833087     1.121714491111     1.007825032230
         H           -3.888976968804    -1.148307833087    -0.486674508889     1.007825032230
         H           -2.284671968804    -1.868511833087    -0.249694508889     1.007825032230

  Basis Set: AUG-CC-PVTZ
    Blend: AUG-CC-PVTZ
  Basis Set: (AUG-CC-PVTZ AUX)
    Blend: AUG-CC-PVTZ-JKFIT
	 Reference Energy          =    -348.1857874987298374 [Eh]
	 Singles Energy            =      -0.0000000000000000 [Eh]
	 Same-Spin Energy          =      -0.3609322031296770 [Eh]
	 Opposite-Spin Energy      =      -1.2616115760639748 [Eh]
	 Correlation Energy        =      -1.6225437791936517 [Eh]
	 Total Energy              =    -349.8083312779235143 [Eh]

	 ================> DF-SCS-MP2 Energies <==================
	-----------------------------------------------------------
	 SCS Same-Spin Scale       =       0.3333333333333333 [-]
	 SCS Opposite-Spin Scale   =       1.2000000000000000 [-]
	 SCS Same-Spin Energy      =      -0.1203107343765590 [Eh]
	 SCS Opposite-Spin Energy  =      -1.5139338912767697 [Eh]
	 SCS Correlation Energy    =      -1.6342446256533287 [Eh]
	 SCS Total Energy          =    -349.8200321243831468 [Eh]
	-----------------------------------------------------------

  Dipole Moment: [D]
     X:    -0.0051      Y:     1.6970      Z:    -0.0057     Total:     1.6970

*** Psi4 exiting successfully. Buy a developer a beer!
