                               Psi4 1.4a3.dev225

  ==> Input File <==

--------------------------------------------------------------------------
#psi4
#
memory 32 gb

molecule  {
0 1
  O       -0.0000020    -0.6102900    -0.0000420
  C        0.9363500     0.4141040    -0.4566330
  C       -0.9363370     0.4140910     0.4566200
  C        0.0000010     1.5430250    -0.0000030
  C        2.2540652     0.2913535     0.2341109
  C       -2.2717330     0.2897190    -0.2433270
  C        2.9423460    -1.0479970    -0.0522250
  C       -2.9423440    -1.0480000     0.0522380
  H        1.0693000     0.3446630    -1.5460730
  H       -1.0692400     0.3446160     1.5460640
  H        0.4022720     2.1756970     0.7958000
  H       -0.4022820     2.1756850    -0.7958090
  H        2.1021510     0.3966190     1.3216110
  H        2.9117530     1.1256360    -0.0698640
  H       -2.1022070     0.3966710    -1.3215760
  H       -2.9117580     1.1256310     0.0699580
  H        2.2845910    -1.8662570     0.2495040
  H        3.1497060    -1.1530710    -1.1218230
  H        3.8888820    -1.1460650     0.4866090
  H       -3.1496440    -1.1531250     1.1218420
  H       -3.8889120    -1.1460430    -0.4865470
  H       -2.2846070    -1.8662470    -0.2495670
units angstrom
no_reorient  #important for SAPT in psi4, default
symmetry c1  #important for SAPT in psi4, default
}

set PROPERTIES_ORIGIN ["COM"]
properties('MP2/aug-cc-pvtz', properties = ['dipole'])
--------------------------------------------------------------------------

    Molecular point group: c1
  Charge       = 0
  Multiplicity = 1
  Basis Set: AUG-CC-PVTZ
    Blend: AUG-CC-PVTZ
  Basis Set: (AUG-CC-PVTZ AUX)
    Blend: AUG-CC-PVTZ-JKFIT

    Orbital Energies [Eh]
    ---------------------

    Doubly Occupied:

       1A    -20.538086     2A    -11.277047     3A    -11.276288
       4A    -11.224175     5A    -11.219322     6A    -11.218865
       7A    -11.207803     8A    -11.207380     9A     -1.365384
      10A     -1.060836    11A     -1.047958    12A     -0.993903
      13A     -0.913970    14A     -0.847887    15A     -0.804575
      16A     -0.736175    17A     -0.672220    18A     -0.665398
      19A     -0.607825    20A     -0.601289    21A     -0.584153
      22A     -0.558834    23A     -0.551661    24A     -0.522552
      25A     -0.520804    26A     -0.497587    27A     -0.493183
      28A     -0.480459    29A     -0.478816    30A     -0.445800
      31A     -0.432287    32A     -0.403179

  @DF-RHF Final Energy:  -348.18585144509518

   => Energetics <=

    Nuclear Repulsion Energy =            399.7885010106023742
    One-Electron Energy =               -1265.0373041491529875
    Two-Electron Energy =                 517.0629516934553749
    Total Energy =                       -348.1858514450951816
  Basis Set: (AUG-CC-PVTZ AUX)
    Blend: AUG-CC-PVTZ-RI
    Molecular point group: c1

    Geometry (in Angstrom), charge = 0, multiplicity = 1:

       Center              X                  Y                   Z               Mass
    ------------   -----------------  -----------------  -----------------  -----------------
         O            0.001854619288    -0.612625559849     0.000932291207    15.994914619570
         C            0.938206619288     0.411768440151    -0.455658708793    12.000000000000
         C           -0.934480380712     0.411755440151     0.457594291207    12.000000000000
         C            0.001857619288     1.540689440151     0.000971291207    12.000000000000
         C            2.255921819288     0.289017940151     0.235085191207    12.000000000000
         C           -2.269876380712     0.287383440151    -0.242352708793    12.000000000000
         C            2.944202619288    -1.050332559849    -0.051250708793    12.000000000000
         C           -2.940487380712    -1.050335559849     0.053212291207    12.000000000000
         H            1.071156619288     0.342327440151    -1.545098708793     1.007825032230
         H           -1.067383380712     0.342280440151     1.547038291207     1.007825032230
         H            0.404128619288     2.173361440151     0.796774291207     1.007825032230
         H           -0.400425380712     2.173349440151    -0.794834708793     1.007825032230
         H            2.104007619288     0.394283440151     1.322585291207     1.007825032230
         H            2.913609619288     1.123300440151    -0.068889708793     1.007825032230
         H           -2.100350380712     0.394335440151    -1.320601708793     1.007825032230
         H           -2.909901380712     1.123295440151     0.070932291207     1.007825032230
         H            2.286447619288    -1.868592559849     0.250478291207     1.007825032230
         H            3.151562619288    -1.155406559849    -1.120848708793     1.007825032230
         H            3.890738619288    -1.148400559849     0.487583291207     1.007825032230
         H           -3.147787380712    -1.155460559849     1.122816291207     1.007825032230
         H           -3.887055380712    -1.148378559849    -0.485572708793     1.007825032230
         H           -2.282750380712    -1.868582559849    -0.248592708793     1.007825032230

  Basis Set: AUG-CC-PVTZ
    Blend: AUG-CC-PVTZ
  Basis Set: (AUG-CC-PVTZ AUX)
    Blend: AUG-CC-PVTZ-JKFIT
	 Reference Energy          =    -348.1858514450951816 [Eh]
	 Singles Energy            =      -0.0000000000000000 [Eh]
	 Same-Spin Energy          =      -0.3610205734970405 [Eh]
	 Opposite-Spin Energy      =      -1.2615739661223011 [Eh]
	 Correlation Energy        =      -1.6225945396193415 [Eh]
	 Total Energy              =    -349.8084459847145240 [Eh]

	 ================> DF-SCS-MP2 Energies <==================
	-----------------------------------------------------------
	 SCS Same-Spin Scale       =       0.3333333333333333 [-]
	 SCS Opposite-Spin Scale   =       1.2000000000000000 [-]
	 SCS Same-Spin Energy      =      -0.1203401911656802 [Eh]
	 SCS Opposite-Spin Energy  =      -1.5138887593467614 [Eh]
	 SCS Correlation Energy    =      -1.6342289505124414 [Eh]
	 SCS Total Energy          =    -349.8200803956076470 [Eh]
	-----------------------------------------------------------

  Dipole Moment: [D]
     X:     0.0060      Y:     1.7080      Z:     0.0022     Total:     1.7080

*** Psi4 exiting successfully. Buy a developer a beer!
