                               Psi4 1.4a3.dev225

  ==> Input File <==

--------------------------------------------------------------------------
#psi4
#
memory 32 gb

molecule  {
0 1
  O       -0.0000020    -0.6102900    -0.0000420
  C        0.9363500     0.4141040    -0.4566330
  C       -0.9363370     0.4140910     0.4566200
  C        0.0000010     1.5430250    -0.0000030
  C        2.2717190     0.2897090     0.2433650
  C       -2.2717330     0.2897190    -0.2433270
  C        2.9423460    -1.0479970    -0.0522250
  C       -2.9423440    -1.0480000     0.0522380
  H        1.0693000     0.3446630    -1.5460730
  H       -1.0692400     0.3446160     1.5460640
  H        0.4022720     2.1756970     0.7958000
  H       -0.4022820     2.1756850    -0.7958090
  H        2.0914177     0.3807729     1.3213243
  H        2.9117530     1.1256360    -0.0698640
  H       -2.1022070     0.3966710    -1.3215760
  H       -2.9117580     1.1256310     0.0699580
  H        2.2845910    -1.8662570     0.2495040
  H        3.1497060    -1.1530710    -1.1218230
  H        3.8888820    -1.1460650     0.4866090
  H       -3.1496440    -1.1531250     1.1218420
  H       -3.8889120    -1.1460430    -0.4865470
  H       -2.2846070    -1.8662470    -0.2495670
units angstrom
no_reorient  #important for SAPT in psi4, default
symmetry c1  #important for SAPT in psi4, default
}

set PROPERTIES_ORIGIN ["COM"]
properties('MP2/aug-cc-pvtz', properties = ['dipole'])
--------------------------------------------------------------------------

    Molecular point group: c1
  Charge       = 0
  Multiplicity = 1
  Basis Set: AUG-CC-PVTZ
    Blend: AUG-CC-PVTZ
  Basis Set: (AUG-CC-PVTZ AUX)
    Blend: AUG-CC-PVTZ-JKFIT

    Orbital Energies [Eh]
    ---------------------

    Doubly Occupied:

       1A    -20.538137     2A    -11.277019     3A    -11.276903
       4A    -11.224050     5A    -11.218846     6A    -11.218845
       7A    -11.207372     8A    -11.207245     9A     -1.365048
      10A     -1.059847    11A     -1.047438    12A     -0.994234
      13A     -0.913195    14A     -0.847062    15A     -0.804905
      16A     -0.735850    17A     -0.671847    18A     -0.664932
      19A     -0.607634    20A     -0.602065    21A     -0.584001
      22A     -0.558808    23A     -0.551777    24A     -0.522191
      25A     -0.521062    26A     -0.498033    27A     -0.492029
      28A     -0.480975    29A     -0.480218    30A     -0.446256
      31A     -0.432420    32A     -0.401581

  @DF-RHF Final Energy:  -348.18628898531199

   => Energetics <=

    Nuclear Repulsion Energy =            399.5405777076672962
    One-Electron Energy =               -1264.5500823982617931
    Two-Electron Energy =                 516.8232157052824505
    Total Energy =                       -348.1862889853119896
  Basis Set: (AUG-CC-PVTZ AUX)
    Blend: AUG-CC-PVTZ-RI
    Molecular point group: c1

    Geometry (in Angstrom), charge = 0, multiplicity = 1:

       Center              X                  Y                   Z               Mass
    ------------   -----------------  -----------------  -----------------  -----------------
         O            0.000092827482    -0.612312652757    -0.000038400488    15.994914619570
         C            0.936444827482     0.412081347243    -0.456629400488    12.000000000000
         C           -0.936242172518     0.412068347243     0.456623599512    12.000000000000
         C            0.000095827482     1.541002347243     0.000000599512    12.000000000000
         C            2.271813827482     0.287686347243     0.243368599512    12.000000000000
         C           -2.271638172518     0.287696347243    -0.243323400488    12.000000000000
         C            2.942440827482    -1.050019652757    -0.052221400488    12.000000000000
         C           -2.942249172518    -1.050022652757     0.052241599512    12.000000000000
         H            1.069394827482     0.342640347243    -1.546069400488     1.007825032230
         H           -1.069145172518     0.342593347243     1.546067599512     1.007825032230
         H            0.402366827482     2.173674347243     0.795803599512     1.007825032230
         H           -0.402187172518     2.173662347243    -0.795805400488     1.007825032230
         H            2.091512527482     0.378750247243     1.321327899512     1.007825032230
         H            2.911847827482     1.123613347243    -0.069860400488     1.007825032230
         H           -2.102112172518     0.394648347243    -1.321572400488     1.007825032230
         H           -2.911663172518     1.123608347243     0.069961599512     1.007825032230
         H            2.284685827482    -1.868279652757     0.249507599512     1.007825032230
         H            3.149800827482    -1.155093652757    -1.121819400488     1.007825032230
         H            3.888976827482    -1.148087652757     0.486612599512     1.007825032230
         H           -3.149549172518    -1.155147652757     1.121845599512     1.007825032230
         H           -3.888817172518    -1.148065652757    -0.486543400488     1.007825032230
         H           -2.284512172518    -1.868269652757    -0.249563400488     1.007825032230

  Basis Set: AUG-CC-PVTZ
    Blend: AUG-CC-PVTZ
  Basis Set: (AUG-CC-PVTZ AUX)
    Blend: AUG-CC-PVTZ-JKFIT
	 Reference Energy          =    -348.1862889853119896 [Eh]
	 Singles Energy            =      -0.0000000000000000 [Eh]
	 Same-Spin Energy          =      -0.3609361982787836 [Eh]
	 Opposite-Spin Energy      =      -1.2615014537938405 [Eh]
	 Correlation Energy        =      -1.6224376520726240 [Eh]
	 Total Energy              =    -349.8087266373846091 [Eh]

	 ================> DF-SCS-MP2 Energies <==================
	-----------------------------------------------------------
	 SCS Same-Spin Scale       =       0.3333333333333333 [-]
	 SCS Opposite-Spin Scale   =       1.2000000000000000 [-]
	 SCS Same-Spin Energy      =      -0.1203120660929279 [Eh]
	 SCS Opposite-Spin Energy  =      -1.5138017445526086 [Eh]
	 SCS Correlation Energy    =      -1.6341138106455364 [Eh]
	 SCS Total Energy          =    -349.8204027959575342 [Eh]
	-----------------------------------------------------------

  Dipole Moment: [D]
     X:    -0.0036      Y:     1.7047      Z:    -0.0010     Total:     1.7047

*** Psi4 exiting successfully. Buy a developer a beer!
