                               Psi4 1.4a3.dev225

  ==> Input File <==

--------------------------------------------------------------------------
#psi4
#
memory 32 gb

molecule  {
0 1
  O       -0.0000020    -0.6102900    -0.0000420
  C        0.9363500     0.4141040    -0.4566330
  C       -0.9246366     0.4174894     0.4331955
  C        0.0000010     1.5430250    -0.0000030
  C        2.2717190     0.2897090     0.2433650
  C       -2.2717330     0.2897190    -0.2433270
  C        2.9423460    -1.0479970    -0.0522250
  C       -2.9423440    -1.0480000     0.0522380
  H        1.0693000     0.3446630    -1.5460730
  H       -1.0692400     0.3446160     1.5460640
  H        0.4022720     2.1756970     0.7958000
  H       -0.4022820     2.1756850    -0.7958090
  H        2.1021510     0.3966190     1.3216110
  H        2.9117530     1.1256360    -0.0698640
  H       -2.1022070     0.3966710    -1.3215760
  H       -2.9117580     1.1256310     0.0699580
  H        2.2845910    -1.8662570     0.2495040
  H        3.1497060    -1.1530710    -1.1218230
  H        3.8888820    -1.1460650     0.4866090
  H       -3.1496440    -1.1531250     1.1218420
  H       -3.8889120    -1.1460430    -0.4865470
  H       -2.2846070    -1.8662470    -0.2495670
units angstrom
no_reorient  #important for SAPT in psi4, default
symmetry c1  #important for SAPT in psi4, default
}

set PROPERTIES_ORIGIN ["COM"]
properties('MP2/aug-cc-pvtz', properties = ['dipole'])
--------------------------------------------------------------------------

    Molecular point group: c1
  Charge       = 0
  Multiplicity = 1
  Basis Set: AUG-CC-PVTZ
    Blend: AUG-CC-PVTZ
  Basis Set: (AUG-CC-PVTZ AUX)
    Blend: AUG-CC-PVTZ-JKFIT

    Orbital Energies [Eh]
    ---------------------

    Doubly Occupied:

       1A    -20.539230     2A    -11.278174     3A    -11.277648
       4A    -11.223451     5A    -11.219374     6A    -11.218535
       7A    -11.207809     8A    -11.207429     9A     -1.370433
      10A     -1.059832    11A     -1.048587    12A     -0.996772
      13A     -0.913063    14A     -0.847670    15A     -0.804327
      16A     -0.734073    17A     -0.673028    18A     -0.666328
      19A     -0.609314    20A     -0.602341    21A     -0.584657
      22A     -0.556671    23A     -0.552905    24A     -0.522977
      25A     -0.521779    26A     -0.498271    27A     -0.492896
      28A     -0.481167    29A     -0.478650    30A     -0.450369
      31A     -0.432161    32A     -0.399679

  @DF-RHF Final Energy:  -348.18551934006501

   => Energetics <=

    Nuclear Repulsion Energy =            399.8706854983028052
    One-Electron Energy =               -1265.1732154665003236
    Two-Electron Energy =                 517.1170106281325616
    Total Energy =                       -348.1855193400649569
  Basis Set: (AUG-CC-PVTZ AUX)
    Blend: AUG-CC-PVTZ-RI
    Molecular point group: c1

    Geometry (in Angstrom), charge = 0, multiplicity = 1:

       Center              X                  Y                   Z               Mass
    ------------   -----------------  -----------------  -----------------  -----------------
         O           -0.001232467618    -0.612810011877     0.002422546649    15.994914619570
         C            0.935119532382     0.411583988123    -0.454168453351    12.000000000000
         C           -0.925867067618     0.414969388123     0.435660046649    12.000000000000
         C           -0.001229467618     1.540504988123     0.002461546649    12.000000000000
         C            2.270488532382     0.287188988123     0.245829546649    12.000000000000
         C           -2.272963467618     0.287198988123    -0.240862453351    12.000000000000
         C            2.941115532382    -1.050517011877    -0.049760453351    12.000000000000
         C           -2.943574467618    -1.050520011877     0.054702546649    12.000000000000
         H            1.068069532382     0.342142988123    -1.543608453351     1.007825032230
         H           -1.070470467618     0.342095988123     1.548528546649     1.007825032230
         H            0.401041532382     2.173176988123     0.798264546649     1.007825032230
         H           -0.403512467618     2.173164988123    -0.793344453351     1.007825032230
         H            2.100920532382     0.394098988123     1.324075546649     1.007825032230
         H            2.910522532382     1.123115988123    -0.067399453351     1.007825032230
         H           -2.103437467618     0.394150988123    -1.319111453351     1.007825032230
         H           -2.912988467618     1.123110988123     0.072422546649     1.007825032230
         H            2.283360532382    -1.868777011877     0.251968546649     1.007825032230
         H            3.148475532382    -1.155591011877    -1.119358453351     1.007825032230
         H            3.887651532382    -1.148585011877     0.489073546649     1.007825032230
         H           -3.150874467618    -1.155645011877     1.124306546649     1.007825032230
         H           -3.890142467618    -1.148563011877    -0.484082453351     1.007825032230
         H           -2.285837467618    -1.868767011877    -0.247102453351     1.007825032230

  Basis Set: AUG-CC-PVTZ
    Blend: AUG-CC-PVTZ
  Basis Set: (AUG-CC-PVTZ AUX)
    Blend: AUG-CC-PVTZ-JKFIT
	 Reference Energy          =    -348.1855193400650137 [Eh]
	 Singles Energy            =      -0.0000000000000000 [Eh]
	 Same-Spin Energy          =      -0.3610491965966519 [Eh]
	 Opposite-Spin Energy      =      -1.2613828875243351 [Eh]
	 Correlation Energy        =      -1.6224320841209869 [Eh]
	 Total Energy              =    -349.8079514241860011 [Eh]

	 ================> DF-SCS-MP2 Energies <==================
	-----------------------------------------------------------
	 SCS Same-Spin Scale       =       0.3333333333333333 [-]
	 SCS Opposite-Spin Scale   =       1.2000000000000000 [-]
	 SCS Same-Spin Energy      =      -0.1203497321988840 [Eh]
	 SCS Opposite-Spin Energy  =      -1.5136594650292021 [Eh]
	 SCS Correlation Energy    =      -1.6340091972280861 [Eh]
	 SCS Total Energy          =    -349.8195285372930812 [Eh]
	-----------------------------------------------------------

  Dipole Moment: [D]
     X:     0.0565      Y:     1.7007      Z:    -0.0450     Total:     1.7023

*** Psi4 exiting successfully. Buy a developer a beer!
