                               Psi4 1.4a3.dev225

  ==> Input File <==

--------------------------------------------------------------------------
#psi4
#
memory 32 gb

molecule  {
0 1
  O       -0.0000020    -0.6102900    -0.0000420
  C        0.9363500     0.4141040    -0.4566330
  C       -0.9363370     0.4140910     0.4566200
  C        0.0000010     1.5430250    -0.0000030
  C        2.2717190     0.2897090     0.2433650
  C       -2.2717330     0.2897190    -0.2433270
  C        2.9423460    -1.0479970    -0.0522250
  C       -2.9423440    -1.0480000     0.0522380
  H        1.0693000     0.3446630    -1.5460730
  H       -1.0692400     0.3446160     1.5460640
  H        0.4022720     2.1756970     0.7958000
  H       -0.4022820     2.1756850    -0.7958090
  H        2.0595604     0.3330876     1.3184950
  H        2.9117530     1.1256360    -0.0698640
  H       -2.1022070     0.3966710    -1.3215760
  H       -2.9117580     1.1256310     0.0699580
  H        2.2845910    -1.8662570     0.2495040
  H        3.1497060    -1.1530710    -1.1218230
  H        3.8888820    -1.1460650     0.4866090
  H       -3.1496440    -1.1531250     1.1218420
  H       -3.8889120    -1.1460430    -0.4865470
  H       -2.2846070    -1.8662470    -0.2495670
units angstrom
no_reorient  #important for SAPT in psi4, default
symmetry c1  #important for SAPT in psi4, default
}

set PROPERTIES_ORIGIN ["COM"]
properties('MP2/aug-cc-pvtz', properties = ['dipole'])
--------------------------------------------------------------------------

    Molecular point group: c1
  Charge       = 0
  Multiplicity = 1
  Basis Set: AUG-CC-PVTZ
    Blend: AUG-CC-PVTZ
  Basis Set: (AUG-CC-PVTZ AUX)
    Blend: AUG-CC-PVTZ-JKFIT

    Orbital Energies [Eh]
    ---------------------

    Doubly Occupied:

       1A    -20.538321     2A    -11.277105     3A    -11.276648
       4A    -11.224011     5A    -11.218893     6A    -11.218891
       7A    -11.207419     8A    -11.206927     9A     -1.365215
      10A     -1.060116    11A     -1.047562    12A     -0.994328
      13A     -0.913198    14A     -0.846859    15A     -0.804392
      16A     -0.735432    17A     -0.672381    18A     -0.664903
      19A     -0.608529    20A     -0.603145    21A     -0.583638
      22A     -0.558666    23A     -0.551909    24A     -0.522231
      25A     -0.520804    26A     -0.496854    27A     -0.492614
      28A     -0.482331    29A     -0.478995    30A     -0.446322
      31A     -0.432390    32A     -0.401411

  @DF-RHF Final Energy:  -348.18566634349025

   => Energetics <=

    Nuclear Repulsion Energy =            399.6197386827054743
    One-Electron Energy =               -1264.7059265311240779
    Two-Electron Energy =                 516.9005215049282924
    Total Energy =                       -348.1856663434903112
  Basis Set: (AUG-CC-PVTZ AUX)
    Blend: AUG-CC-PVTZ-RI
    Molecular point group: c1

    Geometry (in Angstrom), charge = 0, multiplicity = 1:

       Center              X                  Y                   Z               Mass
    ------------   -----------------  -----------------  -----------------  -----------------
         O            0.000374206343    -0.611891473455    -0.000013410761    15.994914619570
         C            0.936726206343     0.412502526545    -0.456604410761    12.000000000000
         C           -0.935960793657     0.412489526545     0.456648589239    12.000000000000
         C            0.000377206343     1.541423526545     0.000025589239    12.000000000000
         C            2.272095206343     0.288107526545     0.243393589239    12.000000000000
         C           -2.271356793657     0.288117526545    -0.243298410761    12.000000000000
         C            2.942722206343    -1.049598473455    -0.052196410761    12.000000000000
         C           -2.941967793657    -1.049601473455     0.052266589239    12.000000000000
         H            1.069676206343     0.343061526545    -1.546044410761     1.007825032230
         H           -1.068863793657     0.343014526545     1.546092589239     1.007825032230
         H            0.402648206343     2.174095526545     0.795828589239     1.007825032230
         H           -0.401905793657     2.174083526545    -0.795780410761     1.007825032230
         H            2.059936606343     0.331486126545     1.318523589239     1.007825032230
         H            2.912129206343     1.124034526545    -0.069835410761     1.007825032230
         H           -2.101830793657     0.395069526545    -1.321547410761     1.007825032230
         H           -2.911381793657     1.124029526545     0.069986589239     1.007825032230
         H            2.284967206343    -1.867858473455     0.249532589239     1.007825032230
         H            3.150082206343    -1.154672473455    -1.121794410761     1.007825032230
         H            3.889258206343    -1.147666473455     0.486637589239     1.007825032230
         H           -3.149267793657    -1.154726473455     1.121870589239     1.007825032230
         H           -3.888535793657    -1.147644473455    -0.486518410761     1.007825032230
         H           -2.284230793657    -1.867848473455    -0.249538410761     1.007825032230

  Basis Set: AUG-CC-PVTZ
    Blend: AUG-CC-PVTZ
  Basis Set: (AUG-CC-PVTZ AUX)
    Blend: AUG-CC-PVTZ-JKFIT
	 Reference Energy          =    -348.1856663434902543 [Eh]
	 Singles Energy            =      -0.0000000000000000 [Eh]
	 Same-Spin Energy          =      -0.3609992629243793 [Eh]
	 Opposite-Spin Energy      =      -1.2616221691044383 [Eh]
	 Correlation Energy        =      -1.6226214320288175 [Eh]
	 Total Energy              =    -349.8082877755190907 [Eh]

	 ================> DF-SCS-MP2 Energies <==================
	-----------------------------------------------------------
	 SCS Same-Spin Scale       =       0.3333333333333333 [-]
	 SCS Opposite-Spin Scale   =       1.2000000000000000 [-]
	 SCS Same-Spin Energy      =      -0.1203330876414598 [Eh]
	 SCS Opposite-Spin Energy  =      -1.5139466029253259 [Eh]
	 SCS Correlation Energy    =      -1.6342796905667856 [Eh]
	 SCS Total Energy          =    -349.8199460340570681 [Eh]
	-----------------------------------------------------------

  Dipole Moment: [D]
     X:    -0.0139      Y:     1.6974      Z:    -0.0048     Total:     1.6975

*** Psi4 exiting successfully. Buy a developer a beer!
