                               Psi4 1.4a3.dev225

  ==> Input File <==

--------------------------------------------------------------------------
#psi4
#
memory 32 gb

molecule  {
0 1
  O       -0.0000020    -0.6102900    -0.0000420
  C        0.9363500     0.4141040    -0.4566330
  C       -0.9363370     0.4140910     0.4566200
  C        0.0121919     1.5283268    -0.0059482
  C        2.2717190     0.2897090     0.2433650
  C       -2.2717330     0.2897190    -0.2433270
  C        2.9423460    -1.0479970    -0.0522250
  C       -2.9423440    -1.0480000     0.0522380
  H        1.0693000     0.3446630    -1.5460730
  H       -1.0692400     0.3446160     1.5460640
  H        0.4022720     2.1756970     0.7958000
  H       -0.4022820     2.1756850    -0.7958090
  H        2.1021510     0.3966190     1.3216110
  H        2.9117530     1.1256360    -0.0698640
  H       -2.1022070     0.3966710    -1.3215760
  H       -2.9117580     1.1256310     0.0699580
  H        2.2845910    -1.8662570     0.2495040
  H        3.1497060    -1.1530710    -1.1218230
  H        3.8888820    -1.1460650     0.4866090
  H       -3.1496440    -1.1531250     1.1218420
  H       -3.8889120    -1.1460430    -0.4865470
  H       -2.2846070    -1.8662470    -0.2495670
units angstrom
no_reorient  #important for SAPT in psi4, default
symmetry c1  #important for SAPT in psi4, default
}

set PROPERTIES_ORIGIN ["COM"]
properties('MP2/aug-cc-pvtz', properties = ['dipole'])
--------------------------------------------------------------------------

    Molecular point group: c1
  Charge       = 0
  Multiplicity = 1
  Basis Set: AUG-CC-PVTZ
    Blend: AUG-CC-PVTZ
  Basis Set: (AUG-CC-PVTZ AUX)
    Blend: AUG-CC-PVTZ-JKFIT

    Orbital Energies [Eh]
    ---------------------

    Doubly Occupied:

       1A    -20.537823     2A    -11.276577     3A    -11.275856
       4A    -11.224562     5A    -11.218916     6A    -11.218833
       7A    -11.207489     8A    -11.207318     9A     -1.366030
      10A     -1.060080    11A     -1.047886    12A     -0.995270
      13A     -0.913821    14A     -0.846925    15A     -0.805487
      16A     -0.734876    17A     -0.671838    18A     -0.665893
      19A     -0.607517    20A     -0.601757    21A     -0.585339
      22A     -0.559039    23A     -0.550727    24A     -0.521114
      25A     -0.519586    26A     -0.498300    27A     -0.492082
      28A     -0.480717    29A     -0.480435    30A     -0.446469
      31A     -0.434846    32A     -0.401130

  @DF-RHF Final Energy:  -348.18588813990073

   => Energetics <=

    Nuclear Repulsion Energy =            399.8165609603734083
    One-Electron Energy =               -1265.0958257896745636
    Two-Electron Energy =                 517.0933766894004293
    Total Energy =                       -348.1858881399007259
  Basis Set: (AUG-CC-PVTZ AUX)
    Blend: AUG-CC-PVTZ-RI
    Molecular point group: c1

    Geometry (in Angstrom), charge = 0, multiplicity = 1:

       Center              X                  Y                   Z               Mass
    ------------   -----------------  -----------------  -----------------  -----------------
         O           -0.001284051927    -0.610906850595     0.000584304825    15.994914619570
         C            0.935067948073     0.413487149405    -0.456006695175    12.000000000000
         C           -0.937619051927     0.413474149405     0.457246304825    12.000000000000
         C            0.010909848073     1.527709949405    -0.005321895175    12.000000000000
         C            2.270436948073     0.289092149405     0.243991304825    12.000000000000
         C           -2.273015051927     0.289102149405    -0.242700695175    12.000000000000
         C            2.941063948073    -1.048613850595    -0.051598695175    12.000000000000
         C           -2.943626051927    -1.048616850595     0.052864304825    12.000000000000
         H            1.068017948073     0.344046149405    -1.545446695175     1.007825032230
         H           -1.070522051927     0.343999149405     1.546690304825     1.007825032230
         H            0.400989948073     2.175080149405     0.796426304825     1.007825032230
         H           -0.403564051927     2.175068149405    -0.795182695175     1.007825032230
         H            2.100868948073     0.396002149405     1.322237304825     1.007825032230
         H            2.910470948073     1.125019149405    -0.069237695175     1.007825032230
         H           -2.103489051927     0.396054149405    -1.320949695175     1.007825032230
         H           -2.913040051927     1.125014149405     0.070584304825     1.007825032230
         H            2.283308948073    -1.866873850595     0.250130304825     1.007825032230
         H            3.148423948073    -1.153687850595    -1.121196695175     1.007825032230
         H            3.887599948073    -1.146681850595     0.487235304825     1.007825032230
         H           -3.150926051927    -1.153741850595     1.122468304825     1.007825032230
         H           -3.890194051927    -1.146659850595    -0.485920695175     1.007825032230
         H           -2.285889051927    -1.866863850595    -0.248940695175     1.007825032230

  Basis Set: AUG-CC-PVTZ
    Blend: AUG-CC-PVTZ
  Basis Set: (AUG-CC-PVTZ AUX)
    Blend: AUG-CC-PVTZ-JKFIT
	 Reference Energy          =    -348.1858881399007259 [Eh]
	 Singles Energy            =      -0.0000000000000000 [Eh]
	 Same-Spin Energy          =      -0.3609999587092737 [Eh]
	 Opposite-Spin Energy      =      -1.2615037686634860 [Eh]
	 Correlation Energy        =      -1.6225037273727598 [Eh]
	 Total Energy              =    -349.8083918672734853 [Eh]

	 ================> DF-SCS-MP2 Energies <==================
	-----------------------------------------------------------
	 SCS Same-Spin Scale       =       0.3333333333333333 [-]
	 SCS Opposite-Spin Scale   =       1.2000000000000000 [-]
	 SCS Same-Spin Energy      =      -0.1203333195697579 [Eh]
	 SCS Opposite-Spin Energy  =      -1.5138045223961831 [Eh]
	 SCS Correlation Energy    =      -1.6341378419659409 [Eh]
	 SCS Total Energy          =    -349.8200259818666495 [Eh]
	-----------------------------------------------------------

  Dipole Moment: [D]
     X:    -0.0111      Y:     1.7068      Z:     0.0022     Total:     1.7068

*** Psi4 exiting successfully. Buy a developer a beer!
