                               Psi4 1.4a3.dev225

  ==> Input File <==

--------------------------------------------------------------------------
#psi4
#
memory 32 gb

molecule  {
0 1
  O       -0.0000020    -0.6102900    -0.0000420
  C        0.9363500     0.4141040    -0.4566330
  C       -0.8920112     0.4274472     0.3617146
  C        0.0000010     1.5430250    -0.0000030
  C        2.2717190     0.2897090     0.2433650
  C       -2.2717330     0.2897190    -0.2433270
  C        2.9423460    -1.0479970    -0.0522250
  C       -2.9423440    -1.0480000     0.0522380
  H        1.0693000     0.3446630    -1.5460730
  H       -1.0692400     0.3446160     1.5460640
  H        0.4022720     2.1756970     0.7958000
  H       -0.4022820     2.1756850    -0.7958090
  H        2.1021510     0.3966190     1.3216110
  H        2.9117530     1.1256360    -0.0698640
  H       -2.1022070     0.3966710    -1.3215760
  H       -2.9117580     1.1256310     0.0699580
  H        2.2845910    -1.8662570     0.2495040
  H        3.1497060    -1.1530710    -1.1218230
  H        3.8888820    -1.1460650     0.4866090
  H       -3.1496440    -1.1531250     1.1218420
  H       -3.8889120    -1.1460430    -0.4865470
  H       -2.2846070    -1.8662470    -0.2495670
units angstrom
no_reorient  #important for SAPT in psi4, default
symmetry c1  #important for SAPT in psi4, default
}

set PROPERTIES_ORIGIN ["COM"]
properties('MP2/aug-cc-pvtz', properties = ['dipole'])
--------------------------------------------------------------------------

    Molecular point group: c1
  Charge       = 0
  Multiplicity = 1
  Basis Set: AUG-CC-PVTZ
    Blend: AUG-CC-PVTZ
  Basis Set: (AUG-CC-PVTZ AUX)
    Blend: AUG-CC-PVTZ-JKFIT

    Orbital Energies [Eh]
    ---------------------

    Doubly Occupied:

       1A    -20.543020     2A    -11.282173     3A    -11.280792
       4A    -11.222197     5A    -11.221134     6A    -11.218414
       7A    -11.209258     8A    -11.207749     9A     -1.386984
      10A     -1.060747    11A     -1.053084    12A     -1.004424
      13A     -0.913271    14A     -0.849563    15A     -0.803251
      16A     -0.731047    17A     -0.678134    18A     -0.667855
      19A     -0.616343    20A     -0.604568    21A     -0.586193
      22A     -0.555988    23A     -0.551453    24A     -0.526992
      25A     -0.523025    26A     -0.497866    27A     -0.496568
      28A     -0.483542    29A     -0.474081    30A     -0.461454
      31A     -0.431436    32A     -0.388977

  @DF-RHF Final Energy:  -348.17386861545015

   => Energetics <=

    Nuclear Repulsion Energy =            400.9071078573642808
    One-Electron Energy =               -1267.0987844174644579
    Two-Electron Energy =                 518.0178079446500305
    Total Energy =                       -348.1738686154501465
  Basis Set: (AUG-CC-PVTZ AUX)
    Blend: AUG-CC-PVTZ-RI
    Molecular point group: c1

    Geometry (in Angstrom), charge = 0, multiplicity = 1:

       Center              X                  Y                   Z               Mass
    ------------   -----------------  -----------------  -----------------  -----------------
         O           -0.004663576118    -0.613857241711     0.009939963250    15.994914619570
         C            0.931688423882     0.410536758289    -0.446651036750    12.000000000000
         C           -0.896672776118     0.423879958289     0.371696563250    12.000000000000
         C           -0.004660576118     1.539457758289     0.009978963250    12.000000000000
         C            2.267057423882     0.286141758289     0.253346963250    12.000000000000
         C           -2.276394576118     0.286151758289    -0.233345036750    12.000000000000
         C            2.937684423882    -1.051564241711    -0.042243036750    12.000000000000
         C           -2.947005576118    -1.051567241711     0.062219963250    12.000000000000
         H            1.064638423882     0.341095758289    -1.536091036750     1.007825032230
         H           -1.073901576118     0.341048758289     1.556045963250     1.007825032230
         H            0.397610423882     2.172129758289     0.805781963250     1.007825032230
         H           -0.406943576118     2.172117758289    -0.785827036750     1.007825032230
         H            2.097489423882     0.393051758289     1.331592963250     1.007825032230
         H            2.907091423882     1.122068758289    -0.059882036750     1.007825032230
         H           -2.106868576118     0.393103758289    -1.311594036750     1.007825032230
         H           -2.916419576118     1.122063758289     0.079939963250     1.007825032230
         H            2.279929423882    -1.869824241711     0.259485963250     1.007825032230
         H            3.145044423882    -1.156638241711    -1.111841036750     1.007825032230
         H            3.884220423882    -1.149632241711     0.496590963250     1.007825032230
         H           -3.154305576118    -1.156692241711     1.131823963250     1.007825032230
         H           -3.893573576118    -1.149610241711    -0.476565036750     1.007825032230
         H           -2.289268576118    -1.869814241711    -0.239585036750     1.007825032230

  Basis Set: AUG-CC-PVTZ
    Blend: AUG-CC-PVTZ
  Basis Set: (AUG-CC-PVTZ AUX)
    Blend: AUG-CC-PVTZ-JKFIT
	 Reference Energy          =    -348.1738686154501465 [Eh]
	 Singles Energy            =      -0.0000000000000000 [Eh]
	 Same-Spin Energy          =      -0.3616813858709392 [Eh]
	 Opposite-Spin Energy      =      -1.2617221924790814 [Eh]
	 Correlation Energy        =      -1.6234035783500205 [Eh]
	 Total Energy              =    -349.7972721938001541 [Eh]

	 ================> DF-SCS-MP2 Energies <==================
	-----------------------------------------------------------
	 SCS Same-Spin Scale       =       0.3333333333333333 [-]
	 SCS Opposite-Spin Scale   =       1.2000000000000000 [-]
	 SCS Same-Spin Energy      =      -0.1205604619569797 [Eh]
	 SCS Opposite-Spin Energy  =      -1.5140666309748976 [Eh]
	 SCS Correlation Energy    =      -1.6346270929318774 [Eh]
	 SCS Total Energy          =    -349.8084957083819972 [Eh]
	-----------------------------------------------------------

  Dipole Moment: [D]
     X:     0.2369      Y:     1.6772      Z:    -0.2071     Total:     1.7065

*** Psi4 exiting successfully. Buy a developer a beer!
