                               Psi4 1.4a3.dev225

  ==> Input File <==

--------------------------------------------------------------------------
#psi4
#
memory 32 gb

molecule  {
0 1
  O       -0.0000020    -0.6102900    -0.0000420
  C        0.9363500     0.4141040    -0.4566330
  C       -0.9363370     0.4140910     0.4566200
  C        0.0000010     1.5430250    -0.0000030
  C        2.2717190     0.2897090     0.2433650
  C       -2.2717330     0.2897190    -0.2433270
  C        2.9423460    -1.0479970    -0.0522250
  C       -2.9423440    -1.0480000     0.0522380
  H        1.0693000     0.3446630    -1.5460730
  H       -1.0692400     0.3446160     1.5460640
  H        0.4022720     2.1756970     0.7958000
  H       -0.4022820     2.1756850    -0.7958090
  H        2.1021510     0.3966190     1.3216110
  H        2.9117530     1.1256360    -0.0698640
  H       -2.1022070     0.3966710    -1.3215760
  H       -2.9117580     1.1256310     0.0699580
  H        2.2845910    -1.8662570     0.2495040
  H        3.1497060    -1.1530710    -1.1218230
  H        3.8888820    -1.1460650     0.4866090
  H       -3.1054978    -1.2154783     1.1215411
  H       -3.8889120    -1.1460430    -0.4865470
  H       -2.2846070    -1.8662470    -0.2495670
units angstrom
no_reorient  #important for SAPT in psi4, default
symmetry c1  #important for SAPT in psi4, default
}

set PROPERTIES_ORIGIN ["COM"]
properties('MP2/aug-cc-pvtz', properties = ['dipole'])
--------------------------------------------------------------------------

    Molecular point group: c1
  Charge       = 0
  Multiplicity = 1
  Basis Set: AUG-CC-PVTZ
    Blend: AUG-CC-PVTZ
  Basis Set: (AUG-CC-PVTZ AUX)
    Blend: AUG-CC-PVTZ-JKFIT

    Orbital Energies [Eh]
    ---------------------

    Doubly Occupied:

       1A    -20.538088     2A    -11.277088     3A    -11.277025
       4A    -11.224111     5A    -11.219345     6A    -11.218862
       7A    -11.207385     8A    -11.207147     9A     -1.365029
      10A     -1.059703    11A     -1.047347    12A     -0.994167
      13A     -0.913222    14A     -0.847561    15A     -0.805543
      16A     -0.736214    17A     -0.671676    18A     -0.665010
      19A     -0.607639    20A     -0.600267    21A     -0.583778
      22A     -0.559750    23A     -0.551144    24A     -0.522008
      25A     -0.521667    26A     -0.500797    27A     -0.491062
      28A     -0.481306    29A     -0.478174    30A     -0.446102
      31A     -0.432508    32A     -0.401712

  @DF-RHF Final Energy:  -348.18582008611287

   => Energetics <=

    Nuclear Repulsion Energy =            399.5182864849635962
    One-Electron Energy =               -1264.5033422268581944
    Two-Electron Energy =                 516.7992356557816720
    Total Energy =                       -348.1858200861129262
  Basis Set: (AUG-CC-PVTZ AUX)
    Blend: AUG-CC-PVTZ-RI
    Molecular point group: c1

    Geometry (in Angstrom), charge = 0, multiplicity = 1:

       Center              X                  Y                   Z               Mass
    ------------   -----------------  -----------------  -----------------  -----------------
         O           -0.000391894424    -0.611901878996    -0.000038275067    15.994914619570
         C            0.935960105576     0.412492121004    -0.456629275067    12.000000000000
         C           -0.936726894424     0.412479121004     0.456623724933    12.000000000000
         C           -0.000388894424     1.541413121004     0.000000724933    12.000000000000
         C            2.271329105576     0.288097121004     0.243368724933    12.000000000000
         C           -2.272122894424     0.288107121004    -0.243323275067    12.000000000000
         C            2.941956105576    -1.049608878996    -0.052221275067    12.000000000000
         C           -2.942733894424    -1.049611878996     0.052241724933    12.000000000000
         H            1.068910105576     0.343051121004    -1.546069275067     1.007825032230
         H           -1.069629894424     0.343004121004     1.546067724933     1.007825032230
         H            0.401882105576     2.174085121004     0.795803724933     1.007825032230
         H           -0.402671894424     2.174073121004    -0.795805275067     1.007825032230
         H            2.101761105576     0.395007121004     1.321614724933     1.007825032230
         H            2.911363105576     1.124024121004    -0.069860275067     1.007825032230
         H           -2.102596894424     0.395059121004    -1.321572275067     1.007825032230
         H           -2.912147894424     1.124019121004     0.069961724933     1.007825032230
         H            2.284201105576    -1.867868878996     0.249507724933     1.007825032230
         H            3.149316105576    -1.154682878996    -1.121819275067     1.007825032230
         H            3.888492105576    -1.147676878996     0.486612724933     1.007825032230
         H           -3.105887694424    -1.217090178996     1.121544824933     1.007825032230
         H           -3.889301894424    -1.147654878996    -0.486543275067     1.007825032230
         H           -2.284996894424    -1.867858878996    -0.249563275067     1.007825032230

  Basis Set: AUG-CC-PVTZ
    Blend: AUG-CC-PVTZ
  Basis Set: (AUG-CC-PVTZ AUX)
    Blend: AUG-CC-PVTZ-JKFIT
	 Reference Energy          =    -348.1858200861128694 [Eh]
	 Singles Energy            =      -0.0000000000000000 [Eh]
	 Same-Spin Energy          =      -0.3609417567556822 [Eh]
	 Opposite-Spin Energy      =      -1.2614734171606377 [Eh]
	 Correlation Energy        =      -1.6224151739163197 [Eh]
	 Total Energy              =    -349.8082352600291642 [Eh]

	 ================> DF-SCS-MP2 Energies <==================
	-----------------------------------------------------------
	 SCS Same-Spin Scale       =       0.3333333333333333 [-]
	 SCS Opposite-Spin Scale   =       1.2000000000000000 [-]
	 SCS Same-Spin Energy      =      -0.1203139189185607 [Eh]
	 SCS Opposite-Spin Energy  =      -1.5137681005927652 [Eh]
	 SCS Correlation Energy    =      -1.6340820195113259 [Eh]
	 SCS Total Energy          =    -349.8199021056241804 [Eh]
	-----------------------------------------------------------

  Dipole Moment: [D]
     X:     0.0181      Y:     1.6943      Z:     0.0021     Total:     1.6944

*** Psi4 exiting successfully. Buy a developer a beer!
