                               Psi4 1.4a3.dev225

  ==> Input File <==

--------------------------------------------------------------------------
#psi4
#
memory 32 gb

molecule  {
0 1
  O       -0.0000020    -0.6102900    -0.0000420
  C        0.9204244     0.3701556    -0.4320704
  C       -0.9363370     0.4140910     0.4566200
  C        0.0000010     1.5430250    -0.0000030
  C        2.2717190     0.2897090     0.2433650
  C       -2.2717330     0.2897190    -0.2433270
  C        2.9423460    -1.0479970    -0.0522250
  C       -2.9423440    -1.0480000     0.0522380
  H        1.0693000     0.3446630    -1.5460730
  H       -1.0692400     0.3446160     1.5460640
  H        0.4022720     2.1756970     0.7958000
  H       -0.4022820     2.1756850    -0.7958090
  H        2.1021510     0.3966190     1.3216110
  H        2.9117530     1.1256360    -0.0698640
  H       -2.1022070     0.3966710    -1.3215760
  H       -2.9117580     1.1256310     0.0699580
  H        2.2845910    -1.8662570     0.2495040
  H        3.1497060    -1.1530710    -1.1218230
  H        3.8888820    -1.1460650     0.4866090
  H       -3.1496440    -1.1531250     1.1218420
  H       -3.8889120    -1.1460430    -0.4865470
  H       -2.2846070    -1.8662470    -0.2495670
units angstrom
no_reorient  #important for SAPT in psi4, default
symmetry c1  #important for SAPT in psi4, default
}

set PROPERTIES_ORIGIN ["COM"]
properties('MP2/aug-cc-pvtz', properties = ['dipole'])
--------------------------------------------------------------------------

    Molecular point group: c1
  Charge       = 0
  Multiplicity = 1
  Basis Set: AUG-CC-PVTZ
    Blend: AUG-CC-PVTZ
  Basis Set: (AUG-CC-PVTZ AUX)
    Blend: AUG-CC-PVTZ-JKFIT

    Orbital Energies [Eh]
    ---------------------

    Doubly Occupied:

       1A    -20.542426     2A    -11.279588     3A    -11.277288
       4A    -11.222763     5A    -11.220222     6A    -11.217275
       7A    -11.208498     8A    -11.206412     9A     -1.382176
      10A     -1.061045    11A     -1.047181    12A     -0.992976
      13A     -0.913141    14A     -0.846544    15A     -0.806185
      16A     -0.734199    17A     -0.676707    18A     -0.667858
      19A     -0.610239    20A     -0.603434    21A     -0.582975
      22A     -0.557837    23A     -0.556490    24A     -0.525302
      25A     -0.521648    26A     -0.499699    27A     -0.492799
      28A     -0.482271    29A     -0.478495    30A     -0.452187
      31A     -0.423878    32A     -0.400099

  @DF-RHF Final Energy:  -348.18526830841995

   => Energetics <=

    Nuclear Repulsion Energy =            400.1658492088459980
    One-Electron Energy =               -1265.7225577720225829
    Two-Electron Energy =                 517.3714402547566351
    Total Energy =                       -348.1852683084199498
  Basis Set: (AUG-CC-PVTZ AUX)
    Blend: AUG-CC-PVTZ-RI
    Molecular point group: c1

    Geometry (in Angstrom), charge = 0, multiplicity = 1:

       Center              X                  Y                   Z               Mass
    ------------   -----------------  -----------------  -----------------  -----------------
         O            0.001672870046    -0.607830701035    -0.002624102487    15.994914619570
         C            0.922099270046     0.372614898965    -0.434652502487    12.000000000000
         C           -0.934662129954     0.416550298965     0.454037897513    12.000000000000
         C            0.001675870046     1.545484298965    -0.002585102487    12.000000000000
         C            2.273393870046     0.292168298965     0.240782897513    12.000000000000
         C           -2.270058129954     0.292178298965    -0.245909102487    12.000000000000
         C            2.944020870046    -1.045537701035    -0.054807102487    12.000000000000
         C           -2.940669129954    -1.045540701035     0.049655897513    12.000000000000
         H            1.070974870046     0.347122298965    -1.548655102487     1.007825032230
         H           -1.067565129954     0.347075298965     1.543481897513     1.007825032230
         H            0.403946870046     2.178156298965     0.793217897513     1.007825032230
         H           -0.400607129954     2.178144298965    -0.798391102487     1.007825032230
         H            2.103825870046     0.399078298965     1.319028897513     1.007825032230
         H            2.913427870046     1.128095298965    -0.072446102487     1.007825032230
         H           -2.100532129954     0.399130298965    -1.324158102487     1.007825032230
         H           -2.910083129954     1.128090298965     0.067375897513     1.007825032230
         H            2.286265870046    -1.863797701035     0.246921897513     1.007825032230
         H            3.151380870046    -1.150611701035    -1.124405102487     1.007825032230
         H            3.890556870046    -1.143605701035     0.484026897513     1.007825032230
         H           -3.147969129954    -1.150665701035     1.119259897513     1.007825032230
         H           -3.887237129954    -1.143583701035    -0.489129102487     1.007825032230
         H           -2.282932129954    -1.863787701035    -0.252149102487     1.007825032230

  Basis Set: AUG-CC-PVTZ
    Blend: AUG-CC-PVTZ
  Basis Set: (AUG-CC-PVTZ AUX)
    Blend: AUG-CC-PVTZ-JKFIT
	 Reference Energy          =    -348.1852683084199498 [Eh]
	 Singles Energy            =      -0.0000000000000000 [Eh]
	 Same-Spin Energy          =      -0.3607646715817303 [Eh]
	 Opposite-Spin Energy      =      -1.2606322658328395 [Eh]
	 Correlation Energy        =      -1.6213969374145698 [Eh]
	 Total Energy              =    -349.8066652458344947 [Eh]

	 ================> DF-SCS-MP2 Energies <==================
	-----------------------------------------------------------
	 SCS Same-Spin Scale       =       0.3333333333333333 [-]
	 SCS Opposite-Spin Scale   =       1.2000000000000000 [-]
	 SCS Same-Spin Energy      =      -0.1202548905272434 [Eh]
	 SCS Opposite-Spin Energy  =      -1.5127587189994074 [Eh]
	 SCS Correlation Energy    =      -1.6330136095266508 [Eh]
	 SCS Total Energy          =    -349.8182819179465923 [Eh]
	-----------------------------------------------------------

  Dipole Moment: [D]
     X:    -0.1362      Y:     1.6428      Z:     0.0724     Total:     1.6501

*** Psi4 exiting successfully. Buy a developer a beer!
