                               Psi4 1.4a3.dev225

  ==> Input File <==

--------------------------------------------------------------------------
#psi4
#
memory 32 gb

molecule  {
0 1
  O       -0.0000020    -0.6102900    -0.0000420
  C        0.9363500     0.4141040    -0.4566330
  C       -0.9363370     0.4140910     0.4566200
  C        0.0000010     1.5430250    -0.0000030
  C        2.2717190     0.2897090     0.2433650
  C       -2.2717330     0.2897190    -0.2433270
  C        2.9423460    -1.0479970    -0.0522250
  C       -2.9423440    -1.0480000     0.0522380
  H        1.0693000     0.3446630    -1.5460730
  H       -1.0692400     0.3446160     1.5460640
  H        0.4022720     2.1756970     0.7958000
  H       -0.4022820     2.1756850    -0.7958090
  H        2.1021510     0.3966190     1.3216110
  H        2.9117530     1.1256360    -0.0698640
  H       -2.1022070     0.3966710    -1.3215760
  H       -2.9408919     1.1636816     0.0842187
  H        2.2845910    -1.8662570     0.2495040
  H        3.1497060    -1.1530710    -1.1218230
  H        3.8888820    -1.1460650     0.4866090
  H       -3.1496440    -1.1531250     1.1218420
  H       -3.8889120    -1.1460430    -0.4865470
  H       -2.2846070    -1.8662470    -0.2495670
units angstrom
no_reorient  #important for SAPT in psi4, default
symmetry c1  #important for SAPT in psi4, default
}

set PROPERTIES_ORIGIN ["COM"]
properties('MP2/aug-cc-pvtz', properties = ['dipole'])
--------------------------------------------------------------------------

    Molecular point group: c1
  Charge       = 0
  Multiplicity = 1
  Basis Set: AUG-CC-PVTZ
    Blend: AUG-CC-PVTZ
  Basis Set: (AUG-CC-PVTZ AUX)
    Blend: AUG-CC-PVTZ-JKFIT

    Orbital Energies [Eh]
    ---------------------

    Doubly Occupied:

       1A    -20.538608     2A    -11.277505     3A    -11.277204
       4A    -11.225077     5A    -11.224166     6A    -11.218992
       7A    -11.207982     8A    -11.207501     9A     -1.365452
      10A     -1.059135    11A     -1.046687    12A     -0.994227
      13A     -0.913515    14A     -0.846188    15A     -0.803590
      16A     -0.735666    17A     -0.669841    18A     -0.665220
      19A     -0.607658    20A     -0.598976    21A     -0.584316
      22A     -0.559147    23A     -0.551782    24A     -0.522441
      25A     -0.521247    26A     -0.498675    27A     -0.490804
      28A     -0.480907    29A     -0.477317    30A     -0.446185
      31A     -0.432670    32A     -0.401991

  @DF-RHF Final Energy:  -348.18429619439763

   => Energetics <=

    Nuclear Repulsion Energy =            399.2778040025712585
    One-Electron Energy =               -1264.0228575855878717
    Two-Electron Energy =                 516.5607573886189812
    Total Energy =                       -348.1842961943976889
  Basis Set: (AUG-CC-PVTZ AUX)
    Blend: AUG-CC-PVTZ-RI
    Molecular point group: c1

    Geometry (in Angstrom), charge = 0, multiplicity = 1:

       Center              X                  Y                   Z               Mass
    ------------   -----------------  -----------------  -----------------  -----------------
         O            0.000255350353    -0.612788694106    -0.000166890060    15.994914619570
         C            0.936607350353     0.411605305894    -0.456757890060    12.000000000000
         C           -0.936079649647     0.411592305894     0.456495109940    12.000000000000
         C            0.000258350353     1.540526305894    -0.000127890060    12.000000000000
         C            2.271976350353     0.287210305894     0.243240109940    12.000000000000
         C           -2.271475649647     0.287220305894    -0.243451890060    12.000000000000
         C            2.942603350353    -1.050495694106    -0.052349890060    12.000000000000
         C           -2.942086649647    -1.050498694106     0.052113109940    12.000000000000
         H            1.069557350353     0.342164305894    -1.546197890060     1.007825032230
         H           -1.068982649647     0.342117305894     1.545939109940     1.007825032230
         H            0.402529350353     2.173198305894     0.795675109940     1.007825032230
         H           -0.402024649647     2.173186305894    -0.795933890060     1.007825032230
         H            2.102408350353     0.394120305894     1.321486109940     1.007825032230
         H            2.912010350353     1.123137305894    -0.069988890060     1.007825032230
         H           -2.101949649647     0.394172305894    -1.321700890060     1.007825032230
         H           -2.940634549647     1.161182905894     0.084093809940     1.007825032230
         H            2.284848350353    -1.868755694106     0.249379109940     1.007825032230
         H            3.149963350353    -1.155569694106    -1.121947890060     1.007825032230
         H            3.889139350353    -1.148563694106     0.486484109940     1.007825032230
         H           -3.149386649647    -1.155623694106     1.121717109940     1.007825032230
         H           -3.888654649647    -1.148541694106    -0.486671890060     1.007825032230
         H           -2.284349649647    -1.868745694106    -0.249691890060     1.007825032230

  Basis Set: AUG-CC-PVTZ
    Blend: AUG-CC-PVTZ
  Basis Set: (AUG-CC-PVTZ AUX)
    Blend: AUG-CC-PVTZ-JKFIT
	 Reference Energy          =    -348.1842961943976320 [Eh]
	 Singles Energy            =      -0.0000000000000000 [Eh]
	 Same-Spin Energy          =      -0.3609211190220555 [Eh]
	 Opposite-Spin Energy      =      -1.2618097740645051 [Eh]
	 Correlation Energy        =      -1.6227308930865607 [Eh]
	 Total Energy              =    -349.8070270874841867 [Eh]

	 ================> DF-SCS-MP2 Energies <==================
	-----------------------------------------------------------
	 SCS Same-Spin Scale       =       0.3333333333333333 [-]
	 SCS Opposite-Spin Scale   =       1.2000000000000000 [-]
	 SCS Same-Spin Energy      =      -0.1203070396740185 [Eh]
	 SCS Opposite-Spin Energy  =      -1.5141717288774061 [Eh]
	 SCS Correlation Energy    =      -1.6344787685514246 [Eh]
	 SCS Total Energy          =    -349.8187749629490781 [Eh]
	-----------------------------------------------------------

  Dipole Moment: [D]
     X:     0.0232      Y:     1.6750      Z:    -0.0058     Total:     1.6751

*** Psi4 exiting successfully. Buy a developer a beer!
