                               Psi4 1.4a3.dev225

  ==> Input File <==

--------------------------------------------------------------------------
#psi4
#
memory 32 gb

molecule  {
0 1
  O       -0.0000020    -0.6102900    -0.0000420
  C        0.9363500     0.4141040    -0.4566330
  C       -0.9363370     0.4140910     0.4566200
  C        0.0000010     1.5430250    -0.0000030
  C        2.2717190     0.2897090     0.2433650
  C       -2.2717330     0.2897190    -0.2433270
  C        2.9423460    -1.0479970    -0.0522250
  C       -2.9423440    -1.0480000     0.0522380
  H        1.0693000     0.3446630    -1.5460730
  H       -1.0692400     0.3446160     1.5460640
  H        0.4022720     2.1756970     0.7958000
  H       -0.4022820     2.1756850    -0.7958090
  H        2.1021510     0.3966190     1.3216110
  H        2.9117530     1.1256360    -0.0698640
  H       -2.1022070     0.3966710    -1.3215760
  H       -3.0282935     1.2778335     0.1270008
  H        2.2845910    -1.8662570     0.2495040
  H        3.1497060    -1.1530710    -1.1218230
  H        3.8888820    -1.1460650     0.4866090
  H       -3.1496440    -1.1531250     1.1218420
  H       -3.8889120    -1.1460430    -0.4865470
  H       -2.2846070    -1.8662470    -0.2495670
units angstrom
no_reorient  #important for SAPT in psi4, default
symmetry c1  #important for SAPT in psi4, default
}

set PROPERTIES_ORIGIN ["COM"]
properties('MP2/aug-cc-pvtz', properties = ['dipole'])
--------------------------------------------------------------------------

    Molecular point group: c1
  Charge       = 0
  Multiplicity = 1
  Basis Set: AUG-CC-PVTZ
    Blend: AUG-CC-PVTZ
  Basis Set: (AUG-CC-PVTZ AUX)
    Blend: AUG-CC-PVTZ-JKFIT

    Orbital Energies [Eh]
    ---------------------

    Doubly Occupied:

       1A    -20.540586     2A    -11.279412     3A    -11.278040
       4A    -11.242675     5A    -11.224643     6A    -11.219625
       7A    -11.210277     8A    -11.208065     9A     -1.367148
      10A     -1.058738    11A     -1.045461    12A     -0.994747
      13A     -0.914760    14A     -0.844914    15A     -0.800771
      16A     -0.735435    17A     -0.666632    18A     -0.665777
      19A     -0.608747    20A     -0.592550    21A     -0.584906
      22A     -0.560298    23A     -0.552182    24A     -0.523497
      25A     -0.522008    26A     -0.500040    27A     -0.490171
      28A     -0.482136    29A     -0.464479    30A     -0.444823
      31A     -0.433451    32A     -0.403184

  @DF-RHF Final Energy:  -348.16692985551117

   => Energetics <=

    Nuclear Repulsion Energy =            398.6347466858187545
    One-Electron Energy =               -1262.6830007923751964
    Two-Electron Energy =                 515.8813242510452710
    Total Energy =                       -348.1669298555111709
  Basis Set: (AUG-CC-PVTZ AUX)
    Blend: AUG-CC-PVTZ-RI
    Molecular point group: c1

    Geometry (in Angstrom), charge = 0, multiplicity = 1:

       Center              X                  Y                   Z               Mass
    ------------   -----------------  -----------------  -----------------  -----------------
         O            0.001027322951    -0.613796938106    -0.000544761962    15.994914619570
         C            0.937379322951     0.410597061894    -0.457135761962    12.000000000000
         C           -0.935307677049     0.410584061894     0.456117238038    12.000000000000
         C            0.001030322951     1.539518061894    -0.000505761962    12.000000000000
         C            2.272748322951     0.286202061894     0.242862238038    12.000000000000
         C           -2.270703677049     0.286212061894    -0.243829761962    12.000000000000
         C            2.943375322951    -1.051503938106    -0.052727761962    12.000000000000
         C           -2.941314677049    -1.051506938106     0.051735238038    12.000000000000
         H            1.070329322951     0.341156061894    -1.546575761962     1.007825032230
         H           -1.068210677049     0.341109061894     1.545561238038     1.007825032230
         H            0.403301322951     2.172190061894     0.795297238038     1.007825032230
         H           -0.401252677049     2.172178061894    -0.796311761962     1.007825032230
         H            2.103180322951     0.393112061894     1.321108238038     1.007825032230
         H            2.912782322951     1.122129061894    -0.070366761962     1.007825032230
         H           -2.101177677049     0.393164061894    -1.322078761962     1.007825032230
         H           -3.027264177049     1.274326561894     0.126498038038     1.007825032230
         H            2.285620322951    -1.869763938106     0.249001238038     1.007825032230
         H            3.150735322951    -1.156577938106    -1.122325761962     1.007825032230
         H            3.889911322951    -1.149571938106     0.486106238038     1.007825032230
         H           -3.148614677049    -1.156631938106     1.121339238038     1.007825032230
         H           -3.887882677049    -1.149549938106    -0.487049761962     1.007825032230
         H           -2.283577677049    -1.869753938106    -0.250069761962     1.007825032230

  Basis Set: AUG-CC-PVTZ
    Blend: AUG-CC-PVTZ
  Basis Set: (AUG-CC-PVTZ AUX)
    Blend: AUG-CC-PVTZ-JKFIT
	 Reference Energy          =    -348.1669298555111709 [Eh]
	 Singles Energy            =      -0.0000000000000000 [Eh]
	 Same-Spin Energy          =      -0.3609070271426573 [Eh]
	 Opposite-Spin Energy      =      -1.2630205883385117 [Eh]
	 Correlation Energy        =      -1.6239276154811690 [Eh]
	 Total Energy              =    -349.7908574709923641 [Eh]

	 ================> DF-SCS-MP2 Energies <==================
	-----------------------------------------------------------
	 SCS Same-Spin Scale       =       0.3333333333333333 [-]
	 SCS Opposite-Spin Scale   =       1.2000000000000000 [-]
	 SCS Same-Spin Energy      =      -0.1203023423808857 [Eh]
	 SCS Opposite-Spin Energy  =      -1.5156247060062140 [Eh]
	 SCS Correlation Energy    =      -1.6359270483870998 [Eh]
	 SCS Total Energy          =    -349.8028569038982596 [Eh]
	-----------------------------------------------------------

  Dipole Moment: [D]
     X:     0.1126      Y:     1.5566      Z:    -0.0283     Total:     1.5609

*** Psi4 exiting successfully. Buy a developer a beer!
