                               Psi4 1.4a3.dev225

  ==> Input File <==

--------------------------------------------------------------------------
#psi4
#
memory 32 gb

molecule  {
0 1
  O       -0.0000020    -0.6102900    -0.0000420
  C        0.9363500     0.4141040    -0.4566330
  C       -0.9363370     0.4140910     0.4566200
  C        0.0000010     1.5430250    -0.0000030
  C        2.2717190     0.2897090     0.2433650
  C       -2.2717330     0.2897190    -0.2433270
  C        2.9423460    -1.0479970    -0.0522250
  C       -2.9423440    -1.0480000     0.0522380
  H        1.0693000     0.3446630    -1.5460730
  H       -1.0692400     0.3446160     1.5460640
  H        0.4022720     2.1756970     0.7958000
  H       -0.4022820     2.1756850    -0.7958090
  H        2.1021510     0.3966190     1.3216110
  H        2.9117530     1.1256360    -0.0698640
  H       -2.1022070     0.3966710    -1.3215760
  H       -2.9117580     1.1256310     0.0699580
  H        2.2845910    -1.8662570     0.2495040
  H        3.1402338    -1.1482712    -1.0729636
  H        3.8888820    -1.1460650     0.4866090
  H       -3.1496440    -1.1531250     1.1218420
  H       -3.8889120    -1.1460430    -0.4865470
  H       -2.2846070    -1.8662470    -0.2495670
units angstrom
no_reorient  #important for SAPT in psi4, default
symmetry c1  #important for SAPT in psi4, default
}

set PROPERTIES_ORIGIN ["COM"]
properties('MP2/aug-cc-pvtz', properties = ['dipole'])
--------------------------------------------------------------------------

    Molecular point group: c1
  Charge       = 0
  Multiplicity = 1
  Basis Set: AUG-CC-PVTZ
    Blend: AUG-CC-PVTZ
  Basis Set: (AUG-CC-PVTZ AUX)
    Blend: AUG-CC-PVTZ-JKFIT

    Orbital Energies [Eh]
    ---------------------

    Doubly Occupied:

       1A    -20.537964     2A    -11.276901     3A    -11.276897
       4A    -11.223972     5A    -11.218772     6A    -11.218233
       7A    -11.207311     8A    -11.200955     9A     -1.364886
      10A     -1.060191    11A     -1.047688    12A     -0.994861
      13A     -0.914862    14A     -0.848864    15A     -0.805804
      16A     -0.736175    17A     -0.671551    18A     -0.664911
      19A     -0.609087    20A     -0.601878    21A     -0.584726
      22A     -0.561159    23A     -0.551510    24A     -0.522161
      25A     -0.521005    26A     -0.500663    27A     -0.491725
      28A     -0.482461    29A     -0.480240    30A     -0.446086
      31A     -0.432219    32A     -0.401502

  @DF-RHF Final Energy:  -348.18529528498624

   => Energetics <=

    Nuclear Repulsion Energy =            399.7303043488519165
    One-Electron Energy =               -1264.9167637725936402
    Two-Electron Energy =                 517.0011641387554846
    Total Energy =                       -348.1852952849862959
  Basis Set: (AUG-CC-PVTZ AUX)
    Blend: AUG-CC-PVTZ-RI
    Molecular point group: c1

    Geometry (in Angstrom), charge = 0, multiplicity = 1:

       Center              X                  Y                   Z               Mass
    ------------   -----------------  -----------------  -----------------  -----------------
         O            0.000081688846    -0.612495007189    -0.000472482272    15.994914619570
         C            0.936433688846     0.411898992811    -0.457063482272    12.000000000000
         C           -0.936253311154     0.411885992811     0.456189517728    12.000000000000
         C            0.000084688846     1.540819992811    -0.000433482272    12.000000000000
         C            2.271802688846     0.287503992811     0.242934517728    12.000000000000
         C           -2.271649311154     0.287513992811    -0.243757482272    12.000000000000
         C            2.942429688846    -1.050202007189    -0.052655482272    12.000000000000
         C           -2.942260311154    -1.050205007189     0.051807517728    12.000000000000
         H            1.069383688846     0.342457992811    -1.546503482272     1.007825032230
         H           -1.069156311154     0.342410992811     1.545633517728     1.007825032230
         H            0.402355688846     2.173491992811     0.795369517728     1.007825032230
         H           -0.402198311154     2.173479992811    -0.796239482272     1.007825032230
         H            2.102234688846     0.394413992811     1.321180517728     1.007825032230
         H            2.911836688846     1.123430992811    -0.070294482272     1.007825032230
         H           -2.102123311154     0.394465992811    -1.322006482272     1.007825032230
         H           -2.911674311154     1.123425992811     0.069527517728     1.007825032230
         H            2.284674688846    -1.868462007189     0.249073517728     1.007825032230
         H            3.140317488846    -1.150476207189    -1.073394082272     1.007825032230
         H            3.888965688846    -1.148270007189     0.486178517728     1.007825032230
         H           -3.149560311154    -1.155330007189     1.121411517728     1.007825032230
         H           -3.888828311154    -1.148248007189    -0.486977482272     1.007825032230
         H           -2.284523311154    -1.868452007189    -0.249997482272     1.007825032230

  Basis Set: AUG-CC-PVTZ
    Blend: AUG-CC-PVTZ
  Basis Set: (AUG-CC-PVTZ AUX)
    Blend: AUG-CC-PVTZ-JKFIT
	 Reference Energy          =    -348.1852952849862390 [Eh]
	 Singles Energy            =      -0.0000000000000000 [Eh]
	 Same-Spin Energy          =      -0.3609580214817066 [Eh]
	 Opposite-Spin Energy      =      -1.2612329800145443 [Eh]
	 Correlation Energy        =      -1.6221910014962511 [Eh]
	 Total Energy              =    -349.8074862864825150 [Eh]

	 ================> DF-SCS-MP2 Energies <==================
	-----------------------------------------------------------
	 SCS Same-Spin Scale       =       0.3333333333333333 [-]
	 SCS Opposite-Spin Scale   =       1.2000000000000000 [-]
	 SCS Same-Spin Energy      =      -0.1203193404939022 [Eh]
	 SCS Opposite-Spin Energy  =      -1.5134795760174531 [Eh]
	 SCS Correlation Energy    =      -1.6337989165113553 [Eh]
	 SCS Total Energy          =    -349.8190942014975917 [Eh]
	-----------------------------------------------------------

  Dipole Moment: [D]
     X:     0.0113      Y:     1.6976      Z:    -0.0289     Total:     1.6979

*** Psi4 exiting successfully. Buy a developer a beer!
