                               Psi4 1.4a3.dev225

  ==> Input File <==

--------------------------------------------------------------------------
#psi4
#
memory 32 gb

molecule  {
0 1
  O       -0.0000020    -0.6102900    -0.0000420
  C        0.9363500     0.4141040    -0.4566330
  C       -1.0149481     0.3929418     0.5924442
  C        0.0000010     1.5430250    -0.0000030
  C        2.2717190     0.2897090     0.2433650
  C       -2.2717330     0.2897190    -0.2433270
  C        2.9423460    -1.0479970    -0.0522250
  C       -2.9423440    -1.0480000     0.0522380
  H        1.0693000     0.3446630    -1.5460730
  H       -1.0692400     0.3446160     1.5460640
  H        0.4022720     2.1756970     0.7958000
  H       -0.4022820     2.1756850    -0.7958090
  H        2.1021510     0.3966190     1.3216110
  H        2.9117530     1.1256360    -0.0698640
  H       -2.1022070     0.3966710    -1.3215760
  H       -2.9117580     1.1256310     0.0699580
  H        2.2845910    -1.8662570     0.2495040
  H        3.1497060    -1.1530710    -1.1218230
  H        3.8888820    -1.1460650     0.4866090
  H       -3.1496440    -1.1531250     1.1218420
  H       -3.8889120    -1.1460430    -0.4865470
  H       -2.2846070    -1.8662470    -0.2495670
units angstrom
no_reorient  #important for SAPT in psi4, default
symmetry c1  #important for SAPT in psi4, default
}

set PROPERTIES_ORIGIN ["COM"]
properties('MP2/aug-cc-pvtz', properties = ['dipole'])
--------------------------------------------------------------------------

    Molecular point group: c1
  Charge       = 0
  Multiplicity = 1
  Basis Set: AUG-CC-PVTZ
    Blend: AUG-CC-PVTZ
  Basis Set: (AUG-CC-PVTZ AUX)
    Blend: AUG-CC-PVTZ-JKFIT

    Orbital Energies [Eh]
    ---------------------

    Doubly Occupied:

       1A    -20.531783     2A    -11.276568     3A    -11.271338
       4A    -11.229310     5A    -11.223167     6A    -11.215929
       7A    -11.207273     8A    -11.204909     9A     -1.334197
      10A     -1.061772    11A     -1.042375    12A     -0.980264
      13A     -0.917215    14A     -0.844881    15A     -0.816328
      16A     -0.750949    17A     -0.664899    18A     -0.652351
      19A     -0.602872    20A     -0.598225    21A     -0.583376
      22A     -0.571160    23A     -0.543391    24A     -0.521823
      25A     -0.516478    26A     -0.498927    27A     -0.493334
      28A     -0.485257    29A     -0.476029    30A     -0.434045
      31A     -0.416247    32A     -0.402530

  @DF-RHF Final Energy:  -348.15368086200300

   => Energetics <=

    Nuclear Repulsion Energy =            397.3482927210569642
    One-Electron Energy =               -1260.2655441959468590
    Two-Electron Energy =                 514.7635706128868378
    Total Energy =                       -348.1536808620030570
  Basis Set: (AUG-CC-PVTZ AUX)
    Blend: AUG-CC-PVTZ-RI
    Molecular point group: c1

    Geometry (in Angstrom), charge = 0, multiplicity = 1:

       Center              X                  Y                   Z               Mass
    ------------   -----------------  -----------------  -----------------  -----------------
         O            0.008265302687    -0.610228419650    -0.014325127501    15.994914619570
         C            0.944617302687     0.414165580350    -0.470916127501    12.000000000000
         C           -1.006680797313     0.393003380350     0.578161072499    12.000000000000
         C            0.008268302687     1.543086580350    -0.014286127501    12.000000000000
         C            2.279986302687     0.289770580350     0.229081872499    12.000000000000
         C           -2.263465697313     0.289780580350    -0.257610127501    12.000000000000
         C            2.950613302687    -1.047935419650    -0.066508127501    12.000000000000
         C           -2.934076697313    -1.047938419650     0.037954872499    12.000000000000
         H            1.077567302687     0.344724580350    -1.560356127501     1.007825032230
         H           -1.060972697313     0.344677580350     1.531780872499     1.007825032230
         H            0.410539302687     2.175758580350     0.781516872499     1.007825032230
         H           -0.394014697313     2.175746580350    -0.810092127501     1.007825032230
         H            2.110418302687     0.396680580350     1.307327872499     1.007825032230
         H            2.920020302687     1.125697580350    -0.084147127501     1.007825032230
         H           -2.093939697313     0.396732580350    -1.335859127501     1.007825032230
         H           -2.903490697313     1.125692580350     0.055674872499     1.007825032230
         H            2.292858302687    -1.866195419650     0.235220872499     1.007825032230
         H            3.157973302687    -1.153009419650    -1.136106127501     1.007825032230
         H            3.897149302687    -1.146003419650     0.472325872499     1.007825032230
         H           -3.141376697313    -1.153063419650     1.107558872499     1.007825032230
         H           -3.880644697313    -1.145981419650    -0.500830127501     1.007825032230
         H           -2.276339697313    -1.866185419650    -0.263850127501     1.007825032230

  Basis Set: AUG-CC-PVTZ
    Blend: AUG-CC-PVTZ
  Basis Set: (AUG-CC-PVTZ AUX)
    Blend: AUG-CC-PVTZ-JKFIT
	 Reference Energy          =    -348.1536808620030001 [Eh]
	 Singles Energy            =      -0.0000000000000000 [Eh]
	 Same-Spin Energy          =      -0.3611148412653943 [Eh]
	 Opposite-Spin Energy      =      -1.2643351240219254 [Eh]
	 Correlation Energy        =      -1.6254499652873198 [Eh]
	 Total Energy              =    -349.7791308272903166 [Eh]

	 ================> DF-SCS-MP2 Energies <==================
	-----------------------------------------------------------
	 SCS Same-Spin Scale       =       0.3333333333333333 [-]
	 SCS Opposite-Spin Scale   =       1.2000000000000000 [-]
	 SCS Same-Spin Energy      =      -0.1203716137551314 [Eh]
	 SCS Opposite-Spin Energy  =      -1.5172021488263103 [Eh]
	 SCS Correlation Energy    =      -1.6375737625814417 [Eh]
	 SCS Total Energy          =    -349.7912546245844396 [Eh]
	-----------------------------------------------------------

  Dipole Moment: [D]
     X:    -0.2991      Y:     1.7358      Z:     0.1832     Total:     1.7709

*** Psi4 exiting successfully. Buy a developer a beer!
