                               Psi4 1.4a3.dev225

  ==> Input File <==

--------------------------------------------------------------------------
#psi4
#
memory 32 gb

molecule  {
0 1
  O       -0.0000020    -0.6102900    -0.0000420
  C        0.9363500     0.4141040    -0.4566330
  C       -0.9363370     0.4140910     0.4566200
  C        0.0000010     1.5430250    -0.0000030
  C        2.2717190     0.2897090     0.2433650
  C       -2.2717330     0.2897190    -0.2433270
  C        2.9423460    -1.0479970    -0.0522250
  C       -2.9423440    -1.0480000     0.0522380
  H        1.0693000     0.3446630    -1.5460730
  H       -1.0692400     0.3446160     1.5460640
  H        0.4022720     2.1756970     0.7958000
  H       -0.4022820     2.1756850    -0.7958090
  H        2.1021510     0.3966190     1.3216110
  H        2.9117530     1.1256360    -0.0698640
  H       -2.1022070     0.3966710    -1.3215760
  H       -2.9117580     1.1256310     0.0699580
  H        2.2845910    -1.8662570     0.2495040
  H        3.1497060    -1.1530710    -1.1218230
  H        3.9321594    -1.1505489     0.5112455
  H       -3.1496440    -1.1531250     1.1218420
  H       -3.8889120    -1.1460430    -0.4865470
  H       -2.2846070    -1.8662470    -0.2495670
units angstrom
no_reorient  #important for SAPT in psi4, default
symmetry c1  #important for SAPT in psi4, default
}

set PROPERTIES_ORIGIN ["COM"]
properties('MP2/aug-cc-pvtz', properties = ['dipole'])
--------------------------------------------------------------------------

    Molecular point group: c1
  Charge       = 0
  Multiplicity = 1
  Basis Set: AUG-CC-PVTZ
    Blend: AUG-CC-PVTZ
  Basis Set: (AUG-CC-PVTZ AUX)
    Blend: AUG-CC-PVTZ-JKFIT

    Orbital Energies [Eh]
    ---------------------

    Doubly Occupied:

       1A    -20.538427     2A    -11.277450     3A    -11.277279
       4A    -11.224434     5A    -11.219379     6A    -11.219040
       7A    -11.213550     8A    -11.207529     9A     -1.365363
      10A     -1.059705    11A     -1.047383    12A     -0.993862
      13A     -0.911672    14A     -0.845577    15A     -0.804943
      16A     -0.736317    17A     -0.672043    18A     -0.664990
      19A     -0.607773    20A     -0.601584    21A     -0.582383
      22A     -0.557461    23A     -0.550361    24A     -0.522117
      25A     -0.520762    26A     -0.498226    27A     -0.490408
      28A     -0.480726    29A     -0.480019    30A     -0.446600
      31A     -0.432385    32A     -0.401788

  @DF-RHF Final Energy:  -348.18430485999329

   => Energetics <=

    Nuclear Repulsion Energy =            399.2971737909263084
    One-Electron Energy =               -1264.0598872726204718
    Two-Electron Energy =                 516.5784086217008735
    Total Energy =                       -348.1843048599932899
  Basis Set: (AUG-CC-PVTZ AUX)
    Blend: AUG-CC-PVTZ-RI
    Molecular point group: c1

    Geometry (in Angstrom), charge = 0, multiplicity = 1:

       Center              X                  Y                   Z               Mass
    ------------   -----------------  -----------------  -----------------  -----------------
         O           -0.000384220769    -0.612413009125    -0.000258534072    15.994914619570
         C            0.935967779231     0.411980990875    -0.456849534072    12.000000000000
         C           -0.936719220769     0.411967990875     0.456403465928    12.000000000000
         C           -0.000381220769     1.540901990875    -0.000219534072    12.000000000000
         C            2.271336779231     0.287585990875     0.243148465928    12.000000000000
         C           -2.272115220769     0.287595990875    -0.243543534072    12.000000000000
         C            2.941963779231    -1.050120009125    -0.052441534072    12.000000000000
         C           -2.942726220769    -1.050123009125     0.052021465928    12.000000000000
         H            1.068917779231     0.342539990875    -1.546289534072     1.007825032230
         H           -1.069622220769     0.342492990875     1.545847465928     1.007825032230
         H            0.401889779231     2.173573990875     0.795583465928     1.007825032230
         H           -0.402664220769     2.173561990875    -0.796025534072     1.007825032230
         H            2.101768779231     0.394495990875     1.321394465928     1.007825032230
         H            2.911370779231     1.123512990875    -0.070080534072     1.007825032230
         H           -2.102589220769     0.394547990875    -1.321792534072     1.007825032230
         H           -2.912140220769     1.123507990875     0.069741465928     1.007825032230
         H            2.284208779231    -1.868380009125     0.249287465928     1.007825032230
         H            3.149323779231    -1.155194009125    -1.122039534072     1.007825032230
         H            3.931777179231    -1.152671909125     0.511028965928     1.007825032230
         H           -3.150026220769    -1.155248009125     1.121625465928     1.007825032230
         H           -3.889294220769    -1.148166009125    -0.486763534072     1.007825032230
         H           -2.284989220769    -1.868370009125    -0.249783534072     1.007825032230

  Basis Set: AUG-CC-PVTZ
    Blend: AUG-CC-PVTZ
  Basis Set: (AUG-CC-PVTZ AUX)
    Blend: AUG-CC-PVTZ-JKFIT
	 Reference Energy          =    -348.1843048599932899 [Eh]
	 Singles Energy            =      -0.0000000000000000 [Eh]
	 Same-Spin Energy          =      -0.3608873746922655 [Eh]
	 Opposite-Spin Energy      =      -1.2617745497647217 [Eh]
	 Correlation Energy        =      -1.6226619244569871 [Eh]
	 Total Energy              =    -349.8069667844502533 [Eh]

	 ================> DF-SCS-MP2 Energies <==================
	-----------------------------------------------------------
	 SCS Same-Spin Scale       =       0.3333333333333333 [-]
	 SCS Opposite-Spin Scale   =       1.2000000000000000 [-]
	 SCS Same-Spin Energy      =      -0.1202957915640885 [Eh]
	 SCS Opposite-Spin Energy  =      -1.5141294597176660 [Eh]
	 SCS Correlation Energy    =      -1.6344252512817545 [Eh]
	 SCS Total Energy          =    -349.8187301112750447 [Eh]
	-----------------------------------------------------------

  Dipole Moment: [D]
     X:    -0.0408      Y:     1.7211      Z:    -0.0131     Total:     1.7216

*** Psi4 exiting successfully. Buy a developer a beer!
