                               Psi4 1.4a3.dev225

  ==> Input File <==

--------------------------------------------------------------------------
#psi4
#
memory 32 gb

molecule  {
0 1
  O       -0.0000020    -0.6102900    -0.0000420
  C        0.9449242     0.4360247    -0.4685963
  C       -0.9363370     0.4140910     0.4566200
  C        0.0000010     1.5430250    -0.0000030
  C        2.2717190     0.2897090     0.2433650
  C       -2.2717330     0.2897190    -0.2433270
  C        2.9423460    -1.0479970    -0.0522250
  C       -2.9423440    -1.0480000     0.0522380
  H        1.0693000     0.3446630    -1.5460730
  H       -1.0692400     0.3446160     1.5460640
  H        0.4022720     2.1756970     0.7958000
  H       -0.4022820     2.1756850    -0.7958090
  H        2.1021510     0.3966190     1.3216110
  H        2.9117530     1.1256360    -0.0698640
  H       -2.1022070     0.3966710    -1.3215760
  H       -2.9117580     1.1256310     0.0699580
  H        2.2845910    -1.8662570     0.2495040
  H        3.1497060    -1.1530710    -1.1218230
  H        3.8888820    -1.1460650     0.4866090
  H       -3.1496440    -1.1531250     1.1218420
  H       -3.8889120    -1.1460430    -0.4865470
  H       -2.2846070    -1.8662470    -0.2495670
units angstrom
no_reorient  #important for SAPT in psi4, default
symmetry c1  #important for SAPT in psi4, default
}

set PROPERTIES_ORIGIN ["COM"]
properties('MP2/aug-cc-pvtz', properties = ['dipole'])
--------------------------------------------------------------------------

    Molecular point group: c1
  Charge       = 0
  Multiplicity = 1
  Basis Set: AUG-CC-PVTZ
    Blend: AUG-CC-PVTZ
  Basis Set: (AUG-CC-PVTZ AUX)
    Blend: AUG-CC-PVTZ-JKFIT

    Orbital Energies [Eh]
    ---------------------

    Doubly Occupied:

       1A    -20.535767     2A    -11.277296     3A    -11.275773
       4A    -11.224745     5A    -11.219736     6A    -11.218150
       7A    -11.207861     8A    -11.206792     9A     -1.357008
      10A     -1.059601    11A     -1.047256    12A     -0.994849
      13A     -0.913244    14A     -0.847488    15A     -0.804802
      16A     -0.736976    17A     -0.669495    18A     -0.663379
      19A     -0.606556    20A     -0.600738    21A     -0.584798
      22A     -0.559903    23A     -0.549018    24A     -0.521249
      25A     -0.520616    26A     -0.497747    27A     -0.491413
      28A     -0.481660    29A     -0.479432    30A     -0.444618
      31A     -0.434325    32A     -0.401786

  @DF-RHF Final Energy:  -348.18515368976932

   => Energetics <=

    Nuclear Repulsion Energy =            399.1877843352077093
    One-Electron Energy =               -1263.8777214582294164
    Two-Electron Energy =                 516.5047834332524417
    Total Energy =                       -348.1851536897693222
  Basis Set: (AUG-CC-PVTZ AUX)
    Blend: AUG-CC-PVTZ-RI
    Molecular point group: c1

    Geometry (in Angstrom), charge = 0, multiplicity = 1:

       Center              X                  Y                   Z               Mass
    ------------   -----------------  -----------------  -----------------  -----------------
         O           -0.000903695207    -0.614757942660     0.001217209067    15.994914619570
         C            0.944022504793     0.431556757340    -0.467337090933    12.000000000000
         C           -0.937238695207     0.409623057340     0.457879209067    12.000000000000
         C           -0.000900695207     1.538557057340     0.001256209067    12.000000000000
         C            2.270817304793     0.285241057340     0.244624209067    12.000000000000
         C           -2.272634695207     0.285251057340    -0.242067790933    12.000000000000
         C            2.941444304793    -1.052464942660    -0.050965790933    12.000000000000
         C           -2.943245695207    -1.052467942660     0.053497209067    12.000000000000
         H            1.068398304793     0.340195057340    -1.544813790933     1.007825032230
         H           -1.070141695207     0.340148057340     1.547323209067     1.007825032230
         H            0.401370304793     2.171229057340     0.797059209067     1.007825032230
         H           -0.403183695207     2.171217057340    -0.794549790933     1.007825032230
         H            2.101249304793     0.392151057340     1.322870209067     1.007825032230
         H            2.910851304793     1.121168057340    -0.068604790933     1.007825032230
         H           -2.103108695207     0.392203057340    -1.320316790933     1.007825032230
         H           -2.912659695207     1.121163057340     0.071217209067     1.007825032230
         H            2.283689304793    -1.870724942660     0.250763209067     1.007825032230
         H            3.148804304793    -1.157538942660    -1.120563790933     1.007825032230
         H            3.887980304793    -1.150532942660     0.487868209067     1.007825032230
         H           -3.150545695207    -1.157592942660     1.123101209067     1.007825032230
         H           -3.889813695207    -1.150510942660    -0.485287790933     1.007825032230
         H           -2.285508695207    -1.870714942660    -0.248307790933     1.007825032230

  Basis Set: AUG-CC-PVTZ
    Blend: AUG-CC-PVTZ
  Basis Set: (AUG-CC-PVTZ AUX)
    Blend: AUG-CC-PVTZ-JKFIT
	 Reference Energy          =    -348.1851536897693222 [Eh]
	 Singles Energy            =      -0.0000000000000000 [Eh]
	 Same-Spin Energy          =      -0.3610638708334655 [Eh]
	 Opposite-Spin Energy      =      -1.2620104484219090 [Eh]
	 Correlation Energy        =      -1.6230743192553745 [Eh]
	 Total Energy              =    -349.8082280090246741 [Eh]

	 ================> DF-SCS-MP2 Energies <==================
	-----------------------------------------------------------
	 SCS Same-Spin Scale       =       0.3333333333333333 [-]
	 SCS Opposite-Spin Scale   =       1.2000000000000000 [-]
	 SCS Same-Spin Energy      =      -0.1203546236111552 [Eh]
	 SCS Opposite-Spin Energy  =      -1.5144125381062907 [Eh]
	 SCS Correlation Energy    =      -1.6347671617174460 [Eh]
	 SCS Total Energy          =    -349.8199208514867564 [Eh]
	-----------------------------------------------------------

  Dipole Moment: [D]
     X:     0.0651      Y:     1.7372      Z:    -0.0315     Total:     1.7387

*** Psi4 exiting successfully. Buy a developer a beer!
