                               Psi4 1.4a3.dev225

  ==> Input File <==

--------------------------------------------------------------------------
#psi4
#
memory 32 gb

molecule  {
0 1
  O       -0.0000020    -0.6102900    -0.0000420
  C        0.9363500     0.4141040    -0.4566330
  C       -0.9363370     0.4140910     0.4566200
  C        0.0000010     1.5430250    -0.0000030
  C        2.1834499     0.2979316     0.1970945
  C       -2.2717330     0.2897190    -0.2433270
  C        2.9423460    -1.0479970    -0.0522250
  C       -2.9423440    -1.0480000     0.0522380
  H        1.0693000     0.3446630    -1.5460730
  H       -1.0692400     0.3446160     1.5460640
  H        0.4022720     2.1756970     0.7958000
  H       -0.4022820     2.1756850    -0.7958090
  H        2.1021510     0.3966190     1.3216110
  H        2.9117530     1.1256360    -0.0698640
  H       -2.1022070     0.3966710    -1.3215760
  H       -2.9117580     1.1256310     0.0699580
  H        2.2845910    -1.8662570     0.2495040
  H        3.1497060    -1.1530710    -1.1218230
  H        3.8888820    -1.1460650     0.4866090
  H       -3.1496440    -1.1531250     1.1218420
  H       -3.8889120    -1.1460430    -0.4865470
  H       -2.2846070    -1.8662470    -0.2495670
units angstrom
no_reorient  #important for SAPT in psi4, default
symmetry c1  #important for SAPT in psi4, default
}

set PROPERTIES_ORIGIN ["COM"]
properties('MP2/aug-cc-pvtz', properties = ['dipole'])
--------------------------------------------------------------------------

    Molecular point group: c1
  Charge       = 0
  Multiplicity = 1
  Basis Set: AUG-CC-PVTZ
    Blend: AUG-CC-PVTZ
  Basis Set: (AUG-CC-PVTZ AUX)
    Blend: AUG-CC-PVTZ-JKFIT

    Orbital Energies [Eh]
    ---------------------

    Doubly Occupied:

       1A    -20.538181     2A    -11.277278     3A    -11.272808
       4A    -11.224671     5A    -11.222123     6A    -11.219014
       7A    -11.210025     8A    -11.207473     9A     -1.367183
      10A     -1.067682    11A     -1.050030    12A     -0.992640
      13A     -0.917276    14A     -0.851182    15A     -0.802431
      16A     -0.736681    17A     -0.674558    18A     -0.667471
      19A     -0.610638    20A     -0.600809    21A     -0.583700
      22A     -0.558913    23A     -0.551167    24A     -0.525979
      25A     -0.521051    26A     -0.498937    27A     -0.494292
      28A     -0.478779    29A     -0.471017    30A     -0.443151
      31A     -0.429098    32A     -0.407465

  @DF-RHF Final Energy:  -348.17480440227581

   => Energetics <=

    Nuclear Repulsion Energy =            400.9257744342212959
    One-Electron Energy =               -1267.2537505983580104
    Two-Electron Energy =                 518.1531717618609036
    Total Energy =                       -348.1748044022758677
  Basis Set: (AUG-CC-PVTZ AUX)
    Blend: AUG-CC-PVTZ-RI
    Molecular point group: c1

    Geometry (in Angstrom), charge = 0, multiplicity = 1:

       Center              X                  Y                   Z               Mass
    ------------   -----------------  -----------------  -----------------  -----------------
         O            0.009281003518    -0.613317357492     0.004825187070    15.994914619570
         C            0.945633003518     0.411076642508    -0.451765812930    12.000000000000
         C           -0.927053996482     0.411063642508     0.461487187070    12.000000000000
         C            0.009284003518     1.539997642508     0.004864187070    12.000000000000
         C            2.192732903518     0.294904242508     0.201961687070    12.000000000000
         C           -2.262449996482     0.286691642508    -0.238459812930    12.000000000000
         C            2.951629003518    -1.051024357492    -0.047357812930    12.000000000000
         C           -2.933060996482    -1.051027357492     0.057105187070    12.000000000000
         H            1.078583003518     0.341635642508    -1.541205812930     1.007825032230
         H           -1.059956996482     0.341588642508     1.550931187070     1.007825032230
         H            0.411555003518     2.172669642508     0.800667187070     1.007825032230
         H           -0.392998996482     2.172657642508    -0.790941812930     1.007825032230
         H            2.111434003518     0.393591642508     1.326478187070     1.007825032230
         H            2.921036003518     1.122608642508    -0.064996812930     1.007825032230
         H           -2.092923996482     0.393643642508    -1.316708812930     1.007825032230
         H           -2.902474996482     1.122603642508     0.074825187070     1.007825032230
         H            2.293874003518    -1.869284357492     0.254371187070     1.007825032230
         H            3.158989003518    -1.156098357492    -1.116955812930     1.007825032230
         H            3.898165003518    -1.149092357492     0.491476187070     1.007825032230
         H           -3.140360996482    -1.156152357492     1.126709187070     1.007825032230
         H           -3.879628996482    -1.149070357492    -0.481679812930     1.007825032230
         H           -2.275323996482    -1.869274357492    -0.244699812930     1.007825032230

  Basis Set: AUG-CC-PVTZ
    Blend: AUG-CC-PVTZ
  Basis Set: (AUG-CC-PVTZ AUX)
    Blend: AUG-CC-PVTZ-JKFIT
	 Reference Energy          =    -348.1748044022758108 [Eh]
	 Singles Energy            =      -0.0000000000000000 [Eh]
	 Same-Spin Energy          =      -0.3618059102500751 [Eh]
	 Opposite-Spin Energy      =      -1.2626489631329980 [Eh]
	 Correlation Energy        =      -1.6244548733830730 [Eh]
	 Total Energy              =    -349.7992592756588692 [Eh]

	 ================> DF-SCS-MP2 Energies <==================
	-----------------------------------------------------------
	 SCS Same-Spin Scale       =       0.3333333333333333 [-]
	 SCS Opposite-Spin Scale   =       1.2000000000000000 [-]
	 SCS Same-Spin Energy      =      -0.1206019700833584 [Eh]
	 SCS Opposite-Spin Energy  =      -1.5151787557595975 [Eh]
	 SCS Correlation Energy    =      -1.6357807258429558 [Eh]
	 SCS Total Energy          =    -349.8105851281187597 [Eh]
	-----------------------------------------------------------

  Dipole Moment: [D]
     X:     0.0277      Y:     1.7069      Z:     0.0076     Total:     1.7072

*** Psi4 exiting successfully. Buy a developer a beer!
