                               Psi4 1.4a3.dev225

  ==> Input File <==

--------------------------------------------------------------------------
#psi4
#
memory 32 gb

molecule  {
0 1
  O       -0.0000020    -0.6102900    -0.0000420
  C        0.9363500     0.4141040    -0.4566330
  C       -0.9363370     0.4140910     0.4566200
  C        0.0000010     1.5430250    -0.0000030
  C        2.2717190     0.2897090     0.2433650
  C       -2.2717330     0.2897190    -0.2433270
  C        2.9423460    -1.0479970    -0.0522250
  C       -2.9423440    -1.0480000     0.0522380
  H        1.0693000     0.3446630    -1.5460730
  H       -1.0692400     0.3446160     1.5460640
  H        0.4022720     2.1756970     0.7958000
  H       -0.4022820     2.1756850    -0.7958090
  H        2.1237692     0.4282086     1.3211990
  H        2.9117530     1.1256360    -0.0698640
  H       -2.1022070     0.3966710    -1.3215760
  H       -2.9117580     1.1256310     0.0699580
  H        2.2845910    -1.8662570     0.2495040
  H        3.1497060    -1.1530710    -1.1218230
  H        3.8888820    -1.1460650     0.4866090
  H       -3.1496440    -1.1531250     1.1218420
  H       -3.8889120    -1.1460430    -0.4865470
  H       -2.2846070    -1.8662470    -0.2495670
units angstrom
no_reorient  #important for SAPT in psi4, default
symmetry c1  #important for SAPT in psi4, default
}

set PROPERTIES_ORIGIN ["COM"]
properties('MP2/aug-cc-pvtz', properties = ['dipole'])
--------------------------------------------------------------------------

    Molecular point group: c1
  Charge       = 0
  Multiplicity = 1
  Basis Set: AUG-CC-PVTZ
    Blend: AUG-CC-PVTZ
  Basis Set: (AUG-CC-PVTZ AUX)
    Blend: AUG-CC-PVTZ-JKFIT

    Orbital Energies [Eh]
    ---------------------

    Doubly Occupied:

       1A    -20.537967     2A    -11.277176     3A    -11.276939
       4A    -11.224094     5A    -11.218800     6A    -11.218797
       7A    -11.207588     8A    -11.207328     9A     -1.364903
      10A     -1.059622    11A     -1.047338    12A     -0.994158
      13A     -0.913200    14A     -0.847299    15A     -0.805455
      16A     -0.736284    17A     -0.671519    18A     -0.664873
      19A     -0.607139    20A     -0.600763    21A     -0.584276
      22A     -0.558949    23A     -0.551652    24A     -0.522203
      25A     -0.521391    26A     -0.499364    27A     -0.491664
      28A     -0.481096    29A     -0.479067    30A     -0.446181
      31A     -0.432390    32A     -0.401746

  @DF-RHF Final Energy:  -348.18625499386218

   => Energetics <=

    Nuclear Repulsion Energy =            399.4651583671426351
    One-Electron Energy =               -1264.4003850715275803
    Two-Electron Energy =                 516.7489717105228237
    Total Energy =                       -348.1862549938621214
  Basis Set: (AUG-CC-PVTZ AUX)
    Blend: AUG-CC-PVTZ-RI
    Molecular point group: c1

    Geometry (in Angstrom), charge = 0, multiplicity = 1:

       Center              X                  Y                   Z               Mass
    ------------   -----------------  -----------------  -----------------  -----------------
         O           -0.000192916389    -0.612731627474    -0.000037293778    15.994914619570
         C            0.936159083611     0.411662372526    -0.456628293778    12.000000000000
         C           -0.936527916389     0.411649372526     0.456624706222    12.000000000000
         C           -0.000189916389     1.540583372526     0.000001706222    12.000000000000
         C            2.271528083611     0.287267372526     0.243369706222    12.000000000000
         C           -2.271923916389     0.287277372526    -0.243322293778    12.000000000000
         C            2.942155083611    -1.050438627474    -0.052220293778    12.000000000000
         C           -2.942534916389    -1.050441627474     0.052242706222    12.000000000000
         H            1.069109083611     0.342221372526    -1.546068293778     1.007825032230
         H           -1.069430916389     0.342174372526     1.546068706222     1.007825032230
         H            0.402081083611     2.173255372526     0.795804706222     1.007825032230
         H           -0.402472916389     2.173243372526    -0.795804293778     1.007825032230
         H            2.123578283611     0.425766972526     1.321203706222     1.007825032230
         H            2.911562083611     1.123194372526    -0.069859293778     1.007825032230
         H           -2.102397916389     0.394229372526    -1.321571293778     1.007825032230
         H           -2.911948916389     1.123189372526     0.069962706222     1.007825032230
         H            2.284400083611    -1.868698627474     0.249508706222     1.007825032230
         H            3.149515083611    -1.155512627474    -1.121818293778     1.007825032230
         H            3.888691083611    -1.148506627474     0.486613706222     1.007825032230
         H           -3.149834916389    -1.155566627474     1.121846706222     1.007825032230
         H           -3.889102916389    -1.148484627474    -0.486542293778     1.007825032230
         H           -2.284797916389    -1.868688627474    -0.249562293778     1.007825032230

  Basis Set: AUG-CC-PVTZ
    Blend: AUG-CC-PVTZ
  Basis Set: (AUG-CC-PVTZ AUX)
    Blend: AUG-CC-PVTZ-JKFIT
	 Reference Energy          =    -348.1862549938621783 [Eh]
	 Singles Energy            =      -0.0000000000000000 [Eh]
	 Same-Spin Energy          =      -0.3609061784115754 [Eh]
	 Opposite-Spin Energy      =      -1.2614297887875972 [Eh]
	 Correlation Energy        =      -1.6223359671991724 [Eh]
	 Total Energy              =    -349.8085909610613271 [Eh]

	 ================> DF-SCS-MP2 Energies <==================
	-----------------------------------------------------------
	 SCS Same-Spin Scale       =       0.3333333333333333 [-]
	 SCS Opposite-Spin Scale   =       1.2000000000000000 [-]
	 SCS Same-Spin Energy      =      -0.1203020594705251 [Eh]
	 SCS Opposite-Spin Energy  =      -1.5137157465451165 [Eh]
	 SCS Correlation Energy    =      -1.6340178060156416 [Eh]
	 SCS Total Energy          =    -349.8202727998778414 [Eh]
	-----------------------------------------------------------

  Dipole Moment: [D]
     X:     0.0074      Y:     1.7129      Z:     0.0018     Total:     1.7130

*** Psi4 exiting successfully. Buy a developer a beer!
