                               Psi4 1.4a3.dev225

  ==> Input File <==

--------------------------------------------------------------------------
#psi4
#
memory 32 gb

molecule  {
0 1
  O       -0.0000020    -0.6102900    -0.0000420
  C        0.9363500     0.4141040    -0.4566330
  C       -0.9363370     0.4140910     0.4566200
  C        0.0000010     1.5430250    -0.0000030
  C        2.2717190     0.2897090     0.2433650
  C       -2.2717330     0.2897190    -0.2433270
  C        2.9423460    -1.0479970    -0.0522250
  C       -2.9423440    -1.0480000     0.0522380
  H        1.0693000     0.3446630    -1.5460730
  H       -1.0631974     0.3477748     1.4965311
  H        0.4022720     2.1756970     0.7958000
  H       -0.4022820     2.1756850    -0.7958090
  H        2.1021510     0.3966190     1.3216110
  H        2.9117530     1.1256360    -0.0698640
  H       -2.1022070     0.3966710    -1.3215760
  H       -2.9117580     1.1256310     0.0699580
  H        2.2845910    -1.8662570     0.2495040
  H        3.1497060    -1.1530710    -1.1218230
  H        3.8888820    -1.1460650     0.4866090
  H       -3.1496440    -1.1531250     1.1218420
  H       -3.8889120    -1.1460430    -0.4865470
  H       -2.2846070    -1.8662470    -0.2495670
units angstrom
no_reorient  #important for SAPT in psi4, default
symmetry c1  #important for SAPT in psi4, default
}

set PROPERTIES_ORIGIN ["COM"]
properties('MP2/aug-cc-pvtz', properties = ['dipole'])
--------------------------------------------------------------------------

    Molecular point group: c1
  Charge       = 0
  Multiplicity = 1
  Basis Set: AUG-CC-PVTZ
    Blend: AUG-CC-PVTZ
  Basis Set: (AUG-CC-PVTZ AUX)
    Blend: AUG-CC-PVTZ-JKFIT

    Orbital Energies [Eh]
    ---------------------

    Doubly Occupied:

       1A    -20.537148     2A    -11.276605     3A    -11.270694
       4A    -11.223504     5A    -11.218657     6A    -11.218284
       7A    -11.207371     8A    -11.207205     9A     -1.364480
      10A     -1.060239    11A     -1.047469    12A     -0.994001
      13A     -0.914853    14A     -0.847137    15A     -0.807625
      16A     -0.739497    17A     -0.672762    18A     -0.665869
      19A     -0.607132    20A     -0.601466    21A     -0.584017
      22A     -0.561287    23A     -0.551515    24A     -0.522270
      25A     -0.520954    26A     -0.498549    27A     -0.491705
      28A     -0.481134    29A     -0.480187    30A     -0.445661
      31A     -0.433082    32A     -0.402274

  @DF-RHF Final Energy:  -348.18571933931594

   => Energetics <=

    Nuclear Repulsion Energy =            399.7890270497293841
    One-Electron Energy =               -1265.0402294476468796
    Two-Electron Energy =                 517.0654830586015578
    Total Energy =                       -348.1857193393159378
  Basis Set: (AUG-CC-PVTZ AUX)
    Blend: AUG-CC-PVTZ-RI
    Molecular point group: c1

    Geometry (in Angstrom), charge = 0, multiplicity = 1:

       Center              X                  Y                   Z               Mass
    ------------   -----------------  -----------------  -----------------  -----------------
         O           -0.000055345264    -0.612480513094     0.000396565428    15.994914619570
         C            0.936296654736     0.411913486906    -0.456194434572    12.000000000000
         C           -0.936390345264     0.411900486906     0.457058565428    12.000000000000
         C           -0.000052345264     1.540834486906     0.000435565428    12.000000000000
         C            2.271665654736     0.287518486906     0.243803565428    12.000000000000
         C           -2.271786345264     0.287528486906    -0.242888434572    12.000000000000
         C            2.942292654736    -1.050187513094    -0.051786434572    12.000000000000
         C           -2.942397345264    -1.050190513094     0.052676565428    12.000000000000
         H            1.069246654736     0.342472486906    -1.545634434572     1.007825032230
         H           -1.063250745264     0.345584286906     1.496969665428     1.007825032230
         H            0.402218654736     2.173506486906     0.796238565428     1.007825032230
         H           -0.402335345264     2.173494486906    -0.795370434572     1.007825032230
         H            2.102097654736     0.394428486906     1.322049565428     1.007825032230
         H            2.911699654736     1.123445486906    -0.069425434572     1.007825032230
         H           -2.102260345264     0.394480486906    -1.321137434572     1.007825032230
         H           -2.911811345264     1.123440486906     0.070396565428     1.007825032230
         H            2.284537654736    -1.868447513094     0.249942565428     1.007825032230
         H            3.149652654736    -1.155261513094    -1.121384434572     1.007825032230
         H            3.888828654736    -1.148255513094     0.487047565428     1.007825032230
         H           -3.149697345264    -1.155315513094     1.122280565428     1.007825032230
         H           -3.888965345264    -1.148233513094    -0.486108434572     1.007825032230
         H           -2.284660345264    -1.868437513094    -0.249128434572     1.007825032230

  Basis Set: AUG-CC-PVTZ
    Blend: AUG-CC-PVTZ
  Basis Set: (AUG-CC-PVTZ AUX)
    Blend: AUG-CC-PVTZ-JKFIT
	 Reference Energy          =    -348.1857193393159378 [Eh]
	 Singles Energy            =      -0.0000000000000000 [Eh]
	 Same-Spin Energy          =      -0.3608386718409168 [Eh]
	 Opposite-Spin Energy      =      -1.2610916476714207 [Eh]
	 Correlation Energy        =      -1.6219303195123373 [Eh]
	 Total Energy              =    -349.8076496588282680 [Eh]

	 ================> DF-SCS-MP2 Energies <==================
	-----------------------------------------------------------
	 SCS Same-Spin Scale       =       0.3333333333333333 [-]
	 SCS Opposite-Spin Scale   =       1.2000000000000000 [-]
	 SCS Same-Spin Energy      =      -0.1202795572803056 [Eh]
	 SCS Opposite-Spin Energy  =      -1.5133099772057048 [Eh]
	 SCS Correlation Energy    =      -1.6335895344860103 [Eh]
	 SCS Total Energy          =    -349.8193088738019583 [Eh]
	-----------------------------------------------------------

  Dipole Moment: [D]
     X:    -0.0181      Y:     1.7091      Z:     0.0384     Total:     1.7096

*** Psi4 exiting successfully. Buy a developer a beer!
