                               Psi4 1.4a3.dev225

  ==> Input File <==

--------------------------------------------------------------------------
#psi4
#
memory 32 gb

molecule  {
0 1
  O       -0.0000020    -0.6102900    -0.0000420
  C        0.9363500     0.4141040    -0.4566330
  C       -0.9363370     0.4140910     0.4566200
  C        0.0000010     1.5430250    -0.0000030
  C        2.2717190     0.2897090     0.2433650
  C       -2.2717330     0.2897190    -0.2433270
  C        2.9423460    -1.0479970    -0.0522250
  C       -2.9423440    -1.0480000     0.0522380
  H        1.0693000     0.3446630    -1.5460730
  H       -1.0692400     0.3446160     1.5460640
  H        0.3654792     2.1178312     0.7230138
  H       -0.4022820     2.1756850    -0.7958090
  H        2.1021510     0.3966190     1.3216110
  H        2.9117530     1.1256360    -0.0698640
  H       -2.1022070     0.3966710    -1.3215760
  H       -2.9117580     1.1256310     0.0699580
  H        2.2845910    -1.8662570     0.2495040
  H        3.1497060    -1.1530710    -1.1218230
  H        3.8888820    -1.1460650     0.4866090
  H       -3.1496440    -1.1531250     1.1218420
  H       -3.8889120    -1.1460430    -0.4865470
  H       -2.2846070    -1.8662470    -0.2495670
units angstrom
no_reorient  #important for SAPT in psi4, default
symmetry c1  #important for SAPT in psi4, default
}

set PROPERTIES_ORIGIN ["COM"]
properties('MP2/aug-cc-pvtz', properties = ['dipole'])
--------------------------------------------------------------------------

    Molecular point group: c1
  Charge       = 0
  Multiplicity = 1
  Basis Set: AUG-CC-PVTZ
    Blend: AUG-CC-PVTZ
  Basis Set: (AUG-CC-PVTZ AUX)
    Blend: AUG-CC-PVTZ-JKFIT

    Orbital Energies [Eh]
    ---------------------

    Doubly Occupied:

       1A    -20.537323     2A    -11.276181     3A    -11.276084
       4A    -11.218860     5A    -11.218272     6A    -11.211685
       7A    -11.207376     8A    -11.206914     9A     -1.364261
      10A     -1.059432    11A     -1.049005    12A     -0.998809
      13A     -0.912767    14A     -0.849623    15A     -0.805033
      16A     -0.742622    17A     -0.674455    18A     -0.666950
      19A     -0.609779    20A     -0.601441    21A     -0.583711
      22A     -0.558527    23A     -0.554894    24A     -0.527322
      25A     -0.520886    26A     -0.498722    27A     -0.491735
      28A     -0.480353    29A     -0.480153    30A     -0.446516
      31A     -0.431645    32A     -0.401673

  @DF-RHF Final Energy:  -348.18054172111164

   => Energetics <=

    Nuclear Repulsion Energy =            400.0390796615466797
    One-Electron Energy =               -1265.5132214497978111
    Two-Electron Energy =                 517.2936000671394368
    Total Energy =                       -348.1805417211116946
  Basis Set: (AUG-CC-PVTZ AUX)
    Blend: AUG-CC-PVTZ-RI
    Molecular point group: c1

    Geometry (in Angstrom), charge = 0, multiplicity = 1:

       Center              X                  Y                   Z               Mass
    ------------   -----------------  -----------------  -----------------  -----------------
         O            0.000322997409    -0.611941514735     0.000601949659    15.994914619570
         C            0.936674997409     0.412452485265    -0.455989050341    12.000000000000
         C           -0.936012002591     0.412439485265     0.457263949659    12.000000000000
         C            0.000325997409     1.541373485265     0.000640949659    12.000000000000
         C            2.272043997409     0.288057485265     0.244008949659    12.000000000000
         C           -2.271408002591     0.288067485265    -0.242683050341    12.000000000000
         C            2.942670997409    -1.049648514735    -0.051581050341    12.000000000000
         C           -2.942019002591    -1.049651514735     0.052881949659    12.000000000000
         H            1.069624997409     0.343011485265    -1.545429050341     1.007825032230
         H           -1.068915002591     0.342964485265     1.546707949659     1.007825032230
         H            0.365804197409     2.116179685265     0.723657749659     1.007825032230
         H           -0.401957002591     2.174033485265    -0.795165050341     1.007825032230
         H            2.102475997409     0.394967485265     1.322254949659     1.007825032230
         H            2.912077997409     1.123984485265    -0.069220050341     1.007825032230
         H           -2.101882002591     0.395019485265    -1.320932050341     1.007825032230
         H           -2.911433002591     1.123979485265     0.070601949659     1.007825032230
         H            2.284915997409    -1.867908514735     0.250147949659     1.007825032230
         H            3.150030997409    -1.154722514735    -1.121179050341     1.007825032230
         H            3.889206997409    -1.147716514735     0.487252949659     1.007825032230
         H           -3.149319002591    -1.154776514735     1.122485949659     1.007825032230
         H           -3.888587002591    -1.147694514735    -0.485903050341     1.007825032230
         H           -2.284282002591    -1.867898514735    -0.248923050341     1.007825032230

  Basis Set: AUG-CC-PVTZ
    Blend: AUG-CC-PVTZ
  Basis Set: (AUG-CC-PVTZ AUX)
    Blend: AUG-CC-PVTZ-JKFIT
	 Reference Energy          =    -348.1805417211116378 [Eh]
	 Singles Energy            =      -0.0000000000000000 [Eh]
	 Same-Spin Energy          =      -0.3608984262090594 [Eh]
	 Opposite-Spin Energy      =      -1.2609423018007164 [Eh]
	 Correlation Energy        =      -1.6218407280097757 [Eh]
	 Total Energy              =    -349.8023824491214100 [Eh]

	 ================> DF-SCS-MP2 Energies <==================
	-----------------------------------------------------------
	 SCS Same-Spin Scale       =       0.3333333333333333 [-]
	 SCS Opposite-Spin Scale   =       1.2000000000000000 [-]
	 SCS Same-Spin Energy      =      -0.1202994754030198 [Eh]
	 SCS Opposite-Spin Energy  =      -1.5131307621608596 [Eh]
	 SCS Correlation Energy    =      -1.6334302375638794 [Eh]
	 SCS Total Energy          =    -349.8139719586754950 [Eh]
	-----------------------------------------------------------

  Dipole Moment: [D]
     X:     0.0217      Y:     1.7506      Z:     0.0230     Total:     1.7508

*** Psi4 exiting successfully. Buy a developer a beer!
