                               Psi4 1.4a3.dev225

  ==> Input File <==

--------------------------------------------------------------------------
#psi4
#
memory 32 gb

molecule  {
0 1
  O       -0.0000020    -0.6102900    -0.0000420
  C        0.9363500     0.4141040    -0.4566330
  C       -0.9363370     0.4140910     0.4566200
  C        0.0000010     1.5430250    -0.0000030
  C        2.2717190     0.2897090     0.2433650
  C       -2.2717330     0.2897190    -0.2433270
  C        2.9423460    -1.0479970    -0.0522250
  C       -2.9423440    -1.0480000     0.0522380
  H        1.0693000     0.3446630    -1.5460730
  H       -1.0692400     0.3446160     1.5460640
  H        0.4022720     2.1756970     0.7958000
  H       -0.4022820     2.1756850    -0.7958090
  H        2.1021510     0.3966190     1.3216110
  H        2.9117530     1.1256360    -0.0698640
  H       -2.1022070     0.3966710    -1.3215760
  H       -2.9117580     1.1256310     0.0699580
  H        2.2845910    -1.8662570     0.2495040
  H        3.1118171    -1.1338718    -0.9263855
  H        3.8888820    -1.1460650     0.4866090
  H       -3.1496440    -1.1531250     1.1218420
  H       -3.8889120    -1.1460430    -0.4865470
  H       -2.2846070    -1.8662470    -0.2495670
units angstrom
no_reorient  #important for SAPT in psi4, default
symmetry c1  #important for SAPT in psi4, default
}

set PROPERTIES_ORIGIN ["COM"]
properties('MP2/aug-cc-pvtz', properties = ['dipole'])
--------------------------------------------------------------------------

    Molecular point group: c1
  Charge       = 0
  Multiplicity = 1
  Basis Set: AUG-CC-PVTZ
    Blend: AUG-CC-PVTZ
  Basis Set: (AUG-CC-PVTZ AUX)
    Blend: AUG-CC-PVTZ-JKFIT

    Orbital Energies [Eh]
    ---------------------

    Doubly Occupied:

       1A    -20.537730     2A    -11.276744     3A    -11.276706
       4A    -11.223799     5A    -11.218657     6A    -11.216904
       7A    -11.207221     8A    -11.181724     9A     -1.364664
      10A     -1.063264    11A     -1.049122    12A     -0.998163
      13A     -0.922522    14A     -0.855488    15A     -0.808138
      16A     -0.736949    17A     -0.671220    18A     -0.665090
      19A     -0.618748    20A     -0.602232    21A     -0.586779
      22A     -0.567199    23A     -0.551000    24A     -0.522641
      25A     -0.520732    26A     -0.506914    27A     -0.491258
      28A     -0.484889    29A     -0.479851    30A     -0.445791
      31A     -0.431801    32A     -0.401222

  @DF-RHF Final Energy:  -348.15225595156323

   => Energetics <=

    Nuclear Repulsion Energy =            400.4727332683670511
    One-Electron Energy =               -1266.2796566541937864
    Two-Electron Energy =                 517.6546674342635015
    Total Energy =                       -348.1522559515632338
  Basis Set: (AUG-CC-PVTZ AUX)
    Blend: AUG-CC-PVTZ-RI
    Molecular point group: c1

    Geometry (in Angstrom), charge = 0, multiplicity = 1:

       Center              X                  Y                   Z               Mass
    ------------   -----------------  -----------------  -----------------  -----------------
         O            0.000332678687    -0.612622189554    -0.001767129929    15.994914619570
         C            0.936684678687     0.411771810446    -0.458358129929    12.000000000000
         C           -0.936002321313     0.411758810446     0.454894870071    12.000000000000
         C            0.000335678687     1.540692810446    -0.001728129929    12.000000000000
         C            2.272053678687     0.287376810446     0.241639870071    12.000000000000
         C           -2.271398321313     0.287386810446    -0.245052129929    12.000000000000
         C            2.942680678687    -1.050329189554    -0.053950129929    12.000000000000
         C           -2.942009321313    -1.050332189554     0.050512870071    12.000000000000
         H            1.069634678687     0.342330810446    -1.547798129929     1.007825032230
         H           -1.068905321313     0.342283810446     1.544338870071     1.007825032230
         H            0.402606678687     2.173364810446     0.794074870071     1.007825032230
         H           -0.401947321313     2.173352810446    -0.797534129929     1.007825032230
         H            2.102485678687     0.394286810446     1.319885870071     1.007825032230
         H            2.912087678687     1.123303810446    -0.071589129929     1.007825032230
         H           -2.101872321313     0.394338810446    -1.323301129929     1.007825032230
         H           -2.911423321313     1.123298810446     0.068232870071     1.007825032230
         H            2.284925678687    -1.868589189554     0.247778870071     1.007825032230
         H            3.112151778687    -1.136203989554    -0.928110629929     1.007825032230
         H            3.889216678687    -1.148397189554     0.484883870071     1.007825032230
         H           -3.149309321313    -1.155457189554     1.120116870071     1.007825032230
         H           -3.888577321313    -1.148375189554    -0.488272129929     1.007825032230
         H           -2.284272321313    -1.868579189554    -0.251292129929     1.007825032230

  Basis Set: AUG-CC-PVTZ
    Blend: AUG-CC-PVTZ
  Basis Set: (AUG-CC-PVTZ AUX)
    Blend: AUG-CC-PVTZ-JKFIT
	 Reference Energy          =    -348.1522559515632338 [Eh]
	 Singles Energy            =      -0.0000000000000000 [Eh]
	 Same-Spin Energy          =      -0.3611324056841274 [Eh]
	 Opposite-Spin Energy      =      -1.2609984318919265 [Eh]
	 Correlation Energy        =      -1.6221308375760539 [Eh]
	 Total Energy              =    -349.7743867891392711 [Eh]

	 ================> DF-SCS-MP2 Energies <==================
	-----------------------------------------------------------
	 SCS Same-Spin Scale       =       0.3333333333333333 [-]
	 SCS Opposite-Spin Scale   =       1.2000000000000000 [-]
	 SCS Same-Spin Energy      =      -0.1203774685613758 [Eh]
	 SCS Opposite-Spin Energy  =      -1.5131981182703118 [Eh]
	 SCS Correlation Energy    =      -1.6335755868316877 [Eh]
	 SCS Total Energy          =    -349.7858315383949162 [Eh]
	-----------------------------------------------------------

  Dipole Moment: [D]
     X:     0.0362      Y:     1.6752      Z:    -0.0921     Total:     1.6781

*** Psi4 exiting successfully. Buy a developer a beer!
