                               Psi4 1.4a3.dev225

  ==> Input File <==

--------------------------------------------------------------------------
#psi4
#
memory 32 gb

molecule  {
0 1
  O       -0.0000020    -0.6102900    -0.0000420
  C        0.9363500     0.4141040    -0.4566330
  C       -0.9363370     0.4140910     0.4566200
  C        0.0000010     1.5430250    -0.0000030
  C        2.2770600     0.3111625     0.1392207
  C       -2.2717330     0.2897190    -0.2433270
  C        2.9423460    -1.0479970    -0.0522250
  C       -2.9423440    -1.0480000     0.0522380
  H        1.0693000     0.3446630    -1.5460730
  H       -1.0692400     0.3446160     1.5460640
  H        0.4022720     2.1756970     0.7958000
  H       -0.4022820     2.1756850    -0.7958090
  H        2.1021510     0.3966190     1.3216110
  H        2.9117530     1.1256360    -0.0698640
  H       -2.1022070     0.3966710    -1.3215760
  H       -2.9117580     1.1256310     0.0699580
  H        2.2845910    -1.8662570     0.2495040
  H        3.1497060    -1.1530710    -1.1218230
  H        3.8888820    -1.1460650     0.4866090
  H       -3.1496440    -1.1531250     1.1218420
  H       -3.8889120    -1.1460430    -0.4865470
  H       -2.2846070    -1.8662470    -0.2495670
units angstrom
no_reorient  #important for SAPT in psi4, default
symmetry c1  #important for SAPT in psi4, default
}

set PROPERTIES_ORIGIN ["COM"]
properties('MP2/aug-cc-pvtz', properties = ['dipole'])
--------------------------------------------------------------------------

    Molecular point group: c1
  Charge       = 0
  Multiplicity = 1
  Basis Set: AUG-CC-PVTZ
    Blend: AUG-CC-PVTZ
  Basis Set: (AUG-CC-PVTZ AUX)
    Blend: AUG-CC-PVTZ-JKFIT

    Orbital Energies [Eh]
    ---------------------

    Doubly Occupied:

       1A    -20.540326     2A    -11.277519     3A    -11.276346
       4A    -11.224903     5A    -11.222685     6A    -11.219089
       7A    -11.209001     8A    -11.207592     9A     -1.366292
      10A     -1.064256    11A     -1.049790    12A     -0.994721
      13A     -0.916362    14A     -0.850107    15A     -0.803000
      16A     -0.735825    17A     -0.676290    18A     -0.665464
      19A     -0.608870    20A     -0.603918    21A     -0.583615
      22A     -0.557434    23A     -0.553337    24A     -0.525811
      25A     -0.522335    26A     -0.503556    27A     -0.493314
      28A     -0.483188    29A     -0.461717    30A     -0.447581
      31A     -0.430033    32A     -0.402844

  @DF-RHF Final Energy:  -348.17443652756731

   => Energetics <=

    Nuclear Repulsion Energy =            399.8026497391485918
    One-Electron Energy =               -1264.9999294815470421
    Two-Electron Energy =                 517.0228432148311413
    Total Energy =                       -348.1744365275673090
  Basis Set: (AUG-CC-PVTZ AUX)
    Blend: AUG-CC-PVTZ-RI
    Molecular point group: c1

    Geometry (in Angstrom), charge = 0, multiplicity = 1:

       Center              X                  Y                   Z               Mass
    ------------   -----------------  -----------------  -----------------  -----------------
         O           -0.000563669951    -0.614708808737     0.010911588680    15.994914619570
         C            0.935788330049     0.409685191263    -0.445679411320    12.000000000000
         C           -0.936898669951     0.409672191263     0.467573588680    12.000000000000
         C           -0.000560669951     1.538606191263     0.010950588680    12.000000000000
         C            2.276498330049     0.306743691263     0.150174288680    12.000000000000
         C           -2.272294669951     0.285300191263    -0.232373411320    12.000000000000
         C            2.941784330049    -1.052415808737    -0.041271411320    12.000000000000
         C           -2.942905669951    -1.052418808737     0.063191588680    12.000000000000
         H            1.068738330049     0.340244191263    -1.535119411320     1.007825032230
         H           -1.069801669951     0.340197191263     1.557017588680     1.007825032230
         H            0.401710330049     2.171278191263     0.806753588680     1.007825032230
         H           -0.402843669951     2.171266191263    -0.784855411320     1.007825032230
         H            2.101589330049     0.392200191263     1.332564588680     1.007825032230
         H            2.911191330049     1.121217191263    -0.058910411320     1.007825032230
         H           -2.102768669951     0.392252191263    -1.310622411320     1.007825032230
         H           -2.912319669951     1.121212191263     0.080911588680     1.007825032230
         H            2.284029330049    -1.870675808737     0.260457588680     1.007825032230
         H            3.149144330049    -1.157489808737    -1.110869411320     1.007825032230
         H            3.888320330049    -1.150483808737     0.497562588680     1.007825032230
         H           -3.150205669951    -1.157543808737     1.132795588680     1.007825032230
         H           -3.889473669951    -1.150461808737    -0.475593411320     1.007825032230
         H           -2.285168669951    -1.870665808737    -0.238613411320     1.007825032230

  Basis Set: AUG-CC-PVTZ
    Blend: AUG-CC-PVTZ
  Basis Set: (AUG-CC-PVTZ AUX)
    Blend: AUG-CC-PVTZ-JKFIT
	 Reference Energy          =    -348.1744365275673090 [Eh]
	 Singles Energy            =      -0.0000000000000000 [Eh]
	 Same-Spin Energy          =      -0.3614232144371304 [Eh]
	 Opposite-Spin Energy      =      -1.2623328830472245 [Eh]
	 Correlation Energy        =      -1.6237560974843550 [Eh]
	 Total Energy              =    -349.7981926250516835 [Eh]

	 ================> DF-SCS-MP2 Energies <==================
	-----------------------------------------------------------
	 SCS Same-Spin Scale       =       0.3333333333333333 [-]
	 SCS Opposite-Spin Scale   =       1.2000000000000000 [-]
	 SCS Same-Spin Energy      =      -0.1204744048123768 [Eh]
	 SCS Opposite-Spin Energy  =      -1.5147994596566694 [Eh]
	 SCS Correlation Energy    =      -1.6352738644690461 [Eh]
	 SCS Total Energy          =    -349.8097103920363793 [Eh]
	-----------------------------------------------------------

  Dipole Moment: [D]
     X:     0.0270      Y:     1.7143      Z:    -0.0487     Total:     1.7152

*** Psi4 exiting successfully. Buy a developer a beer!
