                               Psi4 1.4a3.dev225

  ==> Input File <==

--------------------------------------------------------------------------
#psi4
#
memory 32 gb

molecule  {
0 1
  O       -0.0000020    -0.6102900    -0.0000420
  C        0.9363500     0.4141040    -0.4566330
  C       -0.9363370     0.4140910     0.4566200
  C        0.0000010     1.5430250    -0.0000030
  C        2.2717190     0.2897090     0.2433650
  C       -2.2717330     0.2897190    -0.2433270
  C        2.9423460    -1.0479970    -0.0522250
  C       -2.9423440    -1.0480000     0.0522380
  H        1.0693000     0.3446630    -1.5460730
  H       -1.0692400     0.3446160     1.5460640
  H        0.4022720     2.1756970     0.7958000
  H       -0.4022820     2.1756850    -0.7958090
  H        2.1021510     0.3966190     1.3216110
  H        2.9117530     1.1256360    -0.0698640
  H       -2.1022070     0.3966710    -1.3215760
  H       -2.9117580     1.1256310     0.0699580
  H        2.2845910    -1.8662570     0.2495040
  H        3.1459171    -1.1511511    -1.1022792
  H        3.8888820    -1.1460650     0.4866090
  H       -3.1496440    -1.1531250     1.1218420
  H       -3.8889120    -1.1460430    -0.4865470
  H       -2.2846070    -1.8662470    -0.2495670
units angstrom
no_reorient  #important for SAPT in psi4, default
symmetry c1  #important for SAPT in psi4, default
}

set PROPERTIES_ORIGIN ["COM"]
properties('MP2/aug-cc-pvtz', properties = ['dipole'])
--------------------------------------------------------------------------

    Molecular point group: c1
  Charge       = 0
  Multiplicity = 1
  Basis Set: AUG-CC-PVTZ
    Blend: AUG-CC-PVTZ
  Basis Set: (AUG-CC-PVTZ AUX)
    Blend: AUG-CC-PVTZ-JKFIT

    Orbital Energies [Eh]
    ---------------------

    Doubly Occupied:

       1A    -20.538031     2A    -11.276953     3A    -11.276952
       4A    -11.224025     5A    -11.218805     6A    -11.218581
       7A    -11.207338     8A    -11.204810     9A     -1.364950
      10A     -1.059913    11A     -1.047503    12A     -0.994446
      13A     -0.913815    14A     -0.847794    15A     -0.805365
      16A     -0.736060    17A     -0.671646    18A     -0.664914
      19A     -0.608005    20A     -0.601745    21A     -0.584343
      22A     -0.559771    23A     -0.551644    24A     -0.522165
      25A     -0.521097    26A     -0.499307    27A     -0.491826
      28A     -0.481414    29A     -0.480342    30A     -0.446171
      31A     -0.432334    32A     -0.401580

  @DF-RHF Final Energy:  -348.18634490651982

   => Energetics <=

    Nuclear Repulsion Energy =            399.5995079538005257
    One-Electron Energy =               -1264.6644165876134593
    Two-Electron Energy =                 516.8785637272931126
    Total Energy =                       -348.1863449065198211
  Basis Set: (AUG-CC-PVTZ AUX)
    Blend: AUG-CC-PVTZ-RI
    Molecular point group: c1

    Geometry (in Angstrom), charge = 0, multiplicity = 1:

       Center              X                  Y                   Z               Mass
    ------------   -----------------  -----------------  -----------------  -----------------
         O            0.000031491231    -0.612469570539    -0.000213552917    15.994914619570
         C            0.936383491231     0.411924429461    -0.456804552917    12.000000000000
         C           -0.936303508769     0.411911429461     0.456448447083    12.000000000000
         C            0.000034491231     1.540845429461    -0.000174552917    12.000000000000
         C            2.271752491231     0.287529429461     0.243193447083    12.000000000000
         C           -2.271699508769     0.287539429461    -0.243498552917    12.000000000000
         C            2.942379491231    -1.050176570539    -0.052396552917    12.000000000000
         C           -2.942310508769    -1.050179570539     0.052066447083    12.000000000000
         H            1.069333491231     0.342483429461    -1.546244552917     1.007825032230
         H           -1.069206508769     0.342436429461     1.545892447083     1.007825032230
         H            0.402305491231     2.173517429461     0.795628447083     1.007825032230
         H           -0.402248508769     2.173505429461    -0.795980552917     1.007825032230
         H            2.102184491231     0.394439429461     1.321439447083     1.007825032230
         H            2.911786491231     1.123456429461    -0.070035552917     1.007825032230
         H           -2.102173508769     0.394491429461    -1.321747552917     1.007825032230
         H           -2.911724508769     1.123451429461     0.069786447083     1.007825032230
         H            2.284624491231    -1.868436570539     0.249332447083     1.007825032230
         H            3.145950591231    -1.153330670539    -1.102450752917     1.007825032230
         H            3.888915491231    -1.148244570539     0.486437447083     1.007825032230
         H           -3.149610508769    -1.155304570539     1.121670447083     1.007825032230
         H           -3.888878508769    -1.148222570539    -0.486718552917     1.007825032230
         H           -2.284573508769    -1.868426570539    -0.249738552917     1.007825032230

  Basis Set: AUG-CC-PVTZ
    Blend: AUG-CC-PVTZ
  Basis Set: (AUG-CC-PVTZ AUX)
    Blend: AUG-CC-PVTZ-JKFIT
	 Reference Energy          =    -348.1863449065198211 [Eh]
	 Singles Energy            =      -0.0000000000000000 [Eh]
	 Same-Spin Energy          =      -0.3609360103025563 [Eh]
	 Opposite-Spin Energy      =      -1.2613688791213771 [Eh]
	 Correlation Energy        =      -1.6223048894239334 [Eh]
	 Total Energy              =    -349.8086497959437793 [Eh]

	 ================> DF-SCS-MP2 Energies <==================
	-----------------------------------------------------------
	 SCS Same-Spin Scale       =       0.3333333333333333 [-]
	 SCS Opposite-Spin Scale   =       1.2000000000000000 [-]
	 SCS Same-Spin Energy      =      -0.1203120034341854 [Eh]
	 SCS Opposite-Spin Energy  =      -1.5136426549456525 [Eh]
	 SCS Correlation Energy    =      -1.6339546583798379 [Eh]
	 SCS Total Energy          =    -349.8202995648996421 [Eh]
	-----------------------------------------------------------

  Dipole Moment: [D]
     X:     0.0047      Y:     1.7033      Z:    -0.0120     Total:     1.7034

*** Psi4 exiting successfully. Buy a developer a beer!
