                               Psi4 1.4a3.dev225

  ==> Input File <==

--------------------------------------------------------------------------
#psi4
#
memory 32 gb

molecule  {
0 1
  O       -0.0000020    -0.6102900    -0.0000420
  C        0.9363500     0.4141040    -0.4566330
  C       -0.9363370     0.4140910     0.4566200
  C        0.0000010     1.5430250    -0.0000030
  C        2.2717190     0.2897090     0.2433650
  C       -2.2717330     0.2897190    -0.2433270
  C        2.9423460    -1.0479970    -0.0522250
  C       -2.9423440    -1.0480000     0.0522380
  H        1.0693000     0.3446630    -1.5460730
  H       -1.0692400     0.3446160     1.5460640
  H        0.4022720     2.1756970     0.7958000
  H       -0.4022820     2.1756850    -0.7958090
  H        2.1021510     0.3966190     1.3216110
  H        2.9117530     1.1256360    -0.0698640
  H       -2.1022070     0.3966710    -1.3215760
  H       -2.9117580     1.1256310     0.0699580
  H        2.2845910    -1.8662570     0.2495040
  H        3.1497060    -1.1530710    -1.1218230
  H        3.8456046    -1.1415811     0.4619725
  H       -3.1496440    -1.1531250     1.1218420
  H       -3.8889120    -1.1460430    -0.4865470
  H       -2.2846070    -1.8662470    -0.2495670
units angstrom
no_reorient  #important for SAPT in psi4, default
symmetry c1  #important for SAPT in psi4, default
}

set PROPERTIES_ORIGIN ["COM"]
properties('MP2/aug-cc-pvtz', properties = ['dipole'])
--------------------------------------------------------------------------

    Molecular point group: c1
  Charge       = 0
  Multiplicity = 1
  Basis Set: AUG-CC-PVTZ
    Blend: AUG-CC-PVTZ
  Basis Set: (AUG-CC-PVTZ AUX)
    Blend: AUG-CC-PVTZ-JKFIT

    Orbital Energies [Eh]
    ---------------------

    Doubly Occupied:

       1A    -20.537773     2A    -11.276739     3A    -11.276595
       4A    -11.223737     5A    -11.218645     6A    -11.218354
       7A    -11.207206     8A    -11.201024     9A     -1.364676
      10A     -1.060006    11A     -1.047543    12A     -0.994751
      13A     -0.915144    14A     -0.848953    15A     -0.805292
      16A     -0.735711    17A     -0.671436    18A     -0.664944
      19A     -0.607166    20A     -0.602056    21A     -0.586490
      22A     -0.560950    23A     -0.552387    24A     -0.522841
      25A     -0.521009    26A     -0.498922    27A     -0.492910
      28A     -0.480778    29A     -0.480053    30A     -0.445909
      31A     -0.432414    32A     -0.401496

  @DF-RHF Final Energy:  -348.18531967962366

   => Energetics <=

    Nuclear Repulsion Energy =            399.7468757270563060
    One-Electron Energy =               -1264.9565674704081175
    Two-Electron Energy =                 517.0243720637281513
    Total Energy =                       -348.1853196796237171
  Basis Set: (AUG-CC-PVTZ AUX)
    Blend: AUG-CC-PVTZ-RI
    Molecular point group: c1

    Geometry (in Angstrom), charge = 0, multiplicity = 1:

       Center              X                  Y                   Z               Mass
    ------------   -----------------  -----------------  -----------------  -----------------
         O            0.000380272488    -0.612492217009     0.000176668554    15.994914619570
         C            0.936732272488     0.411901782991    -0.456414331446    12.000000000000
         C           -0.935954727512     0.411888782991     0.456838668554    12.000000000000
         C            0.000383272488     1.540822782991     0.000215668554    12.000000000000
         C            2.272101272488     0.287506782991     0.243583668554    12.000000000000
         C           -2.271350727512     0.287516782991    -0.243108331446    12.000000000000
         C            2.942728272488    -1.050199217009    -0.052006331446    12.000000000000
         C           -2.941961727512    -1.050202217009     0.052456668554    12.000000000000
         H            1.069682272488     0.342460782991    -1.545854331446     1.007825032230
         H           -1.068857727512     0.342413782991     1.546282668554     1.007825032230
         H            0.402654272488     2.173494782991     0.796018668554     1.007825032230
         H           -0.401899727512     2.173482782991    -0.795590331446     1.007825032230
         H            2.102533272488     0.394416782991     1.321829668554     1.007825032230
         H            2.912135272488     1.123433782991    -0.069645331446     1.007825032230
         H           -2.101824727512     0.394468782991    -1.321357331446     1.007825032230
         H           -2.911375727512     1.123428782991     0.070176668554     1.007825032230
         H            2.284973272488    -1.868459217009     0.249722668554     1.007825032230
         H            3.150088272488    -1.155273217009    -1.121604331446     1.007825032230
         H            3.845986872488    -1.143783317009     0.462191168554     1.007825032230
         H           -3.149261727512    -1.155327217009     1.122060668554     1.007825032230
         H           -3.888529727512    -1.148245217009    -0.486328331446     1.007825032230
         H           -2.284224727512    -1.868449217009    -0.249348331446     1.007825032230

  Basis Set: AUG-CC-PVTZ
    Blend: AUG-CC-PVTZ
  Basis Set: (AUG-CC-PVTZ AUX)
    Blend: AUG-CC-PVTZ-JKFIT
	 Reference Energy          =    -348.1853196796236602 [Eh]
	 Singles Energy            =      -0.0000000000000000 [Eh]
	 Same-Spin Energy          =      -0.3609615653837812 [Eh]
	 Opposite-Spin Energy      =      -1.2612247490531117 [Eh]
	 Correlation Energy        =      -1.6221863144368929 [Eh]
	 Total Energy              =    -349.8075059940605342 [Eh]

	 ================> DF-SCS-MP2 Energies <==================
	-----------------------------------------------------------
	 SCS Same-Spin Scale       =       0.3333333333333333 [-]
	 SCS Opposite-Spin Scale   =       1.2000000000000000 [-]
	 SCS Same-Spin Energy      =      -0.1203205217945937 [Eh]
	 SCS Opposite-Spin Energy  =      -1.5134696988637339 [Eh]
	 SCS Correlation Energy    =      -1.6337902206583277 [Eh]
	 SCS Total Energy          =    -349.8191099002820010 [Eh]
	-----------------------------------------------------------

  Dipole Moment: [D]
     X:     0.0360      Y:     1.6950      Z:     0.0114     Total:     1.6954

*** Psi4 exiting successfully. Buy a developer a beer!
