                               Psi4 1.4a3.dev225

  ==> Input File <==

--------------------------------------------------------------------------
#psi4
#
memory 32 gb

molecule  {
0 1
  O       -0.0000020    -0.6102900    -0.0000420
  C        0.9363500     0.4141040    -0.4566330
  C       -0.9363370     0.4140910     0.4566200
  C        0.0000010     1.5430250    -0.0000030
  C        2.2717190     0.2897090     0.2433650
  C       -2.2717330     0.2897190    -0.2433270
  C        2.9423460    -1.0479970    -0.0522250
  C       -2.9423440    -1.0480000     0.0522380
  H        1.0451211     0.3572919    -1.3479420
  H       -1.0692400     0.3446160     1.5460640
  H        0.4022720     2.1756970     0.7958000
  H       -0.4022820     2.1756850    -0.7958090
  H        2.1021510     0.3966190     1.3216110
  H        2.9117530     1.1256360    -0.0698640
  H       -2.1022070     0.3966710    -1.3215760
  H       -2.9117580     1.1256310     0.0699580
  H        2.2845910    -1.8662570     0.2495040
  H        3.1497060    -1.1530710    -1.1218230
  H        3.8888820    -1.1460650     0.4866090
  H       -3.1496440    -1.1531250     1.1218420
  H       -3.8889120    -1.1460430    -0.4865470
  H       -2.2846070    -1.8662470    -0.2495670
units angstrom
no_reorient  #important for SAPT in psi4, default
symmetry c1  #important for SAPT in psi4, default
}

set PROPERTIES_ORIGIN ["COM"]
properties('MP2/aug-cc-pvtz', properties = ['dipole'])
--------------------------------------------------------------------------

    Molecular point group: c1
  Charge       = 0
  Multiplicity = 1
  Basis Set: AUG-CC-PVTZ
    Blend: AUG-CC-PVTZ
  Basis Set: (AUG-CC-PVTZ AUX)
    Blend: AUG-CC-PVTZ-JKFIT

    Orbital Energies [Eh]
    ---------------------

    Doubly Occupied:

       1A    -20.535159     2A    -11.275814     3A    -11.251634
       4A    -11.222368     5A    -11.218290     6A    -11.217136
       7A    -11.207479     8A    -11.206880     9A     -1.363763
      10A     -1.063563    11A     -1.048128    12A     -0.993986
      13A     -0.923263    14A     -0.847991    15A     -0.818970
      16A     -0.751102    17A     -0.677112    18A     -0.666500
      19A     -0.606580    20A     -0.601111    21A     -0.584198
      22A     -0.567923    23A     -0.551107    24A     -0.522610
      25A     -0.520456    26A     -0.498929    27A     -0.491355
      28A     -0.482583    29A     -0.479760    30A     -0.444461
      31A     -0.435050    32A     -0.403639

  @DF-RHF Final Energy:  -348.15494130960946

   => Energetics <=

    Nuclear Repulsion Energy =            400.7136723422873388
    One-Electron Energy =               -1266.7794286595908488
    Two-Electron Energy =                 517.9108150076941683
    Total Energy =                       -348.1549413096093986
  Basis Set: (AUG-CC-PVTZ AUX)
    Blend: AUG-CC-PVTZ-RI
    Molecular point group: c1

    Geometry (in Angstrom), charge = 0, multiplicity = 1:

       Center              X                  Y                   Z               Mass
    ------------   -----------------  -----------------  -----------------  -----------------
         O            0.000211585431    -0.612564157532    -0.001790920205    15.994914619570
         C            0.936563585431     0.411829842468    -0.458381920205    12.000000000000
         C           -0.936123414569     0.411816842468     0.454871079795    12.000000000000
         C            0.000214585431     1.540750842468    -0.001751920205    12.000000000000
         C            2.271932585431     0.287434842468     0.241616079795    12.000000000000
         C           -2.271519414569     0.287444842468    -0.245075920205    12.000000000000
         C            2.942559585431    -1.050271157532    -0.053973920205    12.000000000000
         C           -2.942130414569    -1.050274157532     0.050489079795    12.000000000000
         H            1.045334685431     0.355017742468    -1.349690920205     1.007825032230
         H           -1.069026414569     0.342341842468     1.544315079795     1.007825032230
         H            0.402485585431     2.173422842468     0.794051079795     1.007825032230
         H           -0.402068414569     2.173410842468    -0.797557920205     1.007825032230
         H            2.102364585431     0.394344842468     1.319862079795     1.007825032230
         H            2.911966585431     1.123361842468    -0.071612920205     1.007825032230
         H           -2.101993414569     0.394396842468    -1.323324920205     1.007825032230
         H           -2.911544414569     1.123356842468     0.068209079795     1.007825032230
         H            2.284804585431    -1.868531157532     0.247755079795     1.007825032230
         H            3.149919585431    -1.155345157532    -1.123571920205     1.007825032230
         H            3.889095585431    -1.148339157532     0.484860079795     1.007825032230
         H           -3.149430414569    -1.155399157532     1.120093079795     1.007825032230
         H           -3.888698414569    -1.148317157532    -0.488295920205     1.007825032230
         H           -2.284393414569    -1.868521157532    -0.251315920205     1.007825032230

  Basis Set: AUG-CC-PVTZ
    Blend: AUG-CC-PVTZ
  Basis Set: (AUG-CC-PVTZ AUX)
    Blend: AUG-CC-PVTZ-JKFIT
	 Reference Energy          =    -348.1549413096094554 [Eh]
	 Singles Energy            =      -0.0000000000000000 [Eh]
	 Same-Spin Energy          =      -0.3607053484816244 [Eh]
	 Opposite-Spin Energy      =      -1.2605327829889879 [Eh]
	 Correlation Energy        =      -1.6212381314706121 [Eh]
	 Total Energy              =    -349.7761794410800462 [Eh]

	 ================> DF-SCS-MP2 Energies <==================
	-----------------------------------------------------------
	 SCS Same-Spin Scale       =       0.3333333333333333 [-]
	 SCS Opposite-Spin Scale   =       1.2000000000000000 [-]
	 SCS Same-Spin Energy      =      -0.1202351161605415 [Eh]
	 SCS Opposite-Spin Energy  =      -1.5126393395867854 [Eh]
	 SCS Correlation Energy    =      -1.6328744557473269 [Eh]
	 SCS Total Energy          =    -349.7878157653567541 [Eh]
	-----------------------------------------------------------

  Dipole Moment: [D]
     X:     0.0596      Y:     1.7144      Z:    -0.1126     Total:     1.7191

*** Psi4 exiting successfully. Buy a developer a beer!
