                               Psi4 1.4a3.dev225

  ==> Input File <==

--------------------------------------------------------------------------
#psi4
#
memory 32 gb

molecule  {
0 1
  O       -0.0000020    -0.6102900    -0.0000420
  C        0.9363500     0.4141040    -0.4566330
  C       -0.9363370     0.4140910     0.4566200
  C        0.0000010     1.5430250    -0.0000030
  C        2.2717190     0.2897090     0.2433650
  C       -2.2717330     0.2897190    -0.2433270
  C        2.9423460    -1.0479970    -0.0522250
  C       -2.9423440    -1.0480000     0.0522380
  H        1.0693000     0.3446630    -1.5460730
  H       -1.0692400     0.3446160     1.5460640
  H        0.4022720     2.1756970     0.7958000
  H       -0.4022820     2.1756850    -0.7958090
  H        2.1021510     0.3966190     1.3216110
  H        2.9117530     1.1256360    -0.0698640
  H       -2.1022070     0.3966710    -1.3215760
  H       -2.9117580     1.1256310     0.0699580
  H        2.2845910    -1.8662570     0.2495040
  H        3.1497060    -1.1530710    -1.1218230
  H        3.8888820    -1.1460650     0.4866090
  H       -3.1927803    -1.0902596     1.1169319
  H       -3.8889120    -1.1460430    -0.4865470
  H       -2.2846070    -1.8662470    -0.2495670
units angstrom
no_reorient  #important for SAPT in psi4, default
symmetry c1  #important for SAPT in psi4, default
}

set PROPERTIES_ORIGIN ["COM"]
properties('MP2/aug-cc-pvtz', properties = ['dipole'])
--------------------------------------------------------------------------

    Molecular point group: c1
  Charge       = 0
  Multiplicity = 1
  Basis Set: AUG-CC-PVTZ
    Blend: AUG-CC-PVTZ
  Basis Set: (AUG-CC-PVTZ AUX)
    Blend: AUG-CC-PVTZ-JKFIT

    Orbital Energies [Eh]
    ---------------------

    Doubly Occupied:

       1A    -20.538088     2A    -11.276970     3A    -11.276906
       4A    -11.224024     5A    -11.218805     6A    -11.218349
       7A    -11.207582     8A    -11.207337     9A     -1.364982
      10A     -1.059876    11A     -1.047491    12A     -0.994291
      13A     -0.913246    14A     -0.846789    15A     -0.804647
      16A     -0.735776    17A     -0.671854    18A     -0.664832
      19A     -0.607684    20A     -0.603005    21A     -0.584354
      22A     -0.558418    23A     -0.552020    24A     -0.522737
      25A     -0.520601    26A     -0.496311    27A     -0.492806
      28A     -0.481641    29A     -0.479219    30A     -0.446302
      31A     -0.432316    32A     -0.401570

  @DF-RHF Final Energy:  -348.18576519443491

   => Energetics <=

    Nuclear Repulsion Energy =            399.5163303712776610
    One-Electron Energy =               -1264.5025289880150012
    Two-Electron Energy =                 516.8004334223023761
    Total Energy =                       -348.1857651944349072
  Basis Set: (AUG-CC-PVTZ AUX)
    Blend: AUG-CC-PVTZ-RI
    Molecular point group: c1

    Geometry (in Angstrom), charge = 0, multiplicity = 1:

       Center              X                  Y                   Z               Mass
    ------------   -----------------  -----------------  -----------------  -----------------
         O            0.000379026226    -0.613007870249     0.000002435585    15.994914619570
         C            0.936731026226     0.411386129751    -0.456588564415    12.000000000000
         C           -0.935955973774     0.411373129751     0.456664435585    12.000000000000
         C            0.000382026226     1.540307129751     0.000041435585    12.000000000000
         C            2.272100026226     0.286991129751     0.243409435585    12.000000000000
         C           -2.271351973774     0.287001129751    -0.243282564415    12.000000000000
         C            2.942727026226    -1.050714870249    -0.052180564415    12.000000000000
         C           -2.941962973774    -1.050717870249     0.052282435585    12.000000000000
         H            1.069681026226     0.341945129751    -1.546028564415     1.007825032230
         H           -1.068858973774     0.341898129751     1.546108435585     1.007825032230
         H            0.402653026226     2.172979129751     0.795844435585     1.007825032230
         H           -0.401900973774     2.172967129751    -0.795764564415     1.007825032230
         H            2.102532026226     0.393901129751     1.321655435585     1.007825032230
         H            2.912134026226     1.122918129751    -0.069819564415     1.007825032230
         H           -2.101825973774     0.393953129751    -1.321531564415     1.007825032230
         H           -2.911376973774     1.122913129751     0.070002435585     1.007825032230
         H            2.284972026226    -1.868974870249     0.249548435585     1.007825032230
         H            3.150087026226    -1.155788870249    -1.121778564415     1.007825032230
         H            3.889263026226    -1.148782870249     0.486653435585     1.007825032230
         H           -3.192399273774    -1.092977470249     1.116976335585     1.007825032230
         H           -3.888530973774    -1.148760870249    -0.486502564415     1.007825032230
         H           -2.284225973774    -1.868964870249    -0.249522564415     1.007825032230

  Basis Set: AUG-CC-PVTZ
    Blend: AUG-CC-PVTZ
  Basis Set: (AUG-CC-PVTZ AUX)
    Blend: AUG-CC-PVTZ-JKFIT
	 Reference Energy          =    -348.1857651944349072 [Eh]
	 Singles Energy            =      -0.0000000000000000 [Eh]
	 Same-Spin Energy          =      -0.3609538738284622 [Eh]
	 Opposite-Spin Energy      =      -1.2615452947293981 [Eh]
	 Correlation Energy        =      -1.6224991685578605 [Eh]
	 Total Energy              =    -349.8082643629927588 [Eh]

	 ================> DF-SCS-MP2 Energies <==================
	-----------------------------------------------------------
	 SCS Same-Spin Scale       =       0.3333333333333333 [-]
	 SCS Opposite-Spin Scale   =       1.2000000000000000 [-]
	 SCS Same-Spin Energy      =      -0.1203179579428207 [Eh]
	 SCS Opposite-Spin Energy  =      -1.5138543536752778 [Eh]
	 SCS Correlation Energy    =      -1.6341723116180984 [Eh]
	 SCS Total Energy          =    -349.8199375060530087 [Eh]
	-----------------------------------------------------------

  Dipole Moment: [D]
     X:    -0.0161      Y:     1.7193      Z:    -0.0042     Total:     1.7193

*** Psi4 exiting successfully. Buy a developer a beer!
