                               Psi4 1.4a3.dev225

  ==> Input File <==

--------------------------------------------------------------------------
#psi4
#
memory 32 gb

molecule  {
0 1
  O       -0.0000020    -0.6102900    -0.0000420
  C        0.9363500     0.4141040    -0.4566330
  C       -0.9363370     0.4140910     0.4566200
  C        0.0000010     1.5430250    -0.0000030
  C        2.2717190     0.2897090     0.2433650
  C       -2.2717330     0.2897190    -0.2433270
  C        2.9423460    -1.0479970    -0.0522250
  C       -2.9423440    -1.0480000     0.0522380
  H        1.0693000     0.3446630    -1.5460730
  H       -1.0692400     0.3446160     1.5460640
  H        0.4022720     2.1756970     0.7958000
  H       -0.4022820     2.1756850    -0.7958090
  H        2.0990587     0.3985686     1.3412741
  H        2.9117530     1.1256360    -0.0698640
  H       -2.1022070     0.3966710    -1.3215760
  H       -2.9117580     1.1256310     0.0699580
  H        2.2845910    -1.8662570     0.2495040
  H        3.1497060    -1.1530710    -1.1218230
  H        3.8888820    -1.1460650     0.4866090
  H       -3.1496440    -1.1531250     1.1218420
  H       -3.8889120    -1.1460430    -0.4865470
  H       -2.2846070    -1.8662470    -0.2495670
units angstrom
no_reorient  #important for SAPT in psi4, default
symmetry c1  #important for SAPT in psi4, default
}

set PROPERTIES_ORIGIN ["COM"]
properties('MP2/aug-cc-pvtz', properties = ['dipole'])
--------------------------------------------------------------------------

    Molecular point group: c1
  Charge       = 0
  Multiplicity = 1
  Basis Set: AUG-CC-PVTZ
    Blend: AUG-CC-PVTZ
  Basis Set: (AUG-CC-PVTZ AUX)
    Blend: AUG-CC-PVTZ-JKFIT

    Orbital Energies [Eh]
    ---------------------

    Doubly Occupied:

       1A    -20.538108     2A    -11.277219     3A    -11.276980
       4A    -11.224067     5A    -11.221328     6A    -11.218829
       7A    -11.207598     8A    -11.207357     9A     -1.365015
      10A     -1.059432    11A     -1.047111    12A     -0.994154
      13A     -0.913293    14A     -0.846777    15A     -0.804217
      16A     -0.735484    17A     -0.671789    18A     -0.664575
      19A     -0.607023    20A     -0.601514    21A     -0.583706
      22A     -0.558769    23A     -0.551774    24A     -0.522192
      25A     -0.521264    26A     -0.497964    27A     -0.491950
      28A     -0.480492    29A     -0.479012    30A     -0.446272
      31A     -0.432367    32A     -0.401717

  @DF-RHF Final Energy:  -348.18584135804622

   => Energetics <=

    Nuclear Repulsion Energy =            399.4268794933499862
    One-Electron Energy =               -1264.3267378449404532
    Two-Electron Energy =                 516.7140169935441918
    Total Energy =                       -348.1858413580462184
  Basis Set: (AUG-CC-PVTZ AUX)
    Blend: AUG-CC-PVTZ-RI
    Molecular point group: c1

    Geometry (in Angstrom), charge = 0, multiplicity = 1:

       Center              X                  Y                   Z               Mass
    ------------   -----------------  -----------------  -----------------  -----------------
         O            0.000025338527    -0.612469832864    -0.000214606632    15.994914619570
         C            0.936377338527     0.411924167136    -0.456805606632    12.000000000000
         C           -0.936309661473     0.411911167136     0.456447393368    12.000000000000
         C            0.000028338527     1.540845167136    -0.000175606632    12.000000000000
         C            2.271746338527     0.287529167136     0.243192393368    12.000000000000
         C           -2.271705661473     0.287539167136    -0.243499606632    12.000000000000
         C            2.942373338527    -1.050176832864    -0.052397606632    12.000000000000
         C           -2.942316661473    -1.050179832864     0.052065393368    12.000000000000
         H            1.069327338527     0.342483167136    -1.546245606632     1.007825032230
         H           -1.069212661473     0.342436167136     1.545891393368     1.007825032230
         H            0.402299338527     2.173517167136     0.795627393368     1.007825032230
         H           -0.402254661473     2.173505167136    -0.795981606632     1.007825032230
         H            2.099086038527     0.396388767136     1.341101493368     1.007825032230
         H            2.911780338527     1.123456167136    -0.070036606632     1.007825032230
         H           -2.102179661473     0.394491167136    -1.321748606632     1.007825032230
         H           -2.911730661473     1.123451167136     0.069785393368     1.007825032230
         H            2.284618338527    -1.868436832864     0.249331393368     1.007825032230
         H            3.149733338527    -1.155250832864    -1.121995606632     1.007825032230
         H            3.888909338527    -1.148244832864     0.486436393368     1.007825032230
         H           -3.149616661473    -1.155304832864     1.121669393368     1.007825032230
         H           -3.888884661473    -1.148222832864    -0.486719606632     1.007825032230
         H           -2.284579661473    -1.868426832864    -0.249739606632     1.007825032230

  Basis Set: AUG-CC-PVTZ
    Blend: AUG-CC-PVTZ
  Basis Set: (AUG-CC-PVTZ AUX)
    Blend: AUG-CC-PVTZ-JKFIT
	 Reference Energy          =    -348.1858413580462184 [Eh]
	 Singles Energy            =      -0.0000000000000000 [Eh]
	 Same-Spin Energy          =      -0.3609308288193465 [Eh]
	 Opposite-Spin Energy      =      -1.2616114108393257 [Eh]
	 Correlation Energy        =      -1.6225422396586722 [Eh]
	 Total Energy              =    -349.8083835977049034 [Eh]

	 ================> DF-SCS-MP2 Energies <==================
	-----------------------------------------------------------
	 SCS Same-Spin Scale       =       0.3333333333333333 [-]
	 SCS Opposite-Spin Scale   =       1.2000000000000000 [-]
	 SCS Same-Spin Energy      =      -0.1203102762731155 [Eh]
	 SCS Opposite-Spin Energy  =      -1.5139336930071907 [Eh]
	 SCS Correlation Energy    =      -1.6342439692803061 [Eh]
	 SCS Total Energy          =    -349.8200853273265238 [Eh]
	-----------------------------------------------------------

  Dipole Moment: [D]
     X:     0.0015      Y:     1.7026      Z:    -0.0128     Total:     1.7026

*** Psi4 exiting successfully. Buy a developer a beer!
