                               Psi4 1.4a3.dev225

  ==> Input File <==

--------------------------------------------------------------------------
#psi4
#
memory 32 gb

molecule  {
0 1
  O       -0.0000020    -0.6102900    -0.0000420
  C        0.9363500     0.4141040    -0.4566330
  C       -0.9363370     0.4140910     0.4566200
  C        0.0000010     1.5430250    -0.0000030
  C        2.2717190     0.2897090     0.2433650
  C       -2.2717330     0.2897190    -0.2433270
  C        2.9423460    -1.0479970    -0.0522250
  C       -2.9423440    -1.0480000     0.0522380
  H        1.0632553     0.3478202    -1.4965403
  H       -1.0692400     0.3446160     1.5460640
  H        0.4022720     2.1756970     0.7958000
  H       -0.4022820     2.1756850    -0.7958090
  H        2.1021510     0.3966190     1.3216110
  H        2.9117530     1.1256360    -0.0698640
  H       -2.1022070     0.3966710    -1.3215760
  H       -2.9117580     1.1256310     0.0699580
  H        2.2845910    -1.8662570     0.2495040
  H        3.1497060    -1.1530710    -1.1218230
  H        3.8888820    -1.1460650     0.4866090
  H       -3.1496440    -1.1531250     1.1218420
  H       -3.8889120    -1.1460430    -0.4865470
  H       -2.2846070    -1.8662470    -0.2495670
units angstrom
no_reorient  #important for SAPT in psi4, default
symmetry c1  #important for SAPT in psi4, default
}

set PROPERTIES_ORIGIN ["COM"]
properties('MP2/aug-cc-pvtz', properties = ['dipole'])
--------------------------------------------------------------------------

    Molecular point group: c1
  Charge       = 0
  Multiplicity = 1
  Basis Set: AUG-CC-PVTZ
    Blend: AUG-CC-PVTZ
  Basis Set: (AUG-CC-PVTZ AUX)
    Blend: AUG-CC-PVTZ-JKFIT

    Orbital Energies [Eh]
    ---------------------

    Doubly Occupied:

       1A    -20.537148     2A    -11.276605     3A    -11.270694
       4A    -11.223504     5A    -11.218657     6A    -11.218284
       7A    -11.207371     8A    -11.207205     9A     -1.364480
      10A     -1.060239    11A     -1.047469    12A     -0.994001
      13A     -0.914853    14A     -0.847137    15A     -0.807625
      16A     -0.739496    17A     -0.672762    18A     -0.665869
      19A     -0.607132    20A     -0.601466    21A     -0.584017
      22A     -0.561286    23A     -0.551515    24A     -0.522269
      25A     -0.520954    26A     -0.498549    27A     -0.491705
      28A     -0.481134    29A     -0.480187    30A     -0.445661
      31A     -0.433082    32A     -0.402274

  @DF-RHF Final Energy:  -348.18571932351739

   => Energetics <=

    Nuclear Repulsion Energy =            399.7890277092093925
    One-Electron Energy =               -1265.0402309521889492
    Two-Electron Energy =                 517.0654839194620536
    Total Energy =                       -348.1857193235174464
  Basis Set: (AUG-CC-PVTZ AUX)
    Blend: AUG-CC-PVTZ-RI
    Molecular point group: c1

    Geometry (in Angstrom), charge = 0, multiplicity = 1:

       Center              X                  Y                   Z               Mass
    ------------   -----------------  -----------------  -----------------  -----------------
         O            0.000051415532    -0.612480498962    -0.000478429179    15.994914619570
         C            0.936403415532     0.411913501038    -0.457069429179    12.000000000000
         C           -0.936283584468     0.411900501038     0.456183570821    12.000000000000
         C            0.000054415532     1.540834501038    -0.000439429179    12.000000000000
         C            2.271772415532     0.287518501038     0.242928570821    12.000000000000
         C           -2.271679584468     0.287528501038    -0.243763429179    12.000000000000
         C            2.942399415532    -1.050187498962    -0.052661429179    12.000000000000
         C           -2.942290584468    -1.050190498962     0.051801570821    12.000000000000
         H            1.063308715532     0.345629701038    -1.496976729179     1.007825032230
         H           -1.069186584468     0.342425501038     1.545627570821     1.007825032230
         H            0.402325415532     2.173506501038     0.795363570821     1.007825032230
         H           -0.402228584468     2.173494501038    -0.796245429179     1.007825032230
         H            2.102204415532     0.394428501038     1.321174570821     1.007825032230
         H            2.911806415532     1.123445501038    -0.070300429179     1.007825032230
         H           -2.102153584468     0.394480501038    -1.322012429179     1.007825032230
         H           -2.911704584468     1.123440501038     0.069521570821     1.007825032230
         H            2.284644415532    -1.868447498962     0.249067570821     1.007825032230
         H            3.149759415532    -1.155261498962    -1.122259429179     1.007825032230
         H            3.888935415532    -1.148255498962     0.486172570821     1.007825032230
         H           -3.149590584468    -1.155315498962     1.121405570821     1.007825032230
         H           -3.888858584468    -1.148233498962    -0.486983429179     1.007825032230
         H           -2.284553584468    -1.868437498962    -0.250003429179     1.007825032230

  Basis Set: AUG-CC-PVTZ
    Blend: AUG-CC-PVTZ
  Basis Set: (AUG-CC-PVTZ AUX)
    Blend: AUG-CC-PVTZ-JKFIT
	 Reference Energy          =    -348.1857193235173895 [Eh]
	 Singles Energy            =      -0.0000000000000000 [Eh]
	 Same-Spin Energy          =      -0.3608386738050399 [Eh]
	 Opposite-Spin Energy      =      -1.2610916512201067 [Eh]
	 Correlation Energy        =      -1.6219303250251467 [Eh]
	 Total Energy              =    -349.8076496485425082 [Eh]

	 ================> DF-SCS-MP2 Energies <==================
	-----------------------------------------------------------
	 SCS Same-Spin Scale       =       0.3333333333333333 [-]
	 SCS Opposite-Spin Scale   =       1.2000000000000000 [-]
	 SCS Same-Spin Energy      =      -0.1202795579350133 [Eh]
	 SCS Opposite-Spin Energy  =      -1.5133099814641280 [Eh]
	 SCS Correlation Energy    =      -1.6335895393991413 [Eh]
	 SCS Total Energy          =    -349.8193088629165572 [Eh]
	-----------------------------------------------------------

  Dipole Moment: [D]
     X:     0.0181      Y:     1.7091      Z:    -0.0383     Total:     1.7096

*** Psi4 exiting successfully. Buy a developer a beer!
