                               Psi4 1.4a3.dev225

  ==> Input File <==

--------------------------------------------------------------------------
#psi4
#
memory 32 gb

molecule  {
0 1
  O       -0.0000020    -0.6102900    -0.0000420
  C        0.9363500     0.4141040    -0.4566330
  C       -0.9363370     0.4140910     0.4566200
  C        0.0000010     1.5430250    -0.0000030
  C        2.2717190     0.2897090     0.2433650
  C       -2.2717330     0.2897190    -0.2433270
  C        2.9423460    -1.0479970    -0.0522250
  C       -2.9423440    -1.0480000     0.0522380
  H        1.0693000     0.3446630    -1.5460730
  H       -1.0692400     0.3446160     1.5460640
  H        0.4022720     2.1756970     0.7958000
  H       -0.4022820     2.1756850    -0.7958090
  H        2.1021510     0.3966190     1.3216110
  H        2.9117530     1.1256360    -0.0698640
  H       -2.1022070     0.3966710    -1.3215760
  H       -2.8826241     1.0875804     0.0556973
  H        2.2845910    -1.8662570     0.2495040
  H        3.1497060    -1.1530710    -1.1218230
  H        3.8888820    -1.1460650     0.4866090
  H       -3.1496440    -1.1531250     1.1218420
  H       -3.8889120    -1.1460430    -0.4865470
  H       -2.2846070    -1.8662470    -0.2495670
units angstrom
no_reorient  #important for SAPT in psi4, default
symmetry c1  #important for SAPT in psi4, default
}

set PROPERTIES_ORIGIN ["COM"]
properties('MP2/aug-cc-pvtz', properties = ['dipole'])
--------------------------------------------------------------------------

    Molecular point group: c1
  Charge       = 0
  Multiplicity = 1
  Basis Set: AUG-CC-PVTZ
    Blend: AUG-CC-PVTZ
  Basis Set: (AUG-CC-PVTZ AUX)
    Blend: AUG-CC-PVTZ-JKFIT

    Orbital Energies [Eh]
    ---------------------

    Doubly Occupied:

       1A    -20.537615     2A    -11.276812     3A    -11.276541
       4A    -11.223988     5A    -11.218691     6A    -11.212436
       7A    -11.207233     8A    -11.206798     9A     -1.364599
      10A     -1.060819    11A     -1.048197    12A     -0.994265
      13A     -0.912922    14A     -0.848462    15A     -0.806851
      16A     -0.736454    17A     -0.673897    18A     -0.664664
      19A     -0.607396    20A     -0.604298    21A     -0.583913
      22A     -0.558610    23A     -0.551721    24A     -0.521978
      25A     -0.521186    26A     -0.498535    27A     -0.493436
      28A     -0.482373    29A     -0.480270    30A     -0.446224
      31A     -0.432193    32A     -0.401319

  @DF-RHF Final Energy:  -348.18542720542411

   => Energetics <=

    Nuclear Repulsion Energy =            399.7659408624586490
    One-Electron Energy =               -1264.9933476513342612
    Two-Electron Energy =                 517.0419795834516208
    Total Energy =                       -348.1854272054240482
  Basis Set: (AUG-CC-PVTZ AUX)
    Blend: AUG-CC-PVTZ-RI
    Molecular point group: c1

    Geometry (in Angstrom), charge = 0, multiplicity = 1:

       Center              X                  Y                   Z               Mass
    ------------   -----------------  -----------------  -----------------  -----------------
         O           -0.000259298634    -0.612116532028     0.000085024542    15.994914619570
         C            0.936092701366     0.412277467972    -0.456505975458    12.000000000000
         C           -0.936594298634     0.412264467972     0.456747024542    12.000000000000
         C           -0.000256298634     1.541198467972     0.000124024542    12.000000000000
         C            2.271461701366     0.287882467972     0.243492024542    12.000000000000
         C           -2.271990298634     0.287892467972    -0.243199975458    12.000000000000
         C            2.942088701366    -1.049823532028    -0.052097975458    12.000000000000
         C           -2.942601298634    -1.049826532028     0.052365024542    12.000000000000
         H            1.069042701366     0.342836467972    -1.545945975458     1.007825032230
         H           -1.069497298634     0.342789467972     1.546191024542     1.007825032230
         H            0.402014701366     2.173870467972     0.795927024542     1.007825032230
         H           -0.402539298634     2.173858467972    -0.795681975458     1.007825032230
         H            2.101893701366     0.394792467972     1.321738024542     1.007825032230
         H            2.911495701366     1.123809467972    -0.069736975458     1.007825032230
         H           -2.102464298634     0.394844467972    -1.321448975458     1.007825032230
         H           -2.882881398634     1.085753867972     0.055824324542     1.007825032230
         H            2.284333701366    -1.868083532028     0.249631024542     1.007825032230
         H            3.149448701366    -1.154897532028    -1.121695975458     1.007825032230
         H            3.888624701366    -1.147891532028     0.486736024542     1.007825032230
         H           -3.149901298634    -1.154951532028     1.121969024542     1.007825032230
         H           -3.889169298634    -1.147869532028    -0.486419975458     1.007825032230
         H           -2.284864298634    -1.868073532028    -0.249439975458     1.007825032230

  Basis Set: AUG-CC-PVTZ
    Blend: AUG-CC-PVTZ
  Basis Set: (AUG-CC-PVTZ AUX)
    Blend: AUG-CC-PVTZ-JKFIT
	 Reference Energy          =    -348.1854272054241051 [Eh]
	 Singles Energy            =      -0.0000000000000000 [Eh]
	 Same-Spin Energy          =      -0.3609276608147595 [Eh]
	 Opposite-Spin Energy      =      -1.2611863547472502 [Eh]
	 Correlation Energy        =      -1.6221140155620097 [Eh]
	 Total Energy              =    -349.8075412209861383 [Eh]

	 ================> DF-SCS-MP2 Energies <==================
	-----------------------------------------------------------
	 SCS Same-Spin Scale       =       0.3333333333333333 [-]
	 SCS Opposite-Spin Scale   =       1.2000000000000000 [-]
	 SCS Same-Spin Energy      =      -0.1203092202715865 [Eh]
	 SCS Opposite-Spin Energy  =      -1.5134236256967002 [Eh]
	 SCS Correlation Energy    =      -1.6337328459682867 [Eh]
	 SCS Total Energy          =    -349.8191600513923731 [Eh]
	-----------------------------------------------------------

  Dipole Moment: [D]
     X:    -0.0198      Y:     1.7360      Z:     0.0051     Total:     1.7361

*** Psi4 exiting successfully. Buy a developer a beer!
