                               Psi4 1.4a3.dev225

  ==> Input File <==

--------------------------------------------------------------------------
#psi4
#
memory 32 gb

molecule  {
0 1
  O       -0.0000020    -0.6102900    -0.0000420
  C        0.9363500     0.4141040    -0.4566330
  C       -0.9363370     0.4140910     0.4566200
  C        0.0000010     1.5430250    -0.0000030
  C        2.2717190     0.2897090     0.2433650
  C       -2.2717330     0.2897190    -0.2433270
  C        2.9423460    -1.0479970    -0.0522250
  C       -2.9423440    -1.0480000     0.0522380
  H        1.0693000     0.3446630    -1.5460730
  H       -1.0692400     0.3446160     1.5460640
  H        0.4022720     2.1756970     0.7958000
  H       -0.4022820     2.1756850    -0.7958090
  H        2.1021510     0.3966190     1.3216110
  H        2.9117530     1.1256360    -0.0698640
  H       -2.1022070     0.3966710    -1.3215760
  H       -2.9117580     1.1256310     0.0699580
  H        2.2845910    -1.8662570     0.2495040
  H        3.1497060    -1.1530710    -1.1218230
  H        3.8888820    -1.1460650     0.4866090
  H       -3.1496440    -1.1531250     1.1218420
  H       -3.8889120    -1.1460430    -0.4865470
  H       -2.2725644    -1.8812284    -0.2550928
units angstrom
no_reorient  #important for SAPT in psi4, default
symmetry c1  #important for SAPT in psi4, default
}

set PROPERTIES_ORIGIN ["COM"]
properties('MP2/aug-cc-pvtz', properties = ['dipole'])
--------------------------------------------------------------------------

    Molecular point group: c1
  Charge       = 0
  Multiplicity = 1
  Basis Set: AUG-CC-PVTZ
    Blend: AUG-CC-PVTZ
  Basis Set: (AUG-CC-PVTZ AUX)
    Blend: AUG-CC-PVTZ-JKFIT

    Orbital Energies [Eh]
    ---------------------

    Doubly Occupied:

       1A    -20.538064     2A    -11.277042     3A    -11.276982
       4A    -11.224092     5A    -11.219041     6A    -11.218826
       7A    -11.209703     8A    -11.207350     9A     -1.364986
      10A     -1.059603    11A     -1.047290    12A     -0.993947
      13A     -0.912602    14A     -0.846484    15A     -0.804815
      16A     -0.735983    17A     -0.671503    18A     -0.664946
      19A     -0.607479    20A     -0.600839    21A     -0.584074
      22A     -0.558947    23A     -0.551016    24A     -0.521853
      25A     -0.520918    26A     -0.498508    27A     -0.490956
      28A     -0.480625    29A     -0.479637    30A     -0.446045
      31A     -0.432471    32A     -0.401656

  @DF-RHF Final Energy:  -348.18583204670529

   => Energetics <=

    Nuclear Repulsion Energy =            399.4442395526709220
    One-Electron Energy =               -1264.3635831908052296
    Two-Electron Energy =                 516.7335115914289645
    Total Energy =                       -348.1858320467052863
  Basis Set: (AUG-CC-PVTZ AUX)
    Blend: AUG-CC-PVTZ-RI
    Molecular point group: c1

    Geometry (in Angstrom), charge = 0, multiplicity = 1:

       Center              X                  Y                   Z               Mass
    ------------   -----------------  -----------------  -----------------  -----------------
         O           -0.000108340125    -0.612320290200     0.000007873741    15.994914619570
         C            0.936243659875     0.412073709800    -0.456583126259    12.000000000000
         C           -0.936443340125     0.412060709800     0.456669873741    12.000000000000
         C           -0.000105340125     1.540994709800     0.000046873741    12.000000000000
         C            2.271612659875     0.287678709800     0.243414873741    12.000000000000
         C           -2.271839340125     0.287688709800    -0.243277126259    12.000000000000
         C            2.942239659875    -1.050027290200    -0.052175126259    12.000000000000
         C           -2.942450340125    -1.050030290200     0.052287873741    12.000000000000
         H            1.069193659875     0.342632709800    -1.546023126259     1.007825032230
         H           -1.069346340125     0.342585709800     1.546113873741     1.007825032230
         H            0.402165659875     2.173666709800     0.795849873741     1.007825032230
         H           -0.402388340125     2.173654709800    -0.795759126259     1.007825032230
         H            2.102044659875     0.394588709800     1.321660873741     1.007825032230
         H            2.911646659875     1.123605709800    -0.069814126259     1.007825032230
         H           -2.102313340125     0.394640709800    -1.321526126259     1.007825032230
         H           -2.911864340125     1.123600709800     0.070007873741     1.007825032230
         H            2.284484659875    -1.868287290200     0.249553873741     1.007825032230
         H            3.149599659875    -1.155101290200    -1.121773126259     1.007825032230
         H            3.888775659875    -1.148095290200     0.486658873741     1.007825032230
         H           -3.149750340125    -1.155155290200     1.121891873741     1.007825032230
         H           -3.889018340125    -1.148073290200    -0.486497126259     1.007825032230
         H           -2.272670740125    -1.883258690200    -0.255042926259     1.007825032230

  Basis Set: AUG-CC-PVTZ
    Blend: AUG-CC-PVTZ
  Basis Set: (AUG-CC-PVTZ AUX)
    Blend: AUG-CC-PVTZ-JKFIT
	 Reference Energy          =    -348.1858320467052863 [Eh]
	 Singles Energy            =      -0.0000000000000000 [Eh]
	 Same-Spin Energy          =      -0.3609301235091593 [Eh]
	 Opposite-Spin Energy      =      -1.2616071151504500 [Eh]
	 Correlation Energy        =      -1.6225372386596093 [Eh]
	 Total Energy              =    -349.8083692853649040 [Eh]

	 ================> DF-SCS-MP2 Energies <==================
	-----------------------------------------------------------
	 SCS Same-Spin Scale       =       0.3333333333333333 [-]
	 SCS Opposite-Spin Scale   =       1.2000000000000000 [-]
	 SCS Same-Spin Energy      =      -0.1203100411697197 [Eh]
	 SCS Opposite-Spin Energy  =      -1.5139285381805399 [Eh]
	 SCS Correlation Energy    =      -1.6342385793502596 [Eh]
	 SCS Total Energy          =    -349.8200706260555535 [Eh]
	-----------------------------------------------------------

  Dipole Moment: [D]
     X:    -0.0011      Y:     1.7162      Z:     0.0018     Total:     1.7162

*** Psi4 exiting successfully. Buy a developer a beer!
