                               Psi4 1.4a3.dev225

  ==> Input File <==

--------------------------------------------------------------------------
#psi4
#
memory 32 gb

molecule  {
0 1
  O        0.1013712    -0.7135702    -0.0494784
  C        0.9363500     0.4141040    -0.4566330
  C       -0.9363370     0.4140910     0.4566200
  C        0.0000010     1.5430250    -0.0000030
  C        2.2717190     0.2897090     0.2433650
  C       -2.2717330     0.2897190    -0.2433270
  C        2.9423460    -1.0479970    -0.0522250
  C       -2.9423440    -1.0480000     0.0522380
  H        1.0693000     0.3446630    -1.5460730
  H       -1.0692400     0.3446160     1.5460640
  H        0.4022720     2.1756970     0.7958000
  H       -0.4022820     2.1756850    -0.7958090
  H        2.1021510     0.3966190     1.3216110
  H        2.9117530     1.1256360    -0.0698640
  H       -2.1022070     0.3966710    -1.3215760
  H       -2.9117580     1.1256310     0.0699580
  H        2.2845910    -1.8662570     0.2495040
  H        3.1497060    -1.1530710    -1.1218230
  H        3.8888820    -1.1460650     0.4866090
  H       -3.1496440    -1.1531250     1.1218420
  H       -3.8889120    -1.1460430    -0.4865470
  H       -2.2846070    -1.8662470    -0.2495670
units angstrom
no_reorient  #important for SAPT in psi4, default
symmetry c1  #important for SAPT in psi4, default
}

set PROPERTIES_ORIGIN ["COM"]
properties('MP2/aug-cc-pvtz', properties = ['dipole'])
--------------------------------------------------------------------------

    Molecular point group: c1
  Charge       = 0
  Multiplicity = 1
  Basis Set: AUG-CC-PVTZ
    Blend: AUG-CC-PVTZ
  Basis Set: (AUG-CC-PVTZ AUX)
    Blend: AUG-CC-PVTZ-JKFIT

    Orbital Energies [Eh]
    ---------------------

    Doubly Occupied:

       1A    -20.535665     2A    -11.295352     3A    -11.273241
       4A    -11.229668     5A    -11.227782     6A    -11.213788
       7A    -11.210875     8A    -11.202121     9A     -1.326034
      10A     -1.065629    11A     -1.045393    12A     -0.998920
      13A     -0.907796    14A     -0.847750    15A     -0.798865
      16A     -0.742425    17A     -0.662164    18A     -0.657862
      19A     -0.603788    20A     -0.599844    21A     -0.585139
      22A     -0.558556    23A     -0.540680    24A     -0.522306
      25A     -0.514323    26A     -0.495188    27A     -0.493282
      28A     -0.481746    29A     -0.476141    30A     -0.450946
      31A     -0.423611    32A     -0.403585

  @DF-RHF Final Energy:  -348.16711817298386

   => Energetics <=

    Nuclear Repulsion Energy =            396.9124915744428108
    One-Electron Energy =               -1259.3782857645674085
    Two-Electron Energy =                 514.2986760171406786
    Total Energy =                       -348.1671181729839191
  Basis Set: (AUG-CC-PVTZ AUX)
    Blend: AUG-CC-PVTZ-RI
    Molecular point group: c1

    Geometry (in Angstrom), charge = 0, multiplicity = 1:

       Center              X                  Y                   Z               Mass
    ------------   -----------------  -----------------  -----------------  -----------------
         O            0.087160952163    -0.701255220276    -0.042547446215    15.994914619570
         C            0.922139752163     0.426418979724    -0.449702046215    12.000000000000
         C           -0.950547247837     0.426405979724     0.463550953785    12.000000000000
         C           -0.014209247837     1.555339979724     0.006927953785    12.000000000000
         C            2.257508752163     0.302023979724     0.250295953785    12.000000000000
         C           -2.285943247837     0.302033979724    -0.236396046215    12.000000000000
         C            2.928135752163    -1.035682020276    -0.045294046215    12.000000000000
         C           -2.956554247837    -1.035685020276     0.059168953785    12.000000000000
         H            1.055089752163     0.356977979724    -1.539142046215     1.007825032230
         H           -1.083450247837     0.356930979724     1.552994953785     1.007825032230
         H            0.388061752163     2.188011979724     0.802730953785     1.007825032230
         H           -0.416492247837     2.187999979724    -0.788878046215     1.007825032230
         H            2.087940752163     0.408933979724     1.328541953785     1.007825032230
         H            2.897542752163     1.137950979724    -0.062933046215     1.007825032230
         H           -2.116417247837     0.408985979724    -1.314645046215     1.007825032230
         H           -2.925968247837     1.137945979724     0.076888953785     1.007825032230
         H            2.270380752163    -1.853942020276     0.256434953785     1.007825032230
         H            3.135495752163    -1.140756020276    -1.114892046215     1.007825032230
         H            3.874671752163    -1.133750020276     0.493539953785     1.007825032230
         H           -3.163854247837    -1.140810020276     1.128772953785     1.007825032230
         H           -3.903122247837    -1.133728020276    -0.479616046215     1.007825032230
         H           -2.298817247837    -1.853932020276    -0.242636046215     1.007825032230

  Basis Set: AUG-CC-PVTZ
    Blend: AUG-CC-PVTZ
  Basis Set: (AUG-CC-PVTZ AUX)
    Blend: AUG-CC-PVTZ-JKFIT
	 Reference Energy          =    -348.1671181729838622 [Eh]
	 Singles Energy            =      -0.0000000000000000 [Eh]
	 Same-Spin Energy          =      -0.3627519075377814 [Eh]
	 Opposite-Spin Energy      =      -1.2668192820518802 [Eh]
	 Correlation Energy        =      -1.6295711895896616 [Eh]
	 Total Energy              =    -349.7966893625735452 [Eh]

	 ================> DF-SCS-MP2 Energies <==================
	-----------------------------------------------------------
	 SCS Same-Spin Scale       =       0.3333333333333333 [-]
	 SCS Opposite-Spin Scale   =       1.2000000000000000 [-]
	 SCS Same-Spin Energy      =      -0.1209173025125938 [Eh]
	 SCS Opposite-Spin Energy  =      -1.5201831384622562 [Eh]
	 SCS Correlation Energy    =      -1.6411004409748500 [Eh]
	 SCS Total Energy          =    -349.8082186139587293 [Eh]
	-----------------------------------------------------------

  Dipole Moment: [D]
     X:    -0.5471      Y:     1.9945      Z:     0.1481     Total:     2.0735

*** Psi4 exiting successfully. Buy a developer a beer!
