                               Psi4 1.4a3.dev225

  ==> Input File <==

--------------------------------------------------------------------------
#psi4
#
memory 32 gb

molecule  {
0 1
  O       -0.0000020    -0.6102900    -0.0000420
  C        0.9363500     0.4141040    -0.4566330
  C       -0.9363370     0.4140910     0.4566200
  C        0.0000010     1.5430250    -0.0000030
  C        2.2739823     0.3012577     0.1914413
  C       -2.2717330     0.2897190    -0.2433270
  C        2.9423460    -1.0479970    -0.0522250
  C       -2.9423440    -1.0480000     0.0522380
  H        1.0693000     0.3446630    -1.5460730
  H       -1.0692400     0.3446160     1.5460640
  H        0.4022720     2.1756970     0.7958000
  H       -0.4022820     2.1756850    -0.7958090
  H        2.1021510     0.3966190     1.3216110
  H        2.9117530     1.1256360    -0.0698640
  H       -2.1022070     0.3966710    -1.3215760
  H       -2.9117580     1.1256310     0.0699580
  H        2.2845910    -1.8662570     0.2495040
  H        3.1497060    -1.1530710    -1.1218230
  H        3.8888820    -1.1460650     0.4866090
  H       -3.1496440    -1.1531250     1.1218420
  H       -3.8889120    -1.1460430    -0.4865470
  H       -2.2846070    -1.8662470    -0.2495670
units angstrom
no_reorient  #important for SAPT in psi4, default
symmetry c1  #important for SAPT in psi4, default
}

set PROPERTIES_ORIGIN ["COM"]
properties('MP2/aug-cc-pvtz', properties = ['dipole'])
--------------------------------------------------------------------------

    Molecular point group: c1
  Charge       = 0
  Multiplicity = 1
  Basis Set: AUG-CC-PVTZ
    Blend: AUG-CC-PVTZ
  Basis Set: (AUG-CC-PVTZ AUX)
    Blend: AUG-CC-PVTZ-JKFIT

    Orbital Energies [Eh]
    ---------------------

    Doubly Occupied:

       1A    -20.539155     2A    -11.277233     3A    -11.276459
       4A    -11.224439     5A    -11.220316     6A    -11.218942
       7A    -11.207956     8A    -11.207460     9A     -1.365612
      10A     -1.061742    11A     -1.048673    12A     -0.994392
      13A     -0.914686    14A     -0.848489    15A     -0.803705
      16A     -0.735621    17A     -0.674028    18A     -0.665051
      19A     -0.607102    20A     -0.603619    21A     -0.583751
      22A     -0.557902    23A     -0.552548    24A     -0.523355
      25A     -0.522244    26A     -0.498999    27A     -0.493589
      28A     -0.482216    29A     -0.471064    30A     -0.446971
      31A     -0.432359    32A     -0.402895

  @DF-RHF Final Energy:  -348.18309659662958

   => Energetics <=

    Nuclear Repulsion Energy =            399.6733783004053180
    One-Electron Energy =               -1264.7878074148532050
    Two-Electron Energy =                 516.9313325178183050
    Total Energy =                       -348.1830965966295253
  Basis Set: (AUG-CC-PVTZ AUX)
    Blend: AUG-CC-PVTZ-RI
    Molecular point group: c1

    Geometry (in Angstrom), charge = 0, multiplicity = 1:

       Center              X                  Y                   Z               Mass
    ------------   -----------------  -----------------  -----------------  -----------------
         O           -0.000239998130    -0.613667152743     0.005419715951    15.994914619570
         C            0.936112001870     0.410726847257    -0.451171284049    12.000000000000
         C           -0.936574998130     0.410713847257     0.462081715951    12.000000000000
         C           -0.000236998130     1.539647847257     0.005458715951    12.000000000000
         C            2.273744301870     0.297880547257     0.196903015951    12.000000000000
         C           -2.271970998130     0.286341847257    -0.237865284049    12.000000000000
         C            2.942108001870    -1.051374152743    -0.046763284049    12.000000000000
         C           -2.942581998130    -1.051377152743     0.057699715951    12.000000000000
         H            1.069062001870     0.341285847257    -1.540611284049     1.007825032230
         H           -1.069477998130     0.341238847257     1.551525715951     1.007825032230
         H            0.402034001870     2.172319847257     0.801261715951     1.007825032230
         H           -0.402519998130     2.172307847257    -0.790347284049     1.007825032230
         H            2.101913001870     0.393241847257     1.327072715951     1.007825032230
         H            2.911515001870     1.122258847257    -0.064402284049     1.007825032230
         H           -2.102444998130     0.393293847257    -1.316114284049     1.007825032230
         H           -2.911995998130     1.122253847257     0.075419715951     1.007825032230
         H            2.284353001870    -1.869634152743     0.254965715951     1.007825032230
         H            3.149468001870    -1.156448152743    -1.116361284049     1.007825032230
         H            3.888644001870    -1.149442152743     0.492070715951     1.007825032230
         H           -3.149881998130    -1.156502152743     1.127303715951     1.007825032230
         H           -3.889149998130    -1.149420152743    -0.481085284049     1.007825032230
         H           -2.284844998130    -1.869624152743    -0.244105284049     1.007825032230

  Basis Set: AUG-CC-PVTZ
    Blend: AUG-CC-PVTZ
  Basis Set: (AUG-CC-PVTZ AUX)
    Blend: AUG-CC-PVTZ-JKFIT
	 Reference Energy          =    -348.1830965966295821 [Eh]
	 Singles Energy            =      -0.0000000000000000 [Eh]
	 Same-Spin Energy          =      -0.3611195834017283 [Eh]
	 Opposite-Spin Energy      =      -1.2617563756747177 [Eh]
	 Correlation Energy        =      -1.6228759590764459 [Eh]
	 Total Energy              =    -349.8059725557060347 [Eh]

	 ================> DF-SCS-MP2 Energies <==================
	-----------------------------------------------------------
	 SCS Same-Spin Scale       =       0.3333333333333333 [-]
	 SCS Opposite-Spin Scale   =       1.2000000000000000 [-]
	 SCS Same-Spin Energy      =      -0.1203731944672428 [Eh]
	 SCS Opposite-Spin Energy  =      -1.5141076508096611 [Eh]
	 SCS Correlation Energy    =      -1.6344808452769040 [Eh]
	 SCS Total Energy          =    -349.8175774419065078 [Eh]
	-----------------------------------------------------------

  Dipole Moment: [D]
     X:     0.0157      Y:     1.7144      Z:    -0.0196     Total:     1.7146

*** Psi4 exiting successfully. Buy a developer a beer!
