                               Psi4 1.4a3.dev225

  ==> Input File <==

--------------------------------------------------------------------------
#psi4
#
memory 32 gb

molecule  {
0 1
  O       -0.0000020    -0.6102900    -0.0000420
  C        0.9363500     0.4141040    -0.4566330
  C       -0.9133466     0.4208490     0.4095650
  C        0.0000010     1.5430250    -0.0000030
  C        2.2717190     0.2897090     0.2433650
  C       -2.2717330     0.2897190    -0.2433270
  C        2.9423460    -1.0479970    -0.0522250
  C       -2.9423440    -1.0480000     0.0522380
  H        1.0693000     0.3446630    -1.5460730
  H       -1.0692400     0.3446160     1.5460640
  H        0.4022720     2.1756970     0.7958000
  H       -0.4022820     2.1756850    -0.7958090
  H        2.1021510     0.3966190     1.3216110
  H        2.9117530     1.1256360    -0.0698640
  H       -2.1022070     0.3966710    -1.3215760
  H       -2.9117580     1.1256310     0.0699580
  H        2.2845910    -1.8662570     0.2495040
  H        3.1497060    -1.1530710    -1.1218230
  H        3.8888820    -1.1460650     0.4866090
  H       -3.1496440    -1.1531250     1.1218420
  H       -3.8889120    -1.1460430    -0.4865470
  H       -2.2846070    -1.8662470    -0.2495670
units angstrom
no_reorient  #important for SAPT in psi4, default
symmetry c1  #important for SAPT in psi4, default
}

set PROPERTIES_ORIGIN ["COM"]
properties('MP2/aug-cc-pvtz', properties = ['dipole'])
--------------------------------------------------------------------------

    Molecular point group: c1
  Charge       = 0
  Multiplicity = 1
  Basis Set: AUG-CC-PVTZ
    Blend: AUG-CC-PVTZ
  Basis Set: (AUG-CC-PVTZ AUX)
    Blend: AUG-CC-PVTZ-JKFIT

    Orbital Energies [Eh]
    ---------------------

    Doubly Occupied:

       1A    -20.540432     2A    -11.279430     3A    -11.278493
       4A    -11.222930     5A    -11.219939     6A    -11.218366
       7A    -11.208276     8A    -11.207518     9A     -1.375920
      10A     -1.060012    11A     -1.049921    12A     -0.999347
      13A     -0.913039    14A     -0.848251    15A     -0.803791
      16A     -0.732578    17A     -0.674531    18A     -0.667296
      19A     -0.611447    20A     -0.603053    21A     -0.585195
      22A     -0.554702    23A     -0.554002    24A     -0.524143
      25A     -0.522190    26A     -0.498050    27A     -0.494059
      28A     -0.481952    29A     -0.476886    30A     -0.454345
      31A     -0.431849    32A     -0.396950

  @DF-RHF Final Energy:  -348.18310660151786

   => Energetics <=

    Nuclear Repulsion Energy =            400.2220280447389769
    One-Electron Energy =               -1265.8324832410280578
    Two-Electron Energy =                 517.4273485947712743
    Total Energy =                       -348.1831066015178067
  Basis Set: (AUG-CC-PVTZ AUX)
    Blend: AUG-CC-PVTZ-RI
    Molecular point group: c1

    Geometry (in Angstrom), charge = 0, multiplicity = 1:

       Center              X                  Y                   Z               Mass
    ------------   -----------------  -----------------  -----------------  -----------------
         O           -0.002419800645    -0.613163330215     0.004907690414    15.994914619570
         C            0.933932199355     0.411230669785    -0.451683309586    12.000000000000
         C           -0.915764400645     0.417975669785     0.414514690414    12.000000000000
         C           -0.002416800645     1.540151669785     0.004946690414    12.000000000000
         C            2.269301199355     0.286835669785     0.248314690414    12.000000000000
         C           -2.274150800645     0.286845669785    -0.238377309586    12.000000000000
         C            2.939928199355    -1.050870330215    -0.047275309586    12.000000000000
         C           -2.944761800645    -1.050873330215     0.057187690414    12.000000000000
         H            1.066882199355     0.341789669785    -1.541123309586     1.007825032230
         H           -1.071657800645     0.341742669785     1.551013690414     1.007825032230
         H            0.399854199355     2.172823669785     0.800749690414     1.007825032230
         H           -0.404699800645     2.172811669785    -0.790859309586     1.007825032230
         H            2.099733199355     0.393745669785     1.326560690414     1.007825032230
         H            2.909335199355     1.122762669785    -0.064914309586     1.007825032230
         H           -2.104624800645     0.393797669785    -1.316626309586     1.007825032230
         H           -2.914175800645     1.122757669785     0.074907690414     1.007825032230
         H            2.282173199355    -1.869130330215     0.254453690414     1.007825032230
         H            3.147288199355    -1.155944330215    -1.116873309586     1.007825032230
         H            3.886464199355    -1.148938330215     0.491558690414     1.007825032230
         H           -3.152061800645    -1.155998330215     1.126791690414     1.007825032230
         H           -3.891329800645    -1.148916330215    -0.481597309586     1.007825032230
         H           -2.287024800645    -1.869120330215    -0.244617309586     1.007825032230

  Basis Set: AUG-CC-PVTZ
    Blend: AUG-CC-PVTZ
  Basis Set: (AUG-CC-PVTZ AUX)
    Blend: AUG-CC-PVTZ-JKFIT
	 Reference Energy          =    -348.1831066015178635 [Eh]
	 Singles Energy            =      -0.0000000000000000 [Eh]
	 Same-Spin Energy          =      -0.3612186982941073 [Eh]
	 Opposite-Spin Energy      =      -1.2613968461309255 [Eh]
	 Correlation Energy        =      -1.6226155444250328 [Eh]
	 Total Energy              =    -349.8057221459429229 [Eh]

	 ================> DF-SCS-MP2 Energies <==================
	-----------------------------------------------------------
	 SCS Same-Spin Scale       =       0.3333333333333333 [-]
	 SCS Opposite-Spin Scale   =       1.2000000000000000 [-]
	 SCS Same-Spin Energy      =      -0.1204062327647024 [Eh]
	 SCS Opposite-Spin Energy  =      -1.5136762153571106 [Eh]
	 SCS Correlation Energy    =      -1.6340824481218130 [Eh]
	 SCS Total Energy          =    -349.8171890496396941 [Eh]
	-----------------------------------------------------------

  Dipole Moment: [D]
     X:     0.1148      Y:     1.6935      Z:    -0.0944     Total:     1.7000

*** Psi4 exiting successfully. Buy a developer a beer!
