                               Psi4 1.4a3.dev225

  ==> Input File <==

--------------------------------------------------------------------------
#psi4
#
memory 32 gb

molecule  {
0 1
  O       -0.0000020    -0.6102900    -0.0000420
  C        0.9363500     0.4141040    -0.4566330
  C       -0.9363370     0.4140910     0.4566200
  C        0.0000010     1.5430250    -0.0000030
  C        2.2717190     0.2897090     0.2433650
  C       -2.2717330     0.2897190    -0.2433270
  C        2.9423460    -1.0479970    -0.0522250
  C       -2.9423440    -1.0480000     0.0522380
  H        1.0693000     0.3446630    -1.5460730
  H       -1.0692400     0.3446160     1.5460640
  H        0.4022720     2.1756970     0.7958000
  H       -0.4022820     2.1756850    -0.7958090
  H        2.1021510     0.3966190     1.3216110
  H        2.9117530     1.1256360    -0.0698640
  H       -2.1022070     0.3966710    -1.3215760
  H       -2.9117580     1.1256310     0.0699580
  H        2.2544837    -1.9037111     0.2633150
  H        3.1497060    -1.1530710    -1.1218230
  H        3.8888820    -1.1460650     0.4866090
  H       -3.1496440    -1.1531250     1.1218420
  H       -3.8889120    -1.1460430    -0.4865470
  H       -2.2846070    -1.8662470    -0.2495670
units angstrom
no_reorient  #important for SAPT in psi4, default
symmetry c1  #important for SAPT in psi4, default
}

set PROPERTIES_ORIGIN ["COM"]
properties('MP2/aug-cc-pvtz', properties = ['dipole'])
--------------------------------------------------------------------------

    Molecular point group: c1
  Charge       = 0
  Multiplicity = 1
  Basis Set: AUG-CC-PVTZ
    Blend: AUG-CC-PVTZ
  Basis Set: (AUG-CC-PVTZ AUX)
    Blend: AUG-CC-PVTZ-JKFIT

    Orbital Energies [Eh]
    ---------------------

    Doubly Occupied:

       1A    -20.538040     2A    -11.277123     3A    -11.276967
       4A    -11.224138     5A    -11.219380     6A    -11.218820
       7A    -11.213167     8A    -11.207340     9A     -1.364968
      10A     -1.059401    11A     -1.047152    12A     -0.993603
      13A     -0.911808    14A     -0.845584    15A     -0.804432
      16A     -0.735978    17A     -0.671213    18A     -0.664987
      19A     -0.607557    20A     -0.599763    21A     -0.584047
      22A     -0.559096    23A     -0.550034    24A     -0.521821
      25A     -0.520147    26A     -0.498608    27A     -0.489699
      28A     -0.480708    29A     -0.478140    30A     -0.445709
      31A     -0.432557    32A     -0.401686

  @DF-RHF Final Energy:  -348.18423751391606

   => Energetics <=

    Nuclear Repulsion Energy =            399.3414807239096262
    One-Electron Energy =               -1264.1640884786470451
    Two-Electron Energy =                 516.6383702408213594
    Total Energy =                       -348.1842375139160595
  Basis Set: (AUG-CC-PVTZ AUX)
    Blend: AUG-CC-PVTZ-RI
    Molecular point group: c1

    Geometry (in Angstrom), charge = 0, multiplicity = 1:

       Center              X                  Y                   Z               Mass
    ------------   -----------------  -----------------  -----------------  -----------------
         O            0.000263947886    -0.612121800600    -0.000162918095    15.994914619570
         C            0.936615947886     0.412272199400    -0.456753918095    12.000000000000
         C           -0.936071052114     0.412259199400     0.456499081905    12.000000000000
         C            0.000266947886     1.541193199400    -0.000123918095    12.000000000000
         C            2.271984947886     0.287877199400     0.243244081905    12.000000000000
         C           -2.271467052114     0.287887199400    -0.243447918095    12.000000000000
         C            2.942611947886    -1.049828800600    -0.052345918095    12.000000000000
         C           -2.942078052114    -1.049831800600     0.052117081905    12.000000000000
         H            1.069565947886     0.342831199400    -1.546193918095     1.007825032230
         H           -1.068974052114     0.342784199400     1.545943081905     1.007825032230
         H            0.402537947886     2.173865199400     0.795679081905     1.007825032230
         H           -0.402016052114     2.173853199400    -0.795929918095     1.007825032230
         H            2.102416947886     0.394787199400     1.321490081905     1.007825032230
         H            2.912018947886     1.123804199400    -0.069984918095     1.007825032230
         H           -2.101941052114     0.394839199400    -1.321696918095     1.007825032230
         H           -2.911492052114     1.123799199400     0.069837081905     1.007825032230
         H            2.254749647886    -1.905542900600     0.263194081905     1.007825032230
         H            3.149971947886    -1.154902800600    -1.121943918095     1.007825032230
         H            3.889147947886    -1.147896800600     0.486488081905     1.007825032230
         H           -3.149378052114    -1.154956800600     1.121721081905     1.007825032230
         H           -3.888646052114    -1.147874800600    -0.486667918095     1.007825032230
         H           -2.284341052114    -1.868078800600    -0.249687918095     1.007825032230

  Basis Set: AUG-CC-PVTZ
    Blend: AUG-CC-PVTZ
  Basis Set: (AUG-CC-PVTZ AUX)
    Blend: AUG-CC-PVTZ-JKFIT
	 Reference Energy          =    -348.1842375139160595 [Eh]
	 Singles Energy            =      -0.0000000000000000 [Eh]
	 Same-Spin Energy          =      -0.3609433985854056 [Eh]
	 Opposite-Spin Energy      =      -1.2618271339823304 [Eh]
	 Correlation Energy        =      -1.6227705325677360 [Eh]
	 Total Energy              =    -349.8070080464838156 [Eh]

	 ================> DF-SCS-MP2 Energies <==================
	-----------------------------------------------------------
	 SCS Same-Spin Scale       =       0.3333333333333333 [-]
	 SCS Opposite-Spin Scale   =       1.2000000000000000 [-]
	 SCS Same-Spin Energy      =      -0.1203144661951352 [Eh]
	 SCS Opposite-Spin Energy  =      -1.5141925607787965 [Eh]
	 SCS Correlation Energy    =      -1.6345070269739317 [Eh]
	 SCS Total Energy          =    -349.8187445408900089 [Eh]
	-----------------------------------------------------------

  Dipole Moment: [D]
     X:     0.0030      Y:     1.7304      Z:    -0.0045     Total:     1.7304

*** Psi4 exiting successfully. Buy a developer a beer!
