                               Psi4 1.4a3.dev225

  ==> Input File <==

--------------------------------------------------------------------------
#psi4
#
memory 32 gb

molecule  {
0 1
  O       -0.0000020    -0.6102900    -0.0000420
  C        0.9363500     0.4141040    -0.4566330
  C       -0.9363370     0.4140910     0.4566200
  C        0.0000010     1.5430250    -0.0000030
  C        2.2717190     0.2897090     0.2433650
  C       -2.2717330     0.2897190    -0.2433270
  C        2.9423460    -1.0479970    -0.0522250
  C       -2.9423440    -1.0480000     0.0522380
  H        1.0693000     0.3446630    -1.5460730
  H       -1.0692400     0.3446160     1.5460640
  H        0.4022720     2.1756970     0.7958000
  H       -0.4022820     2.1756850    -0.7958090
  H        2.1176124     0.3868709     1.2232956
  H        2.9117530     1.1256360    -0.0698640
  H       -2.1022070     0.3966710    -1.3215760
  H       -2.9117580     1.1256310     0.0699580
  H        2.2845910    -1.8662570     0.2495040
  H        3.1497060    -1.1530710    -1.1218230
  H        3.8888820    -1.1460650     0.4866090
  H       -3.1496440    -1.1531250     1.1218420
  H       -3.8889120    -1.1460430    -0.4865470
  H       -2.2846070    -1.8662470    -0.2495670
units angstrom
no_reorient  #important for SAPT in psi4, default
symmetry c1  #important for SAPT in psi4, default
}

set PROPERTIES_ORIGIN ["COM"]
properties('MP2/aug-cc-pvtz', properties = ['dipole'])
--------------------------------------------------------------------------

    Molecular point group: c1
  Charge       = 0
  Multiplicity = 1
  Basis Set: AUG-CC-PVTZ
    Blend: AUG-CC-PVTZ
  Basis Set: (AUG-CC-PVTZ AUX)
    Blend: AUG-CC-PVTZ-JKFIT

    Orbital Energies [Eh]
    ---------------------

    Doubly Occupied:

       1A    -20.537994     2A    -11.277062     3A    -11.276020
       4A    -11.224087     5A    -11.218847     6A    -11.207367
       7A    -11.206527     8A    -11.205839     9A     -1.364969
      10A     -1.062497    11A     -1.049014    12A     -0.994641
      13A     -0.912793    14A     -0.849929    15A     -0.810128
      16A     -0.738836    17A     -0.671411    18A     -0.666955
      19A     -0.610585    20A     -0.602105    21A     -0.585824
      22A     -0.559342    23A     -0.551586    24A     -0.522259
      25A     -0.520822    26A     -0.502281    27A     -0.491616
      28A     -0.485739    29A     -0.480147    30A     -0.446091
      31A     -0.432560    32A     -0.401291

  @DF-RHF Final Energy:  -348.18047467709226

   => Energetics <=

    Nuclear Repulsion Energy =            399.9875105047863144
    One-Electron Energy =               -1265.4016421984561021
    Two-Electron Energy =                 517.2336570165775811
    Total Energy =                       -348.1804746770922065
  Basis Set: (AUG-CC-PVTZ AUX)
    Blend: AUG-CC-PVTZ-RI
    Molecular point group: c1

    Geometry (in Angstrom), charge = 0, multiplicity = 1:

       Center              X                  Y                   Z               Mass
    ------------   -----------------  -----------------  -----------------  -----------------
         O           -0.000138536596    -0.612366513201     0.000827435724    15.994914619570
         C            0.936213463404     0.412027486799    -0.455763564276    12.000000000000
         C           -0.936473536596     0.412014486799     0.457489435724    12.000000000000
         C           -0.000135536596     1.540948486799     0.000866435724    12.000000000000
         C            2.271582463404     0.287632486799     0.244234435724    12.000000000000
         C           -2.271869536596     0.287642486799    -0.242457564276    12.000000000000
         C            2.942209463404    -1.050073513201    -0.051355564276    12.000000000000
         C           -2.942480536596    -1.050076513201     0.053107435724    12.000000000000
         H            1.069163463404     0.342586486799    -1.545203564276     1.007825032230
         H           -1.069376536596     0.342539486799     1.546933435724     1.007825032230
         H            0.402135463404     2.173620486799     0.796669435724     1.007825032230
         H           -0.402418536596     2.173608486799    -0.794939564276     1.007825032230
         H            2.117475863404     0.384794386799     1.224165035724     1.007825032230
         H            2.911616463404     1.123559486799    -0.068994564276     1.007825032230
         H           -2.102343536596     0.394594486799    -1.320706564276     1.007825032230
         H           -2.911894536596     1.123554486799     0.070827435724     1.007825032230
         H            2.284454463404    -1.868333513201     0.250373435724     1.007825032230
         H            3.149569463404    -1.155147513201    -1.120953564276     1.007825032230
         H            3.888745463404    -1.148141513201     0.487478435724     1.007825032230
         H           -3.149780536596    -1.155201513201     1.122711435724     1.007825032230
         H           -3.889048536596    -1.148119513201    -0.485677564276     1.007825032230
         H           -2.284743536596    -1.868323513201    -0.248697564276     1.007825032230

  Basis Set: AUG-CC-PVTZ
    Blend: AUG-CC-PVTZ
  Basis Set: (AUG-CC-PVTZ AUX)
    Blend: AUG-CC-PVTZ-JKFIT
	 Reference Energy          =    -348.1804746770922634 [Eh]
	 Singles Energy            =      -0.0000000000000000 [Eh]
	 Same-Spin Energy          =      -0.3608990476980873 [Eh]
	 Opposite-Spin Energy      =      -1.2609344680083279 [Eh]
	 Correlation Energy        =      -1.6218335157064152 [Eh]
	 Total Energy              =    -349.8023081927987050 [Eh]

	 ================> DF-SCS-MP2 Energies <==================
	-----------------------------------------------------------
	 SCS Same-Spin Scale       =       0.3333333333333333 [-]
	 SCS Opposite-Spin Scale   =       1.2000000000000000 [-]
	 SCS Same-Spin Energy      =      -0.1202996825660291 [Eh]
	 SCS Opposite-Spin Energy  =      -1.5131213616099934 [Eh]
	 SCS Correlation Energy    =      -1.6334210441760226 [Eh]
	 SCS Total Energy          =    -349.8138957212682953 [Eh]
	-----------------------------------------------------------

  Dipole Moment: [D]
     X:    -0.0072      Y:     1.7288      Z:     0.0535     Total:     1.7296

*** Psi4 exiting successfully. Buy a developer a beer!
