                               Psi4 1.4a3.dev225

  ==> Input File <==

--------------------------------------------------------------------------
#psi4
#
memory 32 gb

molecule  {
0 1
  O       -0.0000020    -0.6102900    -0.0000420
  C        0.9363500     0.4141040    -0.4566330
  C       -0.9363370     0.4140910     0.4566200
  C        0.0000010     1.5430250    -0.0000030
  C        2.2717190     0.2897090     0.2433650
  C       -2.2717330     0.2897190    -0.2433270
  C        2.9423460    -1.0479970    -0.0522250
  C       -2.9423440    -1.0480000     0.0522380
  H        1.0693000     0.3446630    -1.5460730
  H       -1.0692400     0.3446160     1.5460640
  H        0.4206684     2.2046299     0.8321931
  H       -0.4022820     2.1756850    -0.7958090
  H        2.1021510     0.3966190     1.3216110
  H        2.9117530     1.1256360    -0.0698640
  H       -2.1022070     0.3966710    -1.3215760
  H       -2.9117580     1.1256310     0.0699580
  H        2.2845910    -1.8662570     0.2495040
  H        3.1497060    -1.1530710    -1.1218230
  H        3.8888820    -1.1460650     0.4866090
  H       -3.1496440    -1.1531250     1.1218420
  H       -3.8889120    -1.1460430    -0.4865470
  H       -2.2846070    -1.8662470    -0.2495670
units angstrom
no_reorient  #important for SAPT in psi4, default
symmetry c1  #important for SAPT in psi4, default
}

set PROPERTIES_ORIGIN ["COM"]
properties('MP2/aug-cc-pvtz', properties = ['dipole'])
--------------------------------------------------------------------------

    Molecular point group: c1
  Charge       = 0
  Multiplicity = 1
  Basis Set: AUG-CC-PVTZ
    Blend: AUG-CC-PVTZ
  Basis Set: (AUG-CC-PVTZ AUX)
    Blend: AUG-CC-PVTZ-JKFIT

    Orbital Energies [Eh]
    ---------------------

    Doubly Occupied:

       1A    -20.538543     2A    -11.277556     3A    -11.277504
       4A    -11.230053     5A    -11.219177     6A    -11.218838
       7A    -11.207628     8A    -11.207367     9A     -1.365462
      10A     -1.059994    11A     -1.046974    12A     -0.992531
      13A     -0.913467    14A     -0.846295    15A     -0.805194
      16A     -0.733573    17A     -0.671330    18A     -0.663298
      19A     -0.606352    20A     -0.601770    21A     -0.584364
      22A     -0.559065    23A     -0.550475    24A     -0.521504
      25A     -0.518843    26A     -0.498214    27A     -0.491934
      28A     -0.480762    29A     -0.480448    30A     -0.446003
      31A     -0.432916    32A     -0.401620

  @DF-RHF Final Energy:  -348.18413915653730

   => Energetics <=

    Nuclear Repulsion Energy =            399.2746274234705766
    One-Electron Energy =               -1264.0194299722240885
    Two-Electron Energy =                 516.5606633922162700
    Total Energy =                       -348.1841391565372987
  Basis Set: (AUG-CC-PVTZ AUX)
    Blend: AUG-CC-PVTZ-RI
    Molecular point group: c1

    Geometry (in Angstrom), charge = 0, multiplicity = 1:

       Center              X                  Y                   Z               Mass
    ------------   -----------------  -----------------  -----------------  -----------------
         O           -0.000164459915    -0.612708162233    -0.000362373968    15.994914619570
         C            0.936187540085     0.411685837767    -0.456953373968    12.000000000000
         C           -0.936499459915     0.411672837767     0.456299626032    12.000000000000
         C           -0.000161459915     1.540606837767    -0.000323373968    12.000000000000
         C            2.271556540085     0.287290837767     0.243044626032    12.000000000000
         C           -2.271895459915     0.287300837767    -0.243647373968    12.000000000000
         C            2.942183540085    -1.050415162233    -0.052545373968    12.000000000000
         C           -2.942506459915    -1.050418162233     0.051917626032    12.000000000000
         H            1.069137540085     0.342244837767    -1.546393373968     1.007825032230
         H           -1.069402459915     0.342197837767     1.545743626032     1.007825032230
         H            0.420505940085     2.202211737767     0.831872726032     1.007825032230
         H           -0.402444459915     2.173266837767    -0.796129373968     1.007825032230
         H            2.101988540085     0.394200837767     1.321290626032     1.007825032230
         H            2.911590540085     1.123217837767    -0.070184373968     1.007825032230
         H           -2.102369459915     0.394252837767    -1.321896373968     1.007825032230
         H           -2.911920459915     1.123212837767     0.069637626032     1.007825032230
         H            2.284428540085    -1.868675162233     0.249183626032     1.007825032230
         H            3.149543540085    -1.155489162233    -1.122143373968     1.007825032230
         H            3.888719540085    -1.148483162233     0.486288626032     1.007825032230
         H           -3.149806459915    -1.155543162233     1.121521626032     1.007825032230
         H           -3.889074459915    -1.148461162233    -0.486867373968     1.007825032230
         H           -2.284769459915    -1.868665162233    -0.249887373968     1.007825032230

  Basis Set: AUG-CC-PVTZ
    Blend: AUG-CC-PVTZ
  Basis Set: (AUG-CC-PVTZ AUX)
    Blend: AUG-CC-PVTZ-JKFIT
	 Reference Energy          =    -348.1841391565372987 [Eh]
	 Singles Energy            =      -0.0000000000000000 [Eh]
	 Same-Spin Energy          =      -0.3609485028215306 [Eh]
	 Opposite-Spin Energy      =      -1.2618369683390149 [Eh]
	 Correlation Energy        =      -1.6227854711605456 [Eh]
	 Total Energy              =    -349.8069246276978674 [Eh]

	 ================> DF-SCS-MP2 Energies <==================
	-----------------------------------------------------------
	 SCS Same-Spin Scale       =       0.3333333333333333 [-]
	 SCS Opposite-Spin Scale   =       1.2000000000000000 [-]
	 SCS Same-Spin Energy      =      -0.1203161676071769 [Eh]
	 SCS Opposite-Spin Energy  =      -1.5142043620068180 [Eh]
	 SCS Correlation Energy    =      -1.6345205296139949 [Eh]
	 SCS Total Energy          =    -349.8186596861513067 [Eh]
	-----------------------------------------------------------

  Dipole Moment: [D]
     X:    -0.0131      Y:     1.6803      Z:    -0.0152     Total:     1.6804

*** Psi4 exiting successfully. Buy a developer a beer!
