                               Psi4 1.4a3.dev225

  ==> Input File <==

--------------------------------------------------------------------------
#psi4
#
memory 32 gb

molecule  {
0 1
  O       -0.0000020    -0.6102900    -0.0000420
  C        0.9363500     0.4141040    -0.4566330
  C       -0.9363370     0.4140910     0.4566200
  C        0.0000010     1.5430250    -0.0000030
  C        2.2717190     0.2897090     0.2433650
  C       -2.2717330     0.2897190    -0.2433270
  C        2.9423460    -1.0479970    -0.0522250
  C       -2.9423440    -1.0480000     0.0522380
  H        1.0693000     0.3446630    -1.5460730
  H       -1.0692400     0.3446160     1.5460640
  H        0.4022720     2.1756970     0.7958000
  H       -0.4022820     2.1756850    -0.7958090
  H        2.1021510     0.3966190     1.3216110
  H        2.9117530     1.1256360    -0.0698640
  H       -2.1022070     0.3966710    -1.3215760
  H       -2.7952225     0.9734285     0.0129152
  H        2.2845910    -1.8662570     0.2495040
  H        3.1497060    -1.1530710    -1.1218230
  H        3.8888820    -1.1460650     0.4866090
  H       -3.1496440    -1.1531250     1.1218420
  H       -3.8889120    -1.1460430    -0.4865470
  H       -2.2846070    -1.8662470    -0.2495670
units angstrom
no_reorient  #important for SAPT in psi4, default
symmetry c1  #important for SAPT in psi4, default
}

set PROPERTIES_ORIGIN ["COM"]
properties('MP2/aug-cc-pvtz', properties = ['dipole'])
--------------------------------------------------------------------------

    Molecular point group: c1
  Charge       = 0
  Multiplicity = 1
  Basis Set: AUG-CC-PVTZ
    Blend: AUG-CC-PVTZ
  Basis Set: (AUG-CC-PVTZ AUX)
    Blend: AUG-CC-PVTZ-JKFIT

    Orbital Energies [Eh]
    ---------------------

    Doubly Occupied:

       1A    -20.536605     2A    -11.276449     3A    -11.275562
       4A    -11.223886     5A    -11.218407     6A    -11.206979
       7A    -11.205594     8A    -11.193052     9A     -1.363730
      10A     -1.067990    11A     -1.050315    12A     -0.994884
      13A     -0.912366    14A     -0.855660    15A     -0.813255
      16A     -0.738607    17A     -0.681850    18A     -0.664130
      19A     -0.613286    20A     -0.606282    21A     -0.583509
      22A     -0.558129    23A     -0.551837    24A     -0.522061
      25A     -0.521466    26A     -0.502617    27A     -0.495869
      28A     -0.484468    29A     -0.479649    30A     -0.446131
      31A     -0.431735    32A     -0.400635

  @DF-RHF Final Energy:  -348.15349969258904

   => Energetics <=

    Nuclear Repulsion Energy =            400.6205464368657090
    One-Electron Energy =               -1266.5941124583284818
    Two-Electron Energy =                 517.8200663288737360
    Total Energy =                       -348.1534996925890937
  Basis Set: (AUG-CC-PVTZ AUX)
    Blend: AUG-CC-PVTZ-RI
    Molecular point group: c1

    Geometry (in Angstrom), charge = 0, multiplicity = 1:

       Center              X                  Y                   Z               Mass
    ------------   -----------------  -----------------  -----------------  -----------------
         O           -0.001031271232    -0.611108288028     0.000462896445    15.994914619570
         C            0.935320728768     0.413285711972    -0.456128103555    12.000000000000
         C           -0.937366271232     0.413272711972     0.457124896445    12.000000000000
         C           -0.001028271232     1.542206711972     0.000501896445    12.000000000000
         C            2.270689728768     0.288890711972     0.243869896445    12.000000000000
         C           -2.272762271232     0.288900711972    -0.242822103555    12.000000000000
         C            2.941316728768    -1.048815288028    -0.051720103555    12.000000000000
         C           -2.943373271232    -1.048818288028     0.052742896445    12.000000000000
         H            1.068270728768     0.343844711972    -1.545568103555     1.007825032230
         H           -1.070269271232     0.343797711972     1.546568896445     1.007825032230
         H            0.401242728768     2.174878711972     0.796304896445     1.007825032230
         H           -0.403311271232     2.174866711972    -0.795304103555     1.007825032230
         H            2.101121728768     0.395800711972     1.322115896445     1.007825032230
         H            2.910723728768     1.124817711972    -0.069359103555     1.007825032230
         H           -2.103236271232     0.395852711972    -1.321071103555     1.007825032230
         H           -2.796251771232     0.972610211972     0.013420096445     1.007825032230
         H            2.283561728768    -1.867075288028     0.250008896445     1.007825032230
         H            3.148676728768    -1.153889288028    -1.121318103555     1.007825032230
         H            3.887852728768    -1.146883288028     0.487113896445     1.007825032230
         H           -3.150673271232    -1.153943288028     1.122346896445     1.007825032230
         H           -3.889941271232    -1.146861288028    -0.486042103555     1.007825032230
         H           -2.285636271232    -1.867065288028    -0.249062103555     1.007825032230

  Basis Set: AUG-CC-PVTZ
    Blend: AUG-CC-PVTZ
  Basis Set: (AUG-CC-PVTZ AUX)
    Blend: AUG-CC-PVTZ-JKFIT
	 Reference Energy          =    -348.1534996925890368 [Eh]
	 Singles Energy            =      -0.0000000000000000 [Eh]
	 Same-Spin Energy          =      -0.3610086056295731 [Eh]
	 Opposite-Spin Energy      =      -1.2608061918579567 [Eh]
	 Correlation Energy        =      -1.6218147974875299 [Eh]
	 Total Energy              =    -349.7753144900765392 [Eh]

	 ================> DF-SCS-MP2 Energies <==================
	-----------------------------------------------------------
	 SCS Same-Spin Scale       =       0.3333333333333333 [-]
	 SCS Opposite-Spin Scale   =       1.2000000000000000 [-]
	 SCS Same-Spin Energy      =      -0.1203362018765244 [Eh]
	 SCS Opposite-Spin Energy  =      -1.5129674302295479 [Eh]
	 SCS Correlation Energy    =      -1.6333036321060723 [Eh]
	 SCS Total Energy          =    -349.7868033246950858 [Eh]
	-----------------------------------------------------------

  Dipole Moment: [D]
     X:    -0.0589      Y:     1.7992      Z:     0.0146     Total:     1.8002

*** Psi4 exiting successfully. Buy a developer a beer!
