                               Psi4 1.4a3.dev225

  ==> Input File <==

--------------------------------------------------------------------------
#psi4
#
memory 32 gb

molecule  {
0 1
  O       -0.0000020    -0.6102900    -0.0000420
  C        0.9363500     0.4141040    -0.4566330
  C       -0.9363370     0.4140910     0.4566200
  C        0.0000010     1.5430250    -0.0000030
  C        2.2717190     0.2897090     0.2433650
  C       -2.2717330     0.2897190    -0.2433270
  C        2.9423460    -1.0479970    -0.0522250
  C       -2.9423440    -1.0480000     0.0522380
  H        1.0693000     0.3446630    -1.5460730
  H       -1.0692400     0.3446160     1.5460640
  H        0.4022720     2.1756970     0.7958000
  H       -0.4022820     2.1756850    -0.7958090
  H        2.1021510     0.3966190     1.3216110
  H        2.9117530     1.1256360    -0.0698640
  H       -2.1022070     0.3966710    -1.3215760
  H       -2.9117580     1.1256310     0.0699580
  H        2.2845910    -1.8662570     0.2495040
  H        3.1497060    -1.1530710    -1.1218230
  H        3.8888820    -1.1460650     0.4866090
  H       -3.1496440    -1.1531250     1.1218420
  H       -3.8889120    -1.1460430    -0.4865470
  H       -2.1641811    -2.0160608    -0.3048248
units angstrom
no_reorient  #important for SAPT in psi4, default
symmetry c1  #important for SAPT in psi4, default
}

set PROPERTIES_ORIGIN ["COM"]
properties('MP2/aug-cc-pvtz', properties = ['dipole'])
--------------------------------------------------------------------------

    Molecular point group: c1
  Charge       = 0
  Multiplicity = 1
  Basis Set: AUG-CC-PVTZ
    Blend: AUG-CC-PVTZ
  Basis Set: (AUG-CC-PVTZ AUX)
    Blend: AUG-CC-PVTZ-JKFIT

    Orbital Energies [Eh]
    ---------------------

    Doubly Occupied:

       1A    -20.537921     2A    -11.277664     3A    -11.276899
       4A    -11.229491     5A    -11.224446     6A    -11.221360
       7A    -11.218793     8A    -11.207274     9A     -1.364892
      10A     -1.058981    11A     -1.046931    12A     -0.992591
      13A     -0.909256    14A     -0.842441    15A     -0.802976
      16A     -0.736110    17A     -0.670188    18A     -0.665264
      19A     -0.608088    20A     -0.596310    21A     -0.584284
      22A     -0.560049    23A     -0.546756    24A     -0.522802
      25A     -0.516785    26A     -0.499510    27A     -0.487054
      28A     -0.481180    29A     -0.464807    30A     -0.441831
      31A     -0.433001    32A     -0.401881

  @DF-RHF Final Energy:  -348.16606461636485

   => Energetics <=

    Nuclear Repulsion Energy =            398.8795585931939058
    One-Electron Energy =               -1263.2356143568629250
    Two-Electron Energy =                 516.1899911473041129
    Total Energy =                       -348.1660646163649062
  Basis Set: (AUG-CC-PVTZ AUX)
    Blend: AUG-CC-PVTZ-RI
    Molecular point group: c1

    Geometry (in Angstrom), charge = 0, multiplicity = 1:

       Center              X                  Y                   Z               Mass
    ------------   -----------------  -----------------  -----------------  -----------------
         O           -0.001065633099    -0.611129386165     0.000447130474    15.994914619570
         C            0.935286366901     0.413264613835    -0.456143869526    12.000000000000
         C           -0.937400633099     0.413251613835     0.457109130474    12.000000000000
         C           -0.001062633099     1.542185613835     0.000486130474    12.000000000000
         C            2.270655366901     0.288869613835     0.243854130474    12.000000000000
         C           -2.272796633099     0.288879613835    -0.242837869526    12.000000000000
         C            2.941282366901    -1.048836386165    -0.051735869526    12.000000000000
         C           -2.943407633099    -1.048839386165     0.052727130474    12.000000000000
         H            1.068236366901     0.343823613835    -1.545583869526     1.007825032230
         H           -1.070303633099     0.343776613835     1.546553130474     1.007825032230
         H            0.401208366901     2.174857613835     0.796289130474     1.007825032230
         H           -0.403345633099     2.174845613835    -0.795319869526     1.007825032230
         H            2.101087366901     0.395779613835     1.322100130474     1.007825032230
         H            2.910689366901     1.124796613835    -0.069374869526     1.007825032230
         H           -2.103270633099     0.395831613835    -1.321086869526     1.007825032230
         H           -2.912821633099     1.124791613835     0.070447130474     1.007825032230
         H            2.283527366901    -1.867096386165     0.249993130474     1.007825032230
         H            3.148642366901    -1.153910386165    -1.121333869526     1.007825032230
         H            3.887818366901    -1.146904386165     0.487098130474     1.007825032230
         H           -3.150707633099    -1.153964386165     1.122331130474     1.007825032230
         H           -3.889975633099    -1.146882386165    -0.486057869526     1.007825032230
         H           -2.165244733099    -2.016900186165    -0.304335669526     1.007825032230

  Basis Set: AUG-CC-PVTZ
    Blend: AUG-CC-PVTZ
  Basis Set: (AUG-CC-PVTZ AUX)
    Blend: AUG-CC-PVTZ-JKFIT
	 Reference Energy          =    -348.1660646163648494 [Eh]
	 Singles Energy            =      -0.0000000000000000 [Eh]
	 Same-Spin Energy          =      -0.3610193163307462 [Eh]
	 Opposite-Spin Energy      =      -1.2631674809921645 [Eh]
	 Correlation Energy        =      -1.6241867973229107 [Eh]
	 Total Energy              =    -349.7902514136877699 [Eh]

	 ================> DF-SCS-MP2 Energies <==================
	-----------------------------------------------------------
	 SCS Same-Spin Scale       =       0.3333333333333333 [-]
	 SCS Opposite-Spin Scale   =       1.2000000000000000 [-]
	 SCS Same-Spin Energy      =      -0.1203397721102487 [Eh]
	 SCS Opposite-Spin Energy  =      -1.5158009771905974 [Eh]
	 SCS Correlation Energy    =      -1.6361407493008462 [Eh]
	 SCS Total Energy          =    -349.8022053656657135 [Eh]
	-----------------------------------------------------------

  Dipole Moment: [D]
     X:    -0.0170      Y:     1.8161      Z:     0.0228     Total:     1.8163

*** Psi4 exiting successfully. Buy a developer a beer!
