                               Psi4 1.4a3.dev225

  ==> Input File <==

--------------------------------------------------------------------------
#psi4
#
memory 32 gb

molecule  {
0 1
  O       -0.0000020    -0.6102900    -0.0000420
  C        0.9363500     0.4141040    -0.4566330
  C       -0.9363370     0.4140910     0.4566200
  C        0.0000010     1.5430250    -0.0000030
  C        2.2275845     0.2938203     0.2202298
  C       -2.2717330     0.2897190    -0.2433270
  C        2.9423460    -1.0479970    -0.0522250
  C       -2.9423440    -1.0480000     0.0522380
  H        1.0693000     0.3446630    -1.5460730
  H       -1.0692400     0.3446160     1.5460640
  H        0.4022720     2.1756970     0.7958000
  H       -0.4022820     2.1756850    -0.7958090
  H        2.1021510     0.3966190     1.3216110
  H        2.9117530     1.1256360    -0.0698640
  H       -2.1022070     0.3966710    -1.3215760
  H       -2.9117580     1.1256310     0.0699580
  H        2.2845910    -1.8662570     0.2495040
  H        3.1497060    -1.1530710    -1.1218230
  H        3.8888820    -1.1460650     0.4866090
  H       -3.1496440    -1.1531250     1.1218420
  H       -3.8889120    -1.1460430    -0.4865470
  H       -2.2846070    -1.8662470    -0.2495670
units angstrom
no_reorient  #important for SAPT in psi4, default
symmetry c1  #important for SAPT in psi4, default
}

set PROPERTIES_ORIGIN ["COM"]
properties('MP2/aug-cc-pvtz', properties = ['dipole'])
--------------------------------------------------------------------------

    Molecular point group: c1
  Charge       = 0
  Multiplicity = 1
  Basis Set: AUG-CC-PVTZ
    Blend: AUG-CC-PVTZ
  Basis Set: (AUG-CC-PVTZ AUX)
    Blend: AUG-CC-PVTZ-JKFIT

    Orbital Energies [Eh]
    ---------------------

    Doubly Occupied:

       1A    -20.538108     2A    -11.277132     3A    -11.275108
       4A    -11.224350     5A    -11.220226     6A    -11.218919
       7A    -11.208557     8A    -11.207414     9A     -1.366008
      10A     -1.062876    11A     -1.048786    12A     -0.993433
      13A     -0.915177    14A     -0.849073    15A     -0.803787
      16A     -0.736411    17A     -0.673034    18A     -0.666145
      19A     -0.608688    20A     -0.600891    21A     -0.584089
      22A     -0.558827    23A     -0.551513    24A     -0.523437
      25A     -0.520676    26A     -0.496586    27A     -0.495056
      28A     -0.479984    29A     -0.476095    30A     -0.444988
      31A     -0.431634    32A     -0.405117

  @DF-RHF Final Energy:  -348.18349999692362

   => Energetics <=

    Nuclear Repulsion Energy =            400.2062716753311520
    One-Electron Energy =               -1265.8552910534399416
    Two-Electron Energy =                 517.4655193811851177
    Total Energy =                       -348.1834999969236151
  Basis Set: (AUG-CC-PVTZ AUX)
    Blend: AUG-CC-PVTZ-RI
    Molecular point group: c1

    Geometry (in Angstrom), charge = 0, multiplicity = 1:

       Center              X                  Y                   Z               Mass
    ------------   -----------------  -----------------  -----------------  -----------------
         O            0.004639509431    -0.612884985279     0.002392121897    15.994914619570
         C            0.940991509431     0.411509014721    -0.454198878103    12.000000000000
         C           -0.931695490569     0.411496014721     0.459054121897    12.000000000000
         C            0.004642509431     1.540430014721     0.002431121897    12.000000000000
         C            2.232226009431     0.291225314721     0.222663921897    12.000000000000
         C           -2.267091490569     0.287124014721    -0.240892878103    12.000000000000
         C            2.946987509431    -1.050591985279    -0.049790878103    12.000000000000
         C           -2.937702490569    -1.050594985279     0.054672121897    12.000000000000
         H            1.073941509431     0.342068014721    -1.543638878103     1.007825032230
         H           -1.064598490569     0.342021014721     1.548498121897     1.007825032230
         H            0.406913509431     2.173102014721     0.798234121897     1.007825032230
         H           -0.397640490569     2.173090014721    -0.793374878103     1.007825032230
         H            2.106792509431     0.394024014721     1.324045121897     1.007825032230
         H            2.916394509431     1.123041014721    -0.067429878103     1.007825032230
         H           -2.097565490569     0.394076014721    -1.319141878103     1.007825032230
         H           -2.907116490569     1.123036014721     0.072392121897     1.007825032230
         H            2.289232509431    -1.868851985279     0.251938121897     1.007825032230
         H            3.154347509431    -1.155665985279    -1.119388878103     1.007825032230
         H            3.893523509431    -1.148659985279     0.489043121897     1.007825032230
         H           -3.145002490569    -1.155719985279     1.124276121897     1.007825032230
         H           -3.884270490569    -1.148637985279    -0.484112878103     1.007825032230
         H           -2.279965490569    -1.868841985279    -0.247132878103     1.007825032230

  Basis Set: AUG-CC-PVTZ
    Blend: AUG-CC-PVTZ
  Basis Set: (AUG-CC-PVTZ AUX)
    Blend: AUG-CC-PVTZ-JKFIT
	 Reference Energy          =    -348.1834999969236151 [Eh]
	 Singles Energy            =      -0.0000000000000000 [Eh]
	 Same-Spin Energy          =      -0.3612391297339073 [Eh]
	 Opposite-Spin Energy      =      -1.2618492778619437 [Eh]
	 Correlation Energy        =      -1.6230884075958509 [Eh]
	 Total Energy              =    -349.8065884045194593 [Eh]

	 ================> DF-SCS-MP2 Energies <==================
	-----------------------------------------------------------
	 SCS Same-Spin Scale       =       0.3333333333333333 [-]
	 SCS Opposite-Spin Scale   =       1.2000000000000000 [-]
	 SCS Same-Spin Energy      =      -0.1204130432446358 [Eh]
	 SCS Opposite-Spin Energy  =      -1.5142191334343325 [Eh]
	 SCS Correlation Energy    =      -1.6346321766789682 [Eh]
	 SCS Total Energy          =    -349.8181321736025780 [Eh]
	-----------------------------------------------------------

  Dipole Moment: [D]
     X:     0.0146      Y:     1.7082      Z:     0.0049     Total:     1.7083

*** Psi4 exiting successfully. Buy a developer a beer!
