                               Psi4 1.4a3.dev225

  ==> Input File <==

--------------------------------------------------------------------------
#psi4
#
memory 32 gb

molecule  {
0 1
  O       -0.0000020    -0.6102900    -0.0000420
  C        0.9363500     0.4141040    -0.4566330
  C       -0.9363370     0.4140910     0.4566200
  C        0.0000010     1.5430250    -0.0000030
  C        2.2717190     0.2897090     0.2433650
  C       -2.2717330     0.2897190    -0.2433270
  C        2.9423460    -1.0479970    -0.0522250
  C       -2.9423440    -1.0480000     0.0522380
  H        1.0693000     0.3446630    -1.5460730
  H       -1.0692400     0.3446160     1.5460640
  H        0.4022720     2.1756970     0.7958000
  H       -0.4022820     2.1756850    -0.7958090
  H        2.1021510     0.3966190     1.3216110
  H        2.9117530     1.1256360    -0.0698640
  H       -2.1022070     0.3966710    -1.3215760
  H       -2.9117580     1.1256310     0.0699580
  H        2.2243764    -1.9411651     0.2771260
  H        3.1497060    -1.1530710    -1.1218230
  H        3.8888820    -1.1460650     0.4866090
  H       -3.1496440    -1.1531250     1.1218420
  H       -3.8889120    -1.1460430    -0.4865470
  H       -2.2846070    -1.8662470    -0.2495670
units angstrom
no_reorient  #important for SAPT in psi4, default
symmetry c1  #important for SAPT in psi4, default
}

set PROPERTIES_ORIGIN ["COM"]
properties('MP2/aug-cc-pvtz', properties = ['dipole'])
--------------------------------------------------------------------------

    Molecular point group: c1
  Charge       = 0
  Multiplicity = 1
  Basis Set: AUG-CC-PVTZ
    Blend: AUG-CC-PVTZ
  Basis Set: (AUG-CC-PVTZ AUX)
    Blend: AUG-CC-PVTZ-JKFIT

    Orbital Energies [Eh]
    ---------------------

    Doubly Occupied:

       1A    -20.538000     2A    -11.277278     3A    -11.276942
       4A    -11.224226     5A    -11.220048     6A    -11.218810
       7A    -11.218738     8A    -11.207320     9A     -1.364940
      10A     -1.059165    11A     -1.046995    12A     -0.993145
      13A     -0.910718    14A     -0.844294    15A     -0.803855
      16A     -0.735992    17A     -0.670797    18A     -0.665064
      19A     -0.607709    20A     -0.598291    21A     -0.584055
      22A     -0.559378    23A     -0.548655    24A     -0.522068
      25A     -0.518795    26A     -0.498845    27A     -0.488199
      28A     -0.480859    29A     -0.474504    30A     -0.444938
      31A     -0.432710    32A     -0.401743

  @DF-RHF Final Energy:  -348.17977630221515

   => Energetics <=

    Nuclear Repulsion Energy =            399.1785486181163378
    One-Electron Energy =               -1263.8424975026957782
    Two-Electron Energy =                 516.4841725823642946
    Total Energy =                       -348.1797763022151457
  Basis Set: (AUG-CC-PVTZ AUX)
    Blend: AUG-CC-PVTZ-RI
    Molecular point group: c1

    Geometry (in Angstrom), charge = 0, multiplicity = 1:

       Center              X                  Y                   Z               Mass
    ------------   -----------------  -----------------  -----------------  -----------------
         O            0.000529869913    -0.611790989017    -0.000284903431    15.994914619570
         C            0.936881869913     0.412603010983    -0.456875903431    12.000000000000
         C           -0.935805130087     0.412590010983     0.456377096569    12.000000000000
         C            0.000532869913     1.541524010983    -0.000245903431    12.000000000000
         C            2.272250869913     0.288208010983     0.243122096569    12.000000000000
         C           -2.271201130087     0.288218010983    -0.243569903431    12.000000000000
         C            2.942877869913    -1.049497989017    -0.052467903431    12.000000000000
         C           -2.941812130087    -1.049500989017     0.051995096569    12.000000000000
         H            1.069831869913     0.343162010983    -1.546315903431     1.007825032230
         H           -1.068708130087     0.343115010983     1.545821096569     1.007825032230
         H            0.402803869913     2.174196010983     0.795557096569     1.007825032230
         H           -0.401750130087     2.174184010983    -0.796051903431     1.007825032230
         H            2.102682869913     0.395118010983     1.321368096569     1.007825032230
         H            2.912284869913     1.124135010983    -0.070106903431     1.007825032230
         H           -2.101675130087     0.395170010983    -1.321818903431     1.007825032230
         H           -2.911226130087     1.124130010983     0.069715096569     1.007825032230
         H            2.224908269913    -1.942666089017     0.276883096569     1.007825032230
         H            3.150237869913    -1.154571989017    -1.122065903431     1.007825032230
         H            3.889413869913    -1.147565989017     0.486366096569     1.007825032230
         H           -3.149112130087    -1.154625989017     1.121599096569     1.007825032230
         H           -3.888380130087    -1.147543989017    -0.486789903431     1.007825032230
         H           -2.284075130087    -1.867747989017    -0.249809903431     1.007825032230

  Basis Set: AUG-CC-PVTZ
    Blend: AUG-CC-PVTZ
  Basis Set: (AUG-CC-PVTZ AUX)
    Blend: AUG-CC-PVTZ-JKFIT
	 Reference Energy          =    -348.1797763022151457 [Eh]
	 Singles Energy            =      -0.0000000000000000 [Eh]
	 Same-Spin Energy          =      -0.3609683655016227 [Eh]
	 Opposite-Spin Energy      =      -1.2622336312936064 [Eh]
	 Correlation Energy        =      -1.6232019967952291 [Eh]
	 Total Energy              =    -349.8029782990103627 [Eh]

	 ================> DF-SCS-MP2 Energies <==================
	-----------------------------------------------------------
	 SCS Same-Spin Scale       =       0.3333333333333333 [-]
	 SCS Opposite-Spin Scale   =       1.2000000000000000 [-]
	 SCS Same-Spin Energy      =      -0.1203227885005409 [Eh]
	 SCS Opposite-Spin Energy  =      -1.5146803575523278 [Eh]
	 SCS Correlation Energy    =      -1.6350031460528687 [Eh]
	 SCS Total Energy          =    -349.8147794482680411 [Eh]
	-----------------------------------------------------------

  Dipole Moment: [D]
     X:     0.0069      Y:     1.7563      Z:    -0.0099     Total:     1.7563

*** Psi4 exiting successfully. Buy a developer a beer!
