                               Psi4 1.4a3.dev225

  ==> Input File <==

--------------------------------------------------------------------------
#psi4
#
memory 32 gb

molecule  {
0 1
  O       -0.0000020    -0.6102900    -0.0000420
  C        0.9363500     0.4141040    -0.4566330
  C       -0.9363370     0.4140910     0.4566200
  C        0.0000010     1.5430250    -0.0000030
  C        2.2717190     0.2897090     0.2433650
  C       -2.2717330     0.2897190    -0.2433270
  C        2.9423460    -1.0479970    -0.0522250
  C       -2.9423440    -1.0480000     0.0522380
  H        1.0693000     0.3446630    -1.5460730
  H       -1.0692400     0.3446160     1.5460640
  H        0.4022720     2.1756970     0.7958000
  H       -0.4022820     2.1756850    -0.7958090
  H        2.1021510     0.3966190     1.3216110
  H        2.9117530     1.1256360    -0.0698640
  H       -2.1022070     0.3966710    -1.3215760
  H       -2.9117580     1.1256310     0.0699580
  H        2.2725481    -1.8812386     0.2550284
  H        3.1497060    -1.1530710    -1.1218230
  H        3.8888820    -1.1460650     0.4866090
  H       -3.1496440    -1.1531250     1.1218420
  H       -3.8889120    -1.1460430    -0.4865470
  H       -2.2846070    -1.8662470    -0.2495670
units angstrom
no_reorient  #important for SAPT in psi4, default
symmetry c1  #important for SAPT in psi4, default
}

set PROPERTIES_ORIGIN ["COM"]
properties('MP2/aug-cc-pvtz', properties = ['dipole'])
--------------------------------------------------------------------------

    Molecular point group: c1
  Charge       = 0
  Multiplicity = 1
  Basis Set: AUG-CC-PVTZ
    Blend: AUG-CC-PVTZ
  Basis Set: (AUG-CC-PVTZ AUX)
    Blend: AUG-CC-PVTZ-JKFIT

    Orbital Energies [Eh]
    ---------------------

    Doubly Occupied:

       1A    -20.538064     2A    -11.277041     3A    -11.276982
       4A    -11.224092     5A    -11.219041     6A    -11.218826
       7A    -11.209702     8A    -11.207350     9A     -1.364986
      10A     -1.059603    11A     -1.047290    12A     -0.993947
      13A     -0.912602    14A     -0.846484    15A     -0.804815
      16A     -0.735983    17A     -0.671503    18A     -0.664946
      19A     -0.607479    20A     -0.600839    21A     -0.584074
      22A     -0.558947    23A     -0.551016    24A     -0.521852
      25A     -0.520919    26A     -0.498508    27A     -0.490956
      28A     -0.480625    29A     -0.479637    30A     -0.446045
      31A     -0.432471    32A     -0.401656

  @DF-RHF Final Energy:  -348.18583206386808

   => Energetics <=

    Nuclear Repulsion Energy =            399.4442400165215190
    One-Electron Energy =               -1264.3635841455629816
    Two-Electron Energy =                 516.7335120651733860
    Total Energy =                       -348.1858320638681334
  Basis Set: (AUG-CC-PVTZ AUX)
    Blend: AUG-CC-PVTZ-RI
    Molecular point group: c1

    Geometry (in Angstrom), charge = 0, multiplicity = 1:

       Center              X                  Y                   Z               Mass
    ------------   -----------------  -----------------  -----------------  -----------------
         O            0.000104394494    -0.612320288434    -0.000089726893    15.994914619570
         C            0.936456394494     0.412073711566    -0.456680726893    12.000000000000
         C           -0.936230605506     0.412060711566     0.456572273107    12.000000000000
         C            0.000107394494     1.540994711566    -0.000050726893    12.000000000000
         C            2.271825394494     0.287678711566     0.243317273107    12.000000000000
         C           -2.271626605506     0.287688711566    -0.243374726893    12.000000000000
         C            2.942452394494    -1.050027288434    -0.052272726893    12.000000000000
         C           -2.942237605506    -1.050030288434     0.052190273107    12.000000000000
         H            1.069406394494     0.342632711566    -1.546120726893     1.007825032230
         H           -1.069133605506     0.342585711566     1.546016273107     1.007825032230
         H            0.402378394494     2.173666711566     0.795752273107     1.007825032230
         H           -0.402175605506     2.173654711566    -0.795856726893     1.007825032230
         H            2.102257394494     0.394588711566     1.321563273107     1.007825032230
         H            2.911859394494     1.123605711566    -0.069911726893     1.007825032230
         H           -2.102100605506     0.394640711566    -1.321623726893     1.007825032230
         H           -2.911651605506     1.123600711566     0.069910273107     1.007825032230
         H            2.272654494494    -1.883268888434     0.254980673107     1.007825032230
         H            3.149812394494    -1.155101288434    -1.121870726893     1.007825032230
         H            3.888988394494    -1.148095288434     0.486561273107     1.007825032230
         H           -3.149537605506    -1.155155288434     1.121794273107     1.007825032230
         H           -3.888805605506    -1.148073288434    -0.486594726893     1.007825032230
         H           -2.284500605506    -1.868277288434    -0.249614726893     1.007825032230

  Basis Set: AUG-CC-PVTZ
    Blend: AUG-CC-PVTZ
  Basis Set: (AUG-CC-PVTZ AUX)
    Blend: AUG-CC-PVTZ-JKFIT
	 Reference Energy          =    -348.1858320638680766 [Eh]
	 Singles Energy            =      -0.0000000000000000 [Eh]
	 Same-Spin Energy          =      -0.3609301239877558 [Eh]
	 Opposite-Spin Energy      =      -1.2616071154644799 [Eh]
	 Correlation Energy        =      -1.6225372394522357 [Eh]
	 Total Energy              =    -349.8083693033203190 [Eh]

	 ================> DF-SCS-MP2 Energies <==================
	-----------------------------------------------------------
	 SCS Same-Spin Scale       =       0.3333333333333333 [-]
	 SCS Opposite-Spin Scale   =       1.2000000000000000 [-]
	 SCS Same-Spin Energy      =      -0.1203100413292519 [Eh]
	 SCS Opposite-Spin Energy  =      -1.5139285385573757 [Eh]
	 SCS Correlation Energy    =      -1.6342385798866277 [Eh]
	 SCS Total Energy          =    -349.8200706437547183 [Eh]
	-----------------------------------------------------------

  Dipole Moment: [D]
     X:     0.0011      Y:     1.7162      Z:    -0.0017     Total:     1.7162

*** Psi4 exiting successfully. Buy a developer a beer!
