                               Psi4 1.4a3.dev225

  ==> Input File <==

--------------------------------------------------------------------------
#psi4
#
memory 32 gb

molecule  {
0 1
  O       -0.0911163    -0.4957864     0.0443919
  C        0.9363500     0.4141040    -0.4566330
  C       -0.9363370     0.4140910     0.4566200
  C        0.0000010     1.5430250    -0.0000030
  C        2.2717190     0.2897090     0.2433650
  C       -2.2717330     0.2897190    -0.2433270
  C        2.9423460    -1.0479970    -0.0522250
  C       -2.9423440    -1.0480000     0.0522380
  H        1.0693000     0.3446630    -1.5460730
  H       -1.0692400     0.3446160     1.5460640
  H        0.4022720     2.1756970     0.7958000
  H       -0.4022820     2.1756850    -0.7958090
  H        2.1021510     0.3966190     1.3216110
  H        2.9117530     1.1256360    -0.0698640
  H       -2.1022070     0.3966710    -1.3215760
  H       -2.9117580     1.1256310     0.0699580
  H        2.2845910    -1.8662570     0.2495040
  H        3.1497060    -1.1530710    -1.1218230
  H        3.8888820    -1.1460650     0.4866090
  H       -3.1496440    -1.1531250     1.1218420
  H       -3.8889120    -1.1460430    -0.4865470
  H       -2.2846070    -1.8662470    -0.2495670
units angstrom
no_reorient  #important for SAPT in psi4, default
symmetry c1  #important for SAPT in psi4, default
}

set PROPERTIES_ORIGIN ["COM"]
properties('MP2/aug-cc-pvtz', properties = ['dipole'])
--------------------------------------------------------------------------

    Molecular point group: c1
  Charge       = 0
  Multiplicity = 1
  Basis Set: AUG-CC-PVTZ
    Blend: AUG-CC-PVTZ
  Basis Set: (AUG-CC-PVTZ AUX)
    Blend: AUG-CC-PVTZ-JKFIT

    Orbital Energies [Eh]
    ---------------------

    Doubly Occupied:

       1A    -20.536468     2A    -11.281959     3A    -11.259659
       4A    -11.224386     5A    -11.218999     6A    -11.212378
       7A    -11.209393     8A    -11.203964     9A     -1.421264
      10A     -1.067606    11A     -1.038746    12A     -0.990480
      13A     -0.920769    14A     -0.847710    15A     -0.814668
      16A     -0.729288    17A     -0.689236    18A     -0.677427
      19A     -0.618399    20A     -0.603773    21A     -0.584279
      22A     -0.566685    23A     -0.561392    24A     -0.527962
      25A     -0.521497    26A     -0.501106    27A     -0.494206
      28A     -0.482473    29A     -0.478112    30A     -0.444904
      31A     -0.423138    32A     -0.391413

  @DF-RHF Final Energy:  -348.17467916442342

   => Energetics <=

    Nuclear Repulsion Energy =            402.6642932642171218
    One-Electron Energy =               -1270.5904667144898212
    Two-Electron Energy =                 519.7514942858492759
    Total Energy =                       -348.1746791644234236
  Basis Set: (AUG-CC-PVTZ AUX)
    Blend: AUG-CC-PVTZ-RI
    Molecular point group: c1

    Geometry (in Angstrom), charge = 0, multiplicity = 1:

       Center              X                  Y                   Z               Mass
    ------------   -----------------  -----------------  -----------------  -----------------
         O           -0.078344070632    -0.513999877549     0.038164320218    15.994914619570
         C            0.949122229368     0.395890522451    -0.462860579782    12.000000000000
         C           -0.923564770632     0.395877522451     0.450392420218    12.000000000000
         C            0.012773229368     1.524811522451    -0.006230579782    12.000000000000
         C            2.284491229368     0.271495522451     0.237137420218    12.000000000000
         C           -2.258960770632     0.271505522451    -0.249554579782    12.000000000000
         C            2.955118229368    -1.066210477549    -0.058452579782    12.000000000000
         C           -2.929571770632    -1.066213477549     0.046010420218    12.000000000000
         H            1.082072229368     0.326449522451    -1.552300579782     1.007825032230
         H           -1.056467770632     0.326402522451     1.539836420218     1.007825032230
         H            0.415044229368     2.157483522451     0.789572420218     1.007825032230
         H           -0.389509770632     2.157471522451    -0.802036579782     1.007825032230
         H            2.114923229368     0.378405522451     1.315383420218     1.007825032230
         H            2.924525229368     1.107422522451    -0.076091579782     1.007825032230
         H           -2.089434770632     0.378457522451    -1.327803579782     1.007825032230
         H           -2.898985770632     1.107417522451     0.063730420218     1.007825032230
         H            2.297363229368    -1.884470477549     0.243276420218     1.007825032230
         H            3.162478229368    -1.171284477549    -1.128050579782     1.007825032230
         H            3.901654229368    -1.164278477549     0.480381420218     1.007825032230
         H           -3.136871770632    -1.171338477549     1.115614420218     1.007825032230
         H           -3.876139770632    -1.164256477549    -0.492774579782     1.007825032230
         H           -2.271834770632    -1.884460477549    -0.255794579782     1.007825032230

  Basis Set: AUG-CC-PVTZ
    Blend: AUG-CC-PVTZ
  Basis Set: (AUG-CC-PVTZ AUX)
    Blend: AUG-CC-PVTZ-JKFIT
	 Reference Energy          =    -348.1746791644234236 [Eh]
	 Singles Energy            =      -0.0000000000000000 [Eh]
	 Same-Spin Energy          =      -0.3600494950545523 [Eh]
	 Opposite-Spin Energy      =      -1.2577694130363501 [Eh]
	 Correlation Energy        =      -1.6178189080909025 [Eh]
	 Total Energy              =    -349.7924980725143200 [Eh]

	 ================> DF-SCS-MP2 Energies <==================
	-----------------------------------------------------------
	 SCS Same-Spin Scale       =       0.3333333333333333 [-]
	 SCS Opposite-Spin Scale   =       1.2000000000000000 [-]
	 SCS Same-Spin Energy      =      -0.1200164983515174 [Eh]
	 SCS Opposite-Spin Energy  =      -1.5093232956436202 [Eh]
	 SCS Correlation Energy    =      -1.6293397939951377 [Eh]
	 SCS Total Energy          =    -349.8040189584185669 [Eh]
	-----------------------------------------------------------

  Dipole Moment: [D]
     X:     0.6062      Y:     1.3823      Z:    -0.1794     Total:     1.5200

*** Psi4 exiting successfully. Buy a developer a beer!
