                               Psi4 1.4a3.dev225

  ==> Input File <==

--------------------------------------------------------------------------
#psi4
#
memory 32 gb

molecule  {
0 1
  O       -0.0000020    -0.6102900    -0.0000420
  C        0.9363500     0.4141040    -0.4566330
  C       -0.9363370     0.4140910     0.4566200
  C        0.0000010     1.5430250    -0.0000030
  C        2.2717190     0.2897090     0.2433650
  C       -2.2717330     0.2897190    -0.2433270
  C        2.9423460    -1.0479970    -0.0522250
  C       -2.9423440    -1.0480000     0.0522380
  H        1.0934789     0.3320341    -1.7442040
  H       -1.0692400     0.3446160     1.5460640
  H        0.4022720     2.1756970     0.7958000
  H       -0.4022820     2.1756850    -0.7958090
  H        2.1021510     0.3966190     1.3216110
  H        2.9117530     1.1256360    -0.0698640
  H       -2.1022070     0.3966710    -1.3215760
  H       -2.9117580     1.1256310     0.0699580
  H        2.2845910    -1.8662570     0.2495040
  H        3.1497060    -1.1530710    -1.1218230
  H        3.8888820    -1.1460650     0.4866090
  H       -3.1496440    -1.1531250     1.1218420
  H       -3.8889120    -1.1460430    -0.4865470
  H       -2.2846070    -1.8662470    -0.2495670
units angstrom
no_reorient  #important for SAPT in psi4, default
symmetry c1  #important for SAPT in psi4, default
}

set PROPERTIES_ORIGIN ["COM"]
properties('MP2/aug-cc-pvtz', properties = ['dipole'])
--------------------------------------------------------------------------

    Molecular point group: c1
  Charge       = 0
  Multiplicity = 1
  Basis Set: AUG-CC-PVTZ
    Blend: AUG-CC-PVTZ
  Basis Set: (AUG-CC-PVTZ AUX)
    Blend: AUG-CC-PVTZ-JKFIT

    Orbital Energies [Eh]
    ---------------------

    Doubly Occupied:

       1A    -20.543124     2A    -11.300428     3A    -11.279220
       4A    -11.227186     5A    -11.221806     6A    -11.219809
       7A    -11.208204     8A    -11.207489     9A     -1.368365
      10A     -1.059652    11A     -1.048134    12A     -0.995872
      13A     -0.910055    14A     -0.847988    15A     -0.799834
      16A     -0.727088    17A     -0.672034    18A     -0.657004
      19A     -0.609276    20A     -0.602708    21A     -0.585091
      22A     -0.553472    23A     -0.549493    24A     -0.522981
      25A     -0.521250    26A     -0.498497    27A     -0.492909
      28A     -0.481560    29A     -0.477742    30A     -0.449336
      31A     -0.429982    32A     -0.396792

  @DF-RHF Final Energy:  -348.16622441524163

   => Energetics <=

    Nuclear Repulsion Energy =            398.5444277248662388
    One-Electron Energy =               -1262.4925478581249081
    Two-Electron Energy =                 515.7818957180170401
    Total Energy =                       -348.1662244152416861
  Basis Set: (AUG-CC-PVTZ AUX)
    Blend: AUG-CC-PVTZ-RI
    Molecular point group: c1

    Geometry (in Angstrom), charge = 0, multiplicity = 1:

       Center              X                  Y                   Z               Mass
    ------------   -----------------  -----------------  -----------------  -----------------
         O           -0.000215533712    -0.612341068602     0.001709054688    15.994914619570
         C            0.936136466288     0.412052931398    -0.454881945312    12.000000000000
         C           -0.936550533712     0.412039931398     0.458371054688    12.000000000000
         C           -0.000212533712     1.540973931398     0.001748054688    12.000000000000
         C            2.271505466288     0.287657931398     0.245116054688    12.000000000000
         C           -2.271946533712     0.287667931398    -0.241575945312    12.000000000000
         C            2.942132466288    -1.050048068602    -0.050473945312    12.000000000000
         C           -2.942557533712    -1.050051068602     0.053989054688    12.000000000000
         H            1.093265366288     0.329983031398    -1.742452945312     1.007825032230
         H           -1.069453533712     0.342564931398     1.547815054688     1.007825032230
         H            0.402058466288     2.173645931398     0.797551054688     1.007825032230
         H           -0.402495533712     2.173633931398    -0.794057945312     1.007825032230
         H            2.101937466288     0.394567931398     1.323362054688     1.007825032230
         H            2.911539466288     1.123584931398    -0.068112945312     1.007825032230
         H           -2.102420533712     0.394619931398    -1.319824945312     1.007825032230
         H           -2.911971533712     1.123579931398     0.071709054688     1.007825032230
         H            2.284377466288    -1.868308068602     0.251255054688     1.007825032230
         H            3.149492466288    -1.155122068602    -1.120071945312     1.007825032230
         H            3.888668466288    -1.148116068602     0.488360054688     1.007825032230
         H           -3.149857533712    -1.155176068602     1.123593054688     1.007825032230
         H           -3.889125533712    -1.148094068602    -0.484795945312     1.007825032230
         H           -2.284820533712    -1.868298068602    -0.247815945312     1.007825032230

  Basis Set: AUG-CC-PVTZ
    Blend: AUG-CC-PVTZ
  Basis Set: (AUG-CC-PVTZ AUX)
    Blend: AUG-CC-PVTZ-JKFIT
	 Reference Energy          =    -348.1662244152416292 [Eh]
	 Singles Energy            =      -0.0000000000000000 [Eh]
	 Same-Spin Energy          =      -0.3613577847972017 [Eh]
	 Opposite-Spin Energy      =      -1.2635841820737648 [Eh]
	 Correlation Energy        =      -1.6249419668709664 [Eh]
	 Total Energy              =    -349.7911663821125785 [Eh]

	 ================> DF-SCS-MP2 Energies <==================
	-----------------------------------------------------------
	 SCS Same-Spin Scale       =       0.3333333333333333 [-]
	 SCS Opposite-Spin Scale   =       1.2000000000000000 [-]
	 SCS Same-Spin Energy      =      -0.1204525949324005 [Eh]
	 SCS Opposite-Spin Energy  =      -1.5163010184885177 [Eh]
	 SCS Correlation Energy    =      -1.6367536134209182 [Eh]
	 SCS Total Energy          =    -349.8029780286625510 [Eh]
	-----------------------------------------------------------

  Dipole Moment: [D]
     X:    -0.0931      Y:     1.7001      Z:     0.2240     Total:     1.7173

*** Psi4 exiting successfully. Buy a developer a beer!
