                               Psi4 1.4a3.dev225

  ==> Input File <==

--------------------------------------------------------------------------
#psi4
#
memory 32 gb

molecule  {
0 1
  O       -0.0000020    -0.6102900    -0.0000420
  C        0.9363500     0.4141040    -0.4566330
  C       -0.9363370     0.4140910     0.4566200
  C        0.0000010     1.5430250    -0.0000030
  C        2.2717190     0.2897090     0.2433650
  C       -2.2717330     0.2897190    -0.2433270
  C        2.9423460    -1.0479970    -0.0522250
  C       -2.9423440    -1.0480000     0.0522380
  H        1.0668821     0.3459259    -1.5262599
  H       -1.0692400     0.3446160     1.5460640
  H        0.4022720     2.1756970     0.7958000
  H       -0.4022820     2.1756850    -0.7958090
  H        2.1021510     0.3966190     1.3216110
  H        2.9117530     1.1256360    -0.0698640
  H       -2.1022070     0.3966710    -1.3215760
  H       -2.9117580     1.1256310     0.0699580
  H        2.2845910    -1.8662570     0.2495040
  H        3.1497060    -1.1530710    -1.1218230
  H        3.8888820    -1.1460650     0.4866090
  H       -3.1496440    -1.1531250     1.1218420
  H       -3.8889120    -1.1460430    -0.4865470
  H       -2.2846070    -1.8662470    -0.2495670
units angstrom
no_reorient  #important for SAPT in psi4, default
symmetry c1  #important for SAPT in psi4, default
}

set PROPERTIES_ORIGIN ["COM"]
properties('MP2/aug-cc-pvtz', properties = ['dipole'])
--------------------------------------------------------------------------

    Molecular point group: c1
  Charge       = 0
  Multiplicity = 1
  Basis Set: AUG-CC-PVTZ
    Blend: AUG-CC-PVTZ
  Basis Set: (AUG-CC-PVTZ AUX)
    Blend: AUG-CC-PVTZ-JKFIT

    Orbital Energies [Eh]
    ---------------------

    Doubly Occupied:

       1A    -20.537691     2A    -11.276829     3A    -11.274489
       4A    -11.223829     5A    -11.218757     6A    -11.218602
       7A    -11.207361     8A    -11.207293     9A     -1.364774
      10A     -1.059928    11A     -1.047418    12A     -0.994114
      13A     -0.913804    14A     -0.847125    15A     -0.806028
      16A     -0.737345    17A     -0.672070    18A     -0.665377
      19A     -0.607304    20A     -0.601570    21A     -0.584061
      22A     -0.559832    23A     -0.551643    24A     -0.522216
      25A     -0.521081    26A     -0.498494    27A     -0.491809
      28A     -0.480798    29A     -0.480300    30A     -0.445994
      31A     -0.432683    32A     -0.401908

  @DF-RHF Final Energy:  -348.18649858284437

   => Energetics <=

    Nuclear Repulsion Energy =            399.6228668453473460
    One-Electron Energy =               -1264.7136780379350967
    Two-Electron Energy =                 516.9043126097434424
    Total Energy =                       -348.1864985828443650
  Basis Set: (AUG-CC-PVTZ AUX)
    Blend: AUG-CC-PVTZ-RI
    Molecular point group: c1

    Geometry (in Angstrom), charge = 0, multiplicity = 1:

       Center              X                  Y                   Z               Mass
    ------------   -----------------  -----------------  -----------------  -----------------
         O            0.000019381905    -0.612463767602    -0.000215931503    15.994914619570
         C            0.936371381905     0.411930232398    -0.456806931503    12.000000000000
         C           -0.936315618095     0.411917232398     0.456446068497    12.000000000000
         C            0.000022381905     1.540851232398    -0.000176931503    12.000000000000
         C            2.271740381905     0.287535232398     0.243191068497    12.000000000000
         C           -2.271711618095     0.287545232398    -0.243500931503    12.000000000000
         C            2.942367381905    -1.050170767602    -0.052398931503    12.000000000000
         C           -2.942322618095    -1.050173767602     0.052064068497    12.000000000000
         H            1.066903481905     0.343752132398    -1.526433831503     1.007825032230
         H           -1.069218618095     0.342442232398     1.545890068497     1.007825032230
         H            0.402293381905     2.173523232398     0.795626068497     1.007825032230
         H           -0.402260618095     2.173511232398    -0.795982931503     1.007825032230
         H            2.102172381905     0.394445232398     1.321437068497     1.007825032230
         H            2.911774381905     1.123462232398    -0.070037931503     1.007825032230
         H           -2.102185618095     0.394497232398    -1.321749931503     1.007825032230
         H           -2.911736618095     1.123457232398     0.069784068497     1.007825032230
         H            2.284612381905    -1.868430767602     0.249330068497     1.007825032230
         H            3.149727381905    -1.155244767602    -1.121996931503     1.007825032230
         H            3.888903381905    -1.148238767602     0.486435068497     1.007825032230
         H           -3.149622618095    -1.155298767602     1.121668068497     1.007825032230
         H           -3.888890618095    -1.148216767602    -0.486720931503     1.007825032230
         H           -2.284585618095    -1.868420767602    -0.249740931503     1.007825032230

  Basis Set: AUG-CC-PVTZ
    Blend: AUG-CC-PVTZ
  Basis Set: (AUG-CC-PVTZ AUX)
    Blend: AUG-CC-PVTZ-JKFIT
	 Reference Energy          =    -348.1864985828443650 [Eh]
	 Singles Energy            =      -0.0000000000000000 [Eh]
	 Same-Spin Energy          =      -0.3608871736476996 [Eh]
	 Opposite-Spin Energy      =      -1.2613103433176958 [Eh]
	 Correlation Energy        =      -1.6221975169653953 [Eh]
	 Total Energy              =    -349.8086960998097652 [Eh]

	 ================> DF-SCS-MP2 Energies <==================
	-----------------------------------------------------------
	 SCS Same-Spin Scale       =       0.3333333333333333 [-]
	 SCS Opposite-Spin Scale   =       1.2000000000000000 [-]
	 SCS Same-Spin Energy      =      -0.1202957245492332 [Eh]
	 SCS Opposite-Spin Energy  =      -1.5135724119812348 [Eh]
	 SCS Correlation Energy    =      -1.6338681365304679 [Eh]
	 SCS Total Energy          =    -349.8203667193748174 [Eh]
	-----------------------------------------------------------

  Dipole Moment: [D]
     X:     0.0075      Y:     1.7081      Z:    -0.0161     Total:     1.7081

*** Psi4 exiting successfully. Buy a developer a beer!
