                               Psi4 1.4a3.dev225

  ==> Input File <==

--------------------------------------------------------------------------
#psi4
#
memory 32 gb

molecule  {
0 1
  O       -0.0000020    -0.6102900    -0.0000420
  C        0.9363500     0.4141040    -0.4566330
  C       -0.9363370     0.4140910     0.4566200
  C        0.0000010     1.5430250    -0.0000030
  C        2.2717190     0.2897090     0.2433650
  C       -2.2717330     0.2897190    -0.2433270
  C        2.9423460    -1.0479970    -0.0522250
  C       -2.9423440    -1.0480000     0.0522380
  H        1.0693000     0.3446630    -1.5460730
  H       -1.0668230     0.3458795     1.5262508
  H        0.4022720     2.1756970     0.7958000
  H       -0.4022820     2.1756850    -0.7958090
  H        2.1021510     0.3966190     1.3216110
  H        2.9117530     1.1256360    -0.0698640
  H       -2.1022070     0.3966710    -1.3215760
  H       -2.9117580     1.1256310     0.0699580
  H        2.2845910    -1.8662570     0.2495040
  H        3.1497060    -1.1530710    -1.1218230
  H        3.8888820    -1.1460650     0.4866090
  H       -3.1496440    -1.1531250     1.1218420
  H       -3.8889120    -1.1460430    -0.4865470
  H       -2.2846070    -1.8662470    -0.2495670
units angstrom
no_reorient  #important for SAPT in psi4, default
symmetry c1  #important for SAPT in psi4, default
}

set PROPERTIES_ORIGIN ["COM"]
properties('MP2/aug-cc-pvtz', properties = ['dipole'])
--------------------------------------------------------------------------

    Molecular point group: c1
  Charge       = 0
  Multiplicity = 1
  Basis Set: AUG-CC-PVTZ
    Blend: AUG-CC-PVTZ
  Basis Set: (AUG-CC-PVTZ AUX)
    Blend: AUG-CC-PVTZ-JKFIT

    Orbital Energies [Eh]
    ---------------------

    Doubly Occupied:

       1A    -20.537691     2A    -11.276829     3A    -11.274489
       4A    -11.223829     5A    -11.218757     6A    -11.218602
       7A    -11.207361     8A    -11.207293     9A     -1.364774
      10A     -1.059928    11A     -1.047417    12A     -0.994114
      13A     -0.913804    14A     -0.847125    15A     -0.806028
      16A     -0.737345    17A     -0.672070    18A     -0.665377
      19A     -0.607304    20A     -0.601570    21A     -0.584061
      22A     -0.559832    23A     -0.551642    24A     -0.522216
      25A     -0.521081    26A     -0.498494    27A     -0.491809
      28A     -0.480798    29A     -0.480300    30A     -0.445994
      31A     -0.432683    32A     -0.401908

  @DF-RHF Final Energy:  -348.18649859322909

   => Energetics <=

    Nuclear Repulsion Energy =            399.6228666355404471
    One-Electron Energy =               -1264.7136775342355577
    Two-Electron Energy =                 516.9043123054659645
    Total Energy =                       -348.1864985932290892
  Basis Set: (AUG-CC-PVTZ AUX)
    Blend: AUG-CC-PVTZ-RI
    Molecular point group: c1

    Geometry (in Angstrom), charge = 0, multiplicity = 1:

       Center              X                  Y                   Z               Mass
    ------------   -----------------  -----------------  -----------------  -----------------
         O           -0.000023322237    -0.612463772901     0.000134066869    15.994914619570
         C            0.936328677763     0.411930227099    -0.456456933131    12.000000000000
         C           -0.936358322237     0.411917227099     0.456796066869    12.000000000000
         C           -0.000020322237     1.540851227099     0.000173066869    12.000000000000
         C            2.271697677763     0.287535227099     0.243541066869    12.000000000000
         C           -2.271754322237     0.287545227099    -0.243150933131    12.000000000000
         C            2.942324677763    -1.050170772901    -0.052048933131    12.000000000000
         C           -2.942365322237    -1.050173772901     0.052414066869    12.000000000000
         H            1.069278677763     0.342489227099    -1.545896933131     1.007825032230
         H           -1.066844322237     0.343705727099     1.526426866869     1.007825032230
         H            0.402250677763     2.173523227099     0.795976066869     1.007825032230
         H           -0.402303322237     2.173511227099    -0.795632933131     1.007825032230
         H            2.102129677763     0.394445227099     1.321787066869     1.007825032230
         H            2.911731677763     1.123462227099    -0.069687933131     1.007825032230
         H           -2.102228322237     0.394497227099    -1.321399933131     1.007825032230
         H           -2.911779322237     1.123457227099     0.070134066869     1.007825032230
         H            2.284569677763    -1.868430772901     0.249680066869     1.007825032230
         H            3.149684677763    -1.155244772901    -1.121646933131     1.007825032230
         H            3.888860677763    -1.148238772901     0.486785066869     1.007825032230
         H           -3.149665322237    -1.155298772901     1.122018066869     1.007825032230
         H           -3.888933322237    -1.148216772901    -0.486370933131     1.007825032230
         H           -2.284628322237    -1.868420772901    -0.249390933131     1.007825032230

  Basis Set: AUG-CC-PVTZ
    Blend: AUG-CC-PVTZ
  Basis Set: (AUG-CC-PVTZ AUX)
    Blend: AUG-CC-PVTZ-JKFIT
	 Reference Energy          =    -348.1864985932290892 [Eh]
	 Singles Energy            =      -0.0000000000000000 [Eh]
	 Same-Spin Energy          =      -0.3608871728660857 [Eh]
	 Opposite-Spin Energy      =      -1.2613103415851914 [Eh]
	 Correlation Energy        =      -1.6221975144512770 [Eh]
	 Total Energy              =    -349.8086961076803618 [Eh]

	 ================> DF-SCS-MP2 Energies <==================
	-----------------------------------------------------------
	 SCS Same-Spin Scale       =       0.3333333333333333 [-]
	 SCS Opposite-Spin Scale   =       1.2000000000000000 [-]
	 SCS Same-Spin Energy      =      -0.1202957242886952 [Eh]
	 SCS Opposite-Spin Energy  =      -1.5135724099022296 [Eh]
	 SCS Correlation Energy    =      -1.6338681341909249 [Eh]
	 SCS Total Energy          =    -349.8203667274200370 [Eh]
	-----------------------------------------------------------

  Dipole Moment: [D]
     X:    -0.0075      Y:     1.7081      Z:     0.0162     Total:     1.7081

*** Psi4 exiting successfully. Buy a developer a beer!
