                               Psi4 1.4a3.dev225

  ==> Input File <==

--------------------------------------------------------------------------
#psi4
#
memory 32 gb

molecule  {
0 1
  O       -0.0000020    -0.6102900    -0.0000420
  C        0.9363500     0.4141040    -0.4566330
  C       -0.9363370     0.4140910     0.4566200
  C        0.0000010     1.5430250    -0.0000030
  C        2.0951808     0.3061542     0.1508240
  C       -2.2717330     0.2897190    -0.2433270
  C        2.9423460    -1.0479970    -0.0522250
  C       -2.9423440    -1.0480000     0.0522380
  H        1.0693000     0.3446630    -1.5460730
  H       -1.0692400     0.3446160     1.5460640
  H        0.4022720     2.1756970     0.7958000
  H       -0.4022820     2.1756850    -0.7958090
  H        2.1021510     0.3966190     1.3216110
  H        2.9117530     1.1256360    -0.0698640
  H       -2.1022070     0.3966710    -1.3215760
  H       -2.9117580     1.1256310     0.0699580
  H        2.2845910    -1.8662570     0.2495040
  H        3.1497060    -1.1530710    -1.1218230
  H        3.8888820    -1.1460650     0.4866090
  H       -3.1496440    -1.1531250     1.1218420
  H       -3.8889120    -1.1460430    -0.4865470
  H       -2.2846070    -1.8662470    -0.2495670
units angstrom
no_reorient  #important for SAPT in psi4, default
symmetry c1  #important for SAPT in psi4, default
}

set PROPERTIES_ORIGIN ["COM"]
properties('MP2/aug-cc-pvtz', properties = ['dipole'])
--------------------------------------------------------------------------

    Molecular point group: c1
  Charge       = 0
  Multiplicity = 1
  Basis Set: AUG-CC-PVTZ
    Blend: AUG-CC-PVTZ
  Basis Set: (AUG-CC-PVTZ AUX)
    Blend: AUG-CC-PVTZ-JKFIT

    Orbital Energies [Eh]
    ---------------------

    Doubly Occupied:

       1A    -20.538512     2A    -11.277623     3A    -11.267009
       4A    -11.226969     5A    -11.225536     6A    -11.219247
       7A    -11.213608     8A    -11.207616     9A     -1.370197
      10A     -1.083417    11A     -1.051837    12A     -0.991297
      13A     -0.921406    14A     -0.855601    15A     -0.799724
      16A     -0.736611    17A     -0.678346    18A     -0.670292
      19A     -0.615951    20A     -0.602690    21A     -0.582790
      22A     -0.559696    23A     -0.550199    24A     -0.533395
      25A     -0.522121    26A     -0.503308    27A     -0.493093
      28A     -0.476717    29A     -0.461551    30A     -0.436377
      31A     -0.419887    32A     -0.407849

  @DF-RHF Final Energy:  -348.13559541795576

   => Energetics <=

    Nuclear Repulsion Energy =            402.4740292731333966
    One-Electron Energy =               -1270.2183059721605787
    Two-Electron Energy =                 519.6086812810714264
    Total Energy =                       -348.1355954179557557
  Basis Set: (AUG-CC-PVTZ AUX)
    Blend: AUG-CC-PVTZ-RI
    Molecular point group: c1

    Geometry (in Angstrom), charge = 0, multiplicity = 1:

       Center              X                  Y                   Z               Mass
    ------------   -----------------  -----------------  -----------------  -----------------
         O            0.018563981177    -0.614182101916     0.009691306898    15.994914619570
         C            0.954915981177     0.410211898084    -0.446899693102    12.000000000000
         C           -0.917771018823     0.410198898084     0.466353306898    12.000000000000
         C            0.018566981177     1.539132898084     0.009730306898    12.000000000000
         C            2.113746781177     0.302262098084     0.160557306898    12.000000000000
         C           -2.253167018823     0.285826898084    -0.233593693102    12.000000000000
         C            2.960911981177    -1.051889101916    -0.042491693102    12.000000000000
         C           -2.923778018823    -1.051892101916     0.061971306898    12.000000000000
         H            1.087865981177     0.340770898084    -1.536339693102     1.007825032230
         H           -1.050674018823     0.340723898084     1.555797306898     1.007825032230
         H            0.420837981177     2.171804898084     0.805533306898     1.007825032230
         H           -0.383716018823     2.171792898084    -0.786075693102     1.007825032230
         H            2.120716981177     0.392726898084     1.331344306898     1.007825032230
         H            2.930318981177     1.121743898084    -0.060130693102     1.007825032230
         H           -2.083641018823     0.392778898084    -1.311842693102     1.007825032230
         H           -2.893192018823     1.121738898084     0.079691306898     1.007825032230
         H            2.303156981177    -1.870149101916     0.259237306898     1.007825032230
         H            3.168271981177    -1.156963101916    -1.112089693102     1.007825032230
         H            3.907447981177    -1.149957101916     0.496342306898     1.007825032230
         H           -3.131078018823    -1.157017101916     1.131575306898     1.007825032230
         H           -3.870346018823    -1.149935101916    -0.476813693102     1.007825032230
         H           -2.266041018823    -1.870139101916    -0.239833693102     1.007825032230

  Basis Set: AUG-CC-PVTZ
    Blend: AUG-CC-PVTZ
  Basis Set: (AUG-CC-PVTZ AUX)
    Blend: AUG-CC-PVTZ-JKFIT
	 Reference Energy          =    -348.1355954179557557 [Eh]
	 Singles Energy            =      -0.0000000000000000 [Eh]
	 Same-Spin Energy          =      -0.3637920448986141 [Eh]
	 Opposite-Spin Energy      =      -1.2656426042615525 [Eh]
	 Correlation Energy        =      -1.6294346491601666 [Eh]
	 Total Energy              =    -349.7650300671159016 [Eh]

	 ================> DF-SCS-MP2 Energies <==================
	-----------------------------------------------------------
	 SCS Same-Spin Scale       =       0.3333333333333333 [-]
	 SCS Opposite-Spin Scale   =       1.2000000000000000 [-]
	 SCS Same-Spin Energy      =      -0.1212640149662047 [Eh]
	 SCS Opposite-Spin Energy  =      -1.5187711251138629 [Eh]
	 SCS Correlation Energy    =      -1.6400351400800677 [Eh]
	 SCS Total Energy          =    -349.7756305580358003 [Eh]
	-----------------------------------------------------------

  Dipole Moment: [D]
     X:     0.0472      Y:     1.6992      Z:     0.0040     Total:     1.6998

*** Psi4 exiting successfully. Buy a developer a beer!
