                               Psi4 1.4a3.dev225

  ==> Input File <==

--------------------------------------------------------------------------
#psi4
#
memory 32 gb

molecule  {
0 1
  O       -0.0000020    -0.6102900    -0.0000420
  C        0.9363500     0.4141040    -0.4566330
  C       -0.9363370     0.4140910     0.4566200
  C       -0.0040258     1.5357385    -0.0254880
  C        2.2717190     0.2897090     0.2433650
  C       -2.2717330     0.2897190    -0.2433270
  C        2.9423460    -1.0479970    -0.0522250
  C       -2.9423440    -1.0480000     0.0522380
  H        1.0693000     0.3446630    -1.5460730
  H       -1.0692400     0.3446160     1.5460640
  H        0.4022720     2.1756970     0.7958000
  H       -0.4022820     2.1756850    -0.7958090
  H        2.1021510     0.3966190     1.3216110
  H        2.9117530     1.1256360    -0.0698640
  H       -2.1022070     0.3966710    -1.3215760
  H       -2.9117580     1.1256310     0.0699580
  H        2.2845910    -1.8662570     0.2495040
  H        3.1497060    -1.1530710    -1.1218230
  H        3.8888820    -1.1460650     0.4866090
  H       -3.1496440    -1.1531250     1.1218420
  H       -3.8889120    -1.1460430    -0.4865470
  H       -2.2846070    -1.8662470    -0.2495670
units angstrom
no_reorient  #important for SAPT in psi4, default
symmetry c1  #important for SAPT in psi4, default
}

set PROPERTIES_ORIGIN ["COM"]
properties('MP2/aug-cc-pvtz', properties = ['dipole'])
--------------------------------------------------------------------------

    Molecular point group: c1
  Charge       = 0
  Multiplicity = 1
  Basis Set: AUG-CC-PVTZ
    Blend: AUG-CC-PVTZ
  Basis Set: (AUG-CC-PVTZ AUX)
    Blend: AUG-CC-PVTZ-JKFIT

    Orbital Energies [Eh]
    ---------------------

    Doubly Occupied:

       1A    -20.537977     2A    -11.276863     3A    -11.276473
       4A    -11.224375     5A    -11.219106     6A    -11.218625
       7A    -11.207517     8A    -11.207258     9A     -1.365513
      10A     -1.059915    11A     -1.047660    12A     -0.994760
      13A     -0.913512    14A     -0.847092    15A     -0.805267
      16A     -0.735717    17A     -0.671932    18A     -0.665458
      19A     -0.607399    20A     -0.601684    21A     -0.584710
      22A     -0.558987    23A     -0.551147    24A     -0.522303
      25A     -0.519734    26A     -0.498397    27A     -0.491981
      28A     -0.480620    29A     -0.480440    30A     -0.446226
      31A     -0.433608    32A     -0.401315

  @DF-RHF Final Energy:  -348.18552492435117

   => Energetics <=

    Nuclear Repulsion Energy =            399.6606148088513351
    One-Electron Energy =               -1264.7851426464414999
    Two-Electron Energy =                 516.9390029132390509
    Total Energy =                       -348.1855249243511707
  Basis Set: (AUG-CC-PVTZ AUX)
    Blend: AUG-CC-PVTZ-RI
    Molecular point group: c1

    Geometry (in Angstrom), charge = 0, multiplicity = 1:

       Center              X                  Y                   Z               Mass
    ------------   -----------------  -----------------  -----------------  -----------------
         O            0.000421511478    -0.611686315272     0.002639242814    15.994914619570
         C            0.936773511478     0.412707684728    -0.453951757186    12.000000000000
         C           -0.935913488522     0.412694684728     0.459301242814    12.000000000000
         C           -0.003602288522     1.534342184728    -0.022806757186    12.000000000000
         C            2.272142511478     0.288312684728     0.246046242814    12.000000000000
         C           -2.271309488522     0.288322684728    -0.240645757186    12.000000000000
         C            2.942769511478    -1.049393315272    -0.049543757186    12.000000000000
         C           -2.941920488522    -1.049396315272     0.054919242814    12.000000000000
         H            1.069723511478     0.343266684728    -1.543391757186     1.007825032230
         H           -1.068816488522     0.343219684728     1.548745242814     1.007825032230
         H            0.402695511478     2.174300684728     0.798481242814     1.007825032230
         H           -0.401858488522     2.174288684728    -0.793127757186     1.007825032230
         H            2.102574511478     0.395222684728     1.324292242814     1.007825032230
         H            2.912176511478     1.124239684728    -0.067182757186     1.007825032230
         H           -2.101783488522     0.395274684728    -1.318894757186     1.007825032230
         H           -2.911334488522     1.124234684728     0.072639242814     1.007825032230
         H            2.285014511478    -1.867653315272     0.252185242814     1.007825032230
         H            3.150129511478    -1.154467315272    -1.119141757186     1.007825032230
         H            3.889305511478    -1.147461315272     0.489290242814     1.007825032230
         H           -3.149220488522    -1.154521315272     1.124523242814     1.007825032230
         H           -3.888488488522    -1.147439315272    -0.483865757186     1.007825032230
         H           -2.284183488522    -1.867643315272    -0.246885757186     1.007825032230

  Basis Set: AUG-CC-PVTZ
    Blend: AUG-CC-PVTZ
  Basis Set: (AUG-CC-PVTZ AUX)
    Blend: AUG-CC-PVTZ-JKFIT
	 Reference Energy          =    -348.1855249243511707 [Eh]
	 Singles Energy            =      -0.0000000000000000 [Eh]
	 Same-Spin Energy          =      -0.3609674904244439 [Eh]
	 Opposite-Spin Energy      =      -1.2615156942203949 [Eh]
	 Correlation Energy        =      -1.6224831846448389 [Eh]
	 Total Energy              =    -349.8080081089960345 [Eh]

	 ================> DF-SCS-MP2 Energies <==================
	-----------------------------------------------------------
	 SCS Same-Spin Scale       =       0.3333333333333333 [-]
	 SCS Opposite-Spin Scale   =       1.2000000000000000 [-]
	 SCS Same-Spin Energy      =      -0.1203224968081480 [Eh]
	 SCS Opposite-Spin Energy  =      -1.5138188330644737 [Eh]
	 SCS Correlation Energy    =      -1.6341413298726217 [Eh]
	 SCS Total Energy          =    -349.8196662542238187 [Eh]
	-----------------------------------------------------------

  Dipole Moment: [D]
     X:    -0.0081      Y:     1.7057      Z:    -0.0120     Total:     1.7058

*** Psi4 exiting successfully. Buy a developer a beer!
