                               Psi4 1.4a3.dev225

  ==> Input File <==

--------------------------------------------------------------------------
#psi4
#
memory 32 gb

molecule  {
0 1
  O       -0.0000020    -0.6102900    -0.0000420
  C        0.9363500     0.4141040    -0.4566330
  C       -0.9363370     0.4140910     0.4566200
  C        0.0000010     1.5430250    -0.0000030
  C        2.2717190     0.2897090     0.2433650
  C       -2.2717330     0.2897190    -0.2433270
  C        2.9423460    -1.0479970    -0.0522250
  C       -2.9423440    -1.0480000     0.0522380
  H        1.0717179     0.3434001    -1.5658861
  H       -1.0692400     0.3446160     1.5460640
  H        0.4022720     2.1756970     0.7958000
  H       -0.4022820     2.1756850    -0.7958090
  H        2.1021510     0.3966190     1.3216110
  H        2.9117530     1.1256360    -0.0698640
  H       -2.1022070     0.3966710    -1.3215760
  H       -2.9117580     1.1256310     0.0699580
  H        2.2845910    -1.8662570     0.2495040
  H        3.1497060    -1.1530710    -1.1218230
  H        3.8888820    -1.1460650     0.4866090
  H       -3.1496440    -1.1531250     1.1218420
  H       -3.8889120    -1.1460430    -0.4865470
  H       -2.2846070    -1.8662470    -0.2495670
units angstrom
no_reorient  #important for SAPT in psi4, default
symmetry c1  #important for SAPT in psi4, default
}

set PROPERTIES_ORIGIN ["COM"]
properties('MP2/aug-cc-pvtz', properties = ['dipole'])
--------------------------------------------------------------------------

    Molecular point group: c1
  Charge       = 0
  Multiplicity = 1
  Basis Set: AUG-CC-PVTZ
    Blend: AUG-CC-PVTZ
  Basis Set: (AUG-CC-PVTZ AUX)
    Blend: AUG-CC-PVTZ-JKFIT

    Orbital Energies [Eh]
    ---------------------

    Doubly Occupied:

       1A    -20.538489     2A    -11.279470     3A    -11.277165
       4A    -11.224314     5A    -11.219070     6A    -11.218906
       7A    -11.207424     8A    -11.207356     9A     -1.365242
      10A     -1.059640    11A     -1.047402    12A     -0.994314
      13A     -0.912653    14A     -0.847166    15A     -0.804232
      16A     -0.734717    17A     -0.671454    18A     -0.664363
      19A     -0.607569    20A     -0.601726    21A     -0.584158
      22A     -0.557881    23A     -0.551831    24A     -0.522167
      25A     -0.521248    26A     -0.498438    27A     -0.491965
      28A     -0.480517    29A     -0.480270    30A     -0.446484
      31A     -0.432151    32A     -0.401338

  @DF-RHF Final Energy:  -348.18573589255612

   => Energetics <=

    Nuclear Repulsion Energy =            399.4093923043739665
    One-Electron Energy =               -1264.2880125557435349
    Two-Electron Energy =                 516.6928843588133304
    Total Energy =                       -348.1857358925561812
  Basis Set: (AUG-CC-PVTZ AUX)
    Blend: AUG-CC-PVTZ-RI
    Molecular point group: c1

    Geometry (in Angstrom), charge = 0, multiplicity = 1:

       Center              X                  Y                   Z               Mass
    ------------   -----------------  -----------------  -----------------  -----------------
         O           -0.000023330186    -0.612441458532     0.000134065986    15.994914619570
         C            0.936328669814     0.411952541468    -0.456456934014    12.000000000000
         C           -0.936358330186     0.411939541468     0.456796065986    12.000000000000
         C           -0.000020330186     1.540873541468     0.000173065986    12.000000000000
         C            2.271697669814     0.287557541468     0.243541065986    12.000000000000
         C           -2.271754330186     0.287567541468    -0.243150934014    12.000000000000
         C            2.942324669814    -1.050148458532    -0.052048934014    12.000000000000
         C           -2.942365330186    -1.050151458532     0.052414065986    12.000000000000
         H            1.071696569814     0.341248641468    -1.565710034014     1.007825032230
         H           -1.069261330186     0.342464541468     1.546240065986     1.007825032230
         H            0.402250669814     2.173545541468     0.795976065986     1.007825032230
         H           -0.402303330186     2.173533541468    -0.795632934014     1.007825032230
         H            2.102129669814     0.394467541468     1.321787065986     1.007825032230
         H            2.911731669814     1.123484541468    -0.069687934014     1.007825032230
         H           -2.102228330186     0.394519541468    -1.321399934014     1.007825032230
         H           -2.911779330186     1.123479541468     0.070134065986     1.007825032230
         H            2.284569669814    -1.868408458532     0.249680065986     1.007825032230
         H            3.149684669814    -1.155222458532    -1.121646934014     1.007825032230
         H            3.888860669814    -1.148216458532     0.486785065986     1.007825032230
         H           -3.149665330186    -1.155276458532     1.122018065986     1.007825032230
         H           -3.888933330186    -1.148194458532    -0.486370934014     1.007825032230
         H           -2.284628330186    -1.868398458532    -0.249390934014     1.007825032230

  Basis Set: AUG-CC-PVTZ
    Blend: AUG-CC-PVTZ
  Basis Set: (AUG-CC-PVTZ AUX)
    Blend: AUG-CC-PVTZ-JKFIT
	 Reference Energy          =    -348.1857358925561243 [Eh]
	 Singles Energy            =      -0.0000000000000000 [Eh]
	 Same-Spin Energy          =      -0.3609599582780920 [Eh]
	 Opposite-Spin Energy      =      -1.2616451903923673 [Eh]
	 Correlation Energy        =      -1.6226051486704594 [Eh]
	 Total Energy              =    -349.8083410412265835 [Eh]

	 ================> DF-SCS-MP2 Energies <==================
	-----------------------------------------------------------
	 SCS Same-Spin Scale       =       0.3333333333333333 [-]
	 SCS Opposite-Spin Scale   =       1.2000000000000000 [-]
	 SCS Same-Spin Energy      =      -0.1203199860926973 [Eh]
	 SCS Opposite-Spin Energy  =      -1.5139742284708408 [Eh]
	 SCS Correlation Energy    =      -1.6342942145635382 [Eh]
	 SCS Total Energy          =    -349.8200301071196350 [Eh]
	-----------------------------------------------------------

  Dipole Moment: [D]
     X:    -0.0079      Y:     1.7067      Z:     0.0174     Total:     1.7068

*** Psi4 exiting successfully. Buy a developer a beer!
