                               Psi4 1.4a3.dev225

  ==> Input File <==

--------------------------------------------------------------------------
#psi4
#
memory 32 gb

molecule  {
0 1
  O       -0.0000020    -0.6102900    -0.0000420
  C        0.9363500     0.4141040    -0.4566330
  C       -0.9363370     0.4140910     0.4566200
  C        0.0000010     1.5430250    -0.0000030
  C        2.2717190     0.2897090     0.2433650
  C       -2.2717330     0.2897190    -0.2433270
  C        2.9423460    -1.0479970    -0.0522250
  C       -2.9423440    -1.0480000     0.0522380
  H        1.0693000     0.3446630    -1.5460730
  H       -1.0692400     0.3446160     1.5460640
  H        0.4022720     2.1756970     0.7958000
  H       -0.4022820     2.1756850    -0.7958090
  H        2.1021510     0.3966190     1.3216110
  H        2.9117530     1.1256360    -0.0698640
  H       -2.1022070     0.3966710    -1.3215760
  H       -2.9117580     1.1256310     0.0699580
  H        2.4050202    -1.7164407     0.1942601
  H        3.1497060    -1.1530710    -1.1218230
  H        3.8888820    -1.1460650     0.4866090
  H       -3.1496440    -1.1531250     1.1218420
  H       -3.8889120    -1.1460430    -0.4865470
  H       -2.2846070    -1.8662470    -0.2495670
units angstrom
no_reorient  #important for SAPT in psi4, default
symmetry c1  #important for SAPT in psi4, default
}

set PROPERTIES_ORIGIN ["COM"]
properties('MP2/aug-cc-pvtz', properties = ['dipole'])
--------------------------------------------------------------------------

    Molecular point group: c1
  Charge       = 0
  Multiplicity = 1
  Basis Set: AUG-CC-PVTZ
    Blend: AUG-CC-PVTZ
  Basis Set: (AUG-CC-PVTZ AUX)
    Blend: AUG-CC-PVTZ-JKFIT

    Orbital Energies [Eh]
    ---------------------

    Doubly Occupied:

       1A    -20.538197     2A    -11.277077     3A    -11.276674
       4A    -11.223885     5A    -11.218861     6A    -11.217296
       7A    -11.207393     8A    -11.183338     9A     -1.365095
      10A     -1.063679    11A     -1.049285    12A     -0.998569
      13A     -0.922678    14A     -0.855750    15A     -0.808038
      16A     -0.736334    17A     -0.674831    18A     -0.664766
      19A     -0.614219    20A     -0.607082    21A     -0.584799
      22A     -0.560589    23A     -0.558189    24A     -0.528606
      25A     -0.520776    26A     -0.500945    27A     -0.496994
      28A     -0.482776    29A     -0.480202    30A     -0.447241
      31A     -0.432042    32A     -0.401489

  @DF-RHF Final Energy:  -348.15192236735413

   => Energetics <=

    Nuclear Repulsion Energy =            400.3509189896846010
    One-Electron Energy =               -1266.0102922349756227
    Two-Electron Energy =                 517.5074508779368898
    Total Energy =                       -348.1519223673541319
  Basis Set: (AUG-CC-PVTZ AUX)
    Blend: AUG-CC-PVTZ-RI
    Molecular point group: c1

    Geometry (in Angstrom), charge = 0, multiplicity = 1:

       Center              X                  Y                   Z               Mass
    ------------   -----------------  -----------------  -----------------  -----------------
         O           -0.001065662247    -0.613775862050     0.000447007702    15.994914619570
         C            0.935286337753     0.410618137950    -0.456143992298    12.000000000000
         C           -0.937400662247     0.410605137950     0.457109007702    12.000000000000
         C           -0.001062662247     1.539539137950     0.000486007702    12.000000000000
         C            2.270655337753     0.286223137950     0.243854007702    12.000000000000
         C           -2.272796662247     0.286233137950    -0.242837992298    12.000000000000
         C            2.941282337753    -1.051482862050    -0.051735992298    12.000000000000
         C           -2.943407662247    -1.051485862050     0.052727007702    12.000000000000
         H            1.068236337753     0.341177137950    -1.545583992298     1.007825032230
         H           -1.070303662247     0.341130137950     1.546553007702     1.007825032230
         H            0.401208337753     2.172211137950     0.796289007702     1.007825032230
         H           -0.403345662247     2.172199137950    -0.795319992298     1.007825032230
         H            2.101087337753     0.393133137950     1.322100007702     1.007825032230
         H            2.910689337753     1.122150137950    -0.069374992298     1.007825032230
         H           -2.103270662247     0.393185137950    -1.321086992298     1.007825032230
         H           -2.912821662247     1.122145137950     0.070447007702     1.007825032230
         H            2.403956537753    -1.719926562050     0.194749107702     1.007825032230
         H            3.148642337753    -1.156556862050    -1.121333992298     1.007825032230
         H            3.887818337753    -1.149550862050     0.487098007702     1.007825032230
         H           -3.150707662247    -1.156610862050     1.122331007702     1.007825032230
         H           -3.889975662247    -1.149528862050    -0.486057992298     1.007825032230
         H           -2.285670662247    -1.869732862050    -0.249077992298     1.007825032230

  Basis Set: AUG-CC-PVTZ
    Blend: AUG-CC-PVTZ
  Basis Set: (AUG-CC-PVTZ AUX)
    Blend: AUG-CC-PVTZ-JKFIT
	 Reference Energy          =    -348.1519223673541319 [Eh]
	 Singles Energy            =      -0.0000000000000000 [Eh]
	 Same-Spin Energy          =      -0.3609690844348307 [Eh]
	 Opposite-Spin Energy      =      -1.2608406894872943 [Eh]
	 Correlation Energy        =      -1.6218097739221249 [Eh]
	 Total Energy              =    -349.7737321412762412 [Eh]

	 ================> DF-SCS-MP2 Energies <==================
	-----------------------------------------------------------
	 SCS Same-Spin Scale       =       0.3333333333333333 [-]
	 SCS Opposite-Spin Scale   =       1.2000000000000000 [-]
	 SCS Same-Spin Energy      =      -0.1203230281449436 [Eh]
	 SCS Opposite-Spin Energy  =      -1.5130088273847531 [Eh]
	 SCS Correlation Energy    =      -1.6333318555296965 [Eh]
	 SCS Total Energy          =    -349.7852542228838502 [Eh]
	-----------------------------------------------------------

  Dipole Moment: [D]
     X:    -0.0012      Y:     1.6454      Z:     0.0103     Total:     1.6454

*** Psi4 exiting successfully. Buy a developer a beer!
