                               Psi4 1.4a3.dev225

  ==> Input File <==

--------------------------------------------------------------------------
#psi4
#
memory 32 gb

molecule  {
0 1
  O       -0.0000020    -0.6102900    -0.0000420
  C        0.9363500     0.4141040    -0.4566330
  C       -0.9363370     0.4140910     0.4566200
  C        0.0609557     1.4695342    -0.0297288
  C        2.2717190     0.2897090     0.2433650
  C       -2.2717330     0.2897190    -0.2433270
  C        2.9423460    -1.0479970    -0.0522250
  C       -2.9423440    -1.0480000     0.0522380
  H        1.0693000     0.3446630    -1.5460730
  H       -1.0692400     0.3446160     1.5460640
  H        0.4022720     2.1756970     0.7958000
  H       -0.4022820     2.1756850    -0.7958090
  H        2.1021510     0.3966190     1.3216110
  H        2.9117530     1.1256360    -0.0698640
  H       -2.1022070     0.3966710    -1.3215760
  H       -2.9117580     1.1256310     0.0699580
  H        2.2845910    -1.8662570     0.2495040
  H        3.1497060    -1.1530710    -1.1218230
  H        3.8888820    -1.1460650     0.4866090
  H       -3.1496440    -1.1531250     1.1218420
  H       -3.8889120    -1.1460430    -0.4865470
  H       -2.2846070    -1.8662470    -0.2495670
units angstrom
no_reorient  #important for SAPT in psi4, default
symmetry c1  #important for SAPT in psi4, default
}

set PROPERTIES_ORIGIN ["COM"]
properties('MP2/aug-cc-pvtz', properties = ['dipole'])
--------------------------------------------------------------------------

    Molecular point group: c1
  Charge       = 0
  Multiplicity = 1
  Basis Set: AUG-CC-PVTZ
    Blend: AUG-CC-PVTZ
  Basis Set: (AUG-CC-PVTZ AUX)
    Blend: AUG-CC-PVTZ-JKFIT

    Orbital Energies [Eh]
    ---------------------

    Doubly Occupied:

       1A    -20.537158     2A    -11.275451     3A    -11.271055
       4A    -11.227307     5A    -11.219323     6A    -11.219062
       7A    -11.208083     8A    -11.207261     9A     -1.371077
      10A     -1.062759    11A     -1.049733    12A     -1.000060
      13A     -0.916430    14A     -0.846387    15A     -0.807442
      16A     -0.730059    17A     -0.673211    18A     -0.669142
      19A     -0.610042    20A     -0.602374    21A     -0.590504
      22A     -0.560040    23A     -0.548101    24A     -0.521068
      25A     -0.509191    26A     -0.497369    27A     -0.492109
      28A     -0.481829    29A     -0.480162    30A     -0.455717
      31A     -0.432724    32A     -0.398775

  @DF-RHF Final Energy:  -348.17519004324919

   => Energetics <=

    Nuclear Repulsion Energy =            401.0493400343964936
    One-Electron Energy =               -1267.5070514420644940
    Two-Electron Energy =                 518.2825213644189262
    Total Energy =                       -348.1751900432491311
  Basis Set: (AUG-CC-PVTZ AUX)
    Blend: AUG-CC-PVTZ-RI
    Molecular point group: c1

    Geometry (in Angstrom), charge = 0, multiplicity = 1:

       Center              X                  Y                   Z               Mass
    ------------   -----------------  -----------------  -----------------  -----------------
         O           -0.006412384106    -0.604723821740     0.003085234125    15.994914619570
         C            0.929939615894     0.419670178260    -0.453505765875    12.000000000000
         C           -0.942747384106     0.419657178260     0.459747234125    12.000000000000
         C            0.054545315894     1.475100378260    -0.026601565875    12.000000000000
         C            2.265308615894     0.295275178260     0.246492234125    12.000000000000
         C           -2.278143384106     0.295285178260    -0.240199765875    12.000000000000
         C            2.935935615894    -1.042430821740    -0.049097765875    12.000000000000
         C           -2.948754384106    -1.042433821740     0.055365234125    12.000000000000
         H            1.062889615894     0.350229178260    -1.542945765875     1.007825032230
         H           -1.075650384106     0.350182178260     1.549191234125     1.007825032230
         H            0.395861615894     2.181263178260     0.798927234125     1.007825032230
         H           -0.408692384106     2.181251178260    -0.792681765875     1.007825032230
         H            2.095740615894     0.402185178260     1.324738234125     1.007825032230
         H            2.905342615894     1.131202178260    -0.066736765875     1.007825032230
         H           -2.108617384106     0.402237178260    -1.318448765875     1.007825032230
         H           -2.918168384106     1.131197178260     0.073085234125     1.007825032230
         H            2.278180615894    -1.860690821740     0.252631234125     1.007825032230
         H            3.143295615894    -1.147504821740    -1.118695765875     1.007825032230
         H            3.882471615894    -1.140498821740     0.489736234125     1.007825032230
         H           -3.156054384106    -1.147558821740     1.124969234125     1.007825032230
         H           -3.895322384106    -1.140476821740    -0.483419765875     1.007825032230
         H           -2.291017384106    -1.860680821740    -0.246439765875     1.007825032230

  Basis Set: AUG-CC-PVTZ
    Blend: AUG-CC-PVTZ
  Basis Set: (AUG-CC-PVTZ AUX)
    Blend: AUG-CC-PVTZ-JKFIT
	 Reference Energy          =    -348.1751900432491880 [Eh]
	 Singles Energy            =      -0.0000000000000000 [Eh]
	 Same-Spin Energy          =      -0.3616628462213274 [Eh]
	 Opposite-Spin Energy      =      -1.2622799201746129 [Eh]
	 Correlation Energy        =      -1.6239427663959403 [Eh]
	 Total Energy              =    -349.7991328096451298 [Eh]

	 ================> DF-SCS-MP2 Energies <==================
	-----------------------------------------------------------
	 SCS Same-Spin Scale       =       0.3333333333333333 [-]
	 SCS Opposite-Spin Scale   =       1.2000000000000000 [-]
	 SCS Same-Spin Energy      =      -0.1205542820737758 [Eh]
	 SCS Opposite-Spin Energy  =      -1.5147359042095354 [Eh]
	 SCS Correlation Energy    =      -1.6352901862833111 [Eh]
	 SCS Total Energy          =    -349.8104802295325158 [Eh]
	-----------------------------------------------------------

  Dipole Moment: [D]
     X:    -0.0504      Y:     1.6830      Z:     0.0091     Total:     1.6838

*** Psi4 exiting successfully. Buy a developer a beer!
