                               Psi4 1.4a3.dev225

  ==> Input File <==

--------------------------------------------------------------------------
#psi4
#
memory 32 gb

molecule  {
0 1
  O       -0.0000020    -0.6102900    -0.0000420
  C        0.9363500     0.4141040    -0.4566330
  C       -0.9363370     0.4140910     0.4566200
  C        0.0000010     1.5430250    -0.0000030
  C        2.2717190     0.2897090     0.2433650
  C       -2.2717330     0.2897190    -0.2433270
  C        2.9423460    -1.0479970    -0.0522250
  C       -2.9423440    -1.0480000     0.0522380
  H        1.0693000     0.3446630    -1.5460730
  H       -1.0692400     0.3446160     1.5460640
  H        0.4022720     2.1756970     0.7958000
  H       -0.4022820     2.1756850    -0.7958090
  H        2.1021510     0.3966190     1.3216110
  H        2.9117530     1.1256360    -0.0698640
  H       -2.1022070     0.3966710    -1.3215760
  H       -2.9117580     1.1256310     0.0699580
  H        2.2845910    -1.8662570     0.2495040
  H        3.1686505    -1.1626706    -1.2195418
  H        3.8888820    -1.1460650     0.4866090
  H       -3.1496440    -1.1531250     1.1218420
  H       -3.8889120    -1.1460430    -0.4865470
  H       -2.2846070    -1.8662470    -0.2495670
units angstrom
no_reorient  #important for SAPT in psi4, default
symmetry c1  #important for SAPT in psi4, default
}

set PROPERTIES_ORIGIN ["COM"]
properties('MP2/aug-cc-pvtz', properties = ['dipole'])
--------------------------------------------------------------------------

    Molecular point group: c1
  Charge       = 0
  Multiplicity = 1
  Basis Set: AUG-CC-PVTZ
    Blend: AUG-CC-PVTZ
  Basis Set: (AUG-CC-PVTZ AUX)
    Blend: AUG-CC-PVTZ-JKFIT

    Orbital Energies [Eh]
    ---------------------

    Doubly Occupied:

       1A    -20.538374     2A    -11.277244     3A    -11.277237
       4A    -11.224311     5A    -11.220385     6A    -11.219594
       7A    -11.218980     8A    -11.207476     9A     -1.365288
      10A     -1.059414    11A     -1.047155    12A     -0.993417
      13A     -0.910915    14A     -0.844543    15A     -0.803886
      16A     -0.735772    17A     -0.672135    18A     -0.665043
      19A     -0.605946    20A     -0.601159    21A     -0.583169
      22A     -0.554996    23A     -0.551963    24A     -0.522521
      25A     -0.521593    26A     -0.495812    27A     -0.491899
      28A     -0.480859    29A     -0.473245    30A     -0.446591
      31A     -0.432899    32A     -0.401973

  @DF-RHF Final Energy:  -348.18005720139189

   => Energetics <=

    Nuclear Repulsion Energy =            399.1212955338976940
    One-Electron Energy =               -1263.7111205344756399
    Two-Electron Energy =                 516.4097677991861701
    Total Energy =                       -348.1800572013918327
  Basis Set: (AUG-CC-PVTZ AUX)
    Blend: AUG-CC-PVTZ-RI
    Molecular point group: c1

    Geometry (in Angstrom), charge = 0, multiplicity = 1:

       Center              X                  Y                   Z               Mass
    ------------   -----------------  -----------------  -----------------  -----------------
         O           -0.000169300996    -0.612367824823     0.000822166268    15.994914619570
         C            0.936182699004     0.412026175177    -0.455768833732    12.000000000000
         C           -0.936504300996     0.412013175177     0.457484166268    12.000000000000
         C           -0.000166300996     1.540947175177     0.000861166268    12.000000000000
         C            2.271551699004     0.287631175177     0.244229166268    12.000000000000
         C           -2.271900300996     0.287641175177    -0.242462833732    12.000000000000
         C            2.942178699004    -1.050074824823    -0.051360833732    12.000000000000
         C           -2.942511300996    -1.050077824823     0.053102166268    12.000000000000
         H            1.069132699004     0.342585175177    -1.545208833732     1.007825032230
         H           -1.069407300996     0.342538175177     1.546928166268     1.007825032230
         H            0.402104699004     2.173619175177     0.796664166268     1.007825032230
         H           -0.402449300996     2.173607175177    -0.794944833732     1.007825032230
         H            2.101983699004     0.394541175177     1.322475166268     1.007825032230
         H            2.911585699004     1.123558175177    -0.068999833732     1.007825032230
         H           -2.102374300996     0.394593175177    -1.320711833732     1.007825032230
         H           -2.911925300996     1.123553175177     0.070822166268     1.007825032230
         H            2.284423699004    -1.868334824823     0.250368166268     1.007825032230
         H            3.168483199004    -1.164748424823    -1.218677633732     1.007825032230
         H            3.888714699004    -1.148142824823     0.487473166268     1.007825032230
         H           -3.149811300996    -1.155202824823     1.122706166268     1.007825032230
         H           -3.889079300996    -1.148120824823    -0.485682833732     1.007825032230
         H           -2.284774300996    -1.868324824823    -0.248702833732     1.007825032230

  Basis Set: AUG-CC-PVTZ
    Blend: AUG-CC-PVTZ
  Basis Set: (AUG-CC-PVTZ AUX)
    Blend: AUG-CC-PVTZ-JKFIT
	 Reference Energy          =    -348.1800572013918895 [Eh]
	 Singles Energy            =      -0.0000000000000000 [Eh]
	 Same-Spin Energy          =      -0.3608585021404415 [Eh]
	 Opposite-Spin Energy      =      -1.2621027913655791 [Eh]
	 Correlation Energy        =      -1.6229612935060207 [Eh]
	 Total Energy              =    -349.8030184948979127 [Eh]

	 ================> DF-SCS-MP2 Energies <==================
	-----------------------------------------------------------
	 SCS Same-Spin Scale       =       0.3333333333333333 [-]
	 SCS Opposite-Spin Scale   =       1.2000000000000000 [-]
	 SCS Same-Spin Energy      =      -0.1202861673801472 [Eh]
	 SCS Opposite-Spin Energy  =      -1.5145233496386949 [Eh]
	 SCS Correlation Energy    =      -1.6348095170188421 [Eh]
	 SCS Total Energy          =    -349.8148667184107126 [Eh]
	-----------------------------------------------------------

  Dipole Moment: [D]
     X:    -0.0272      Y:     1.7302      Z:     0.0692     Total:     1.7318

*** Psi4 exiting successfully. Buy a developer a beer!
