                               Psi4 1.4a3.dev225

  ==> Input File <==

--------------------------------------------------------------------------
#psi4
#
memory 32 gb

molecule  {
0 1
  O       -0.0000020    -0.6102900    -0.0000420
  C        0.9363500     0.4141040    -0.4566330
  C       -0.9363370     0.4140910     0.4566200
  C        0.0000010     1.5430250    -0.0000030
  C        2.2717190     0.2897090     0.2433650
  C       -2.2717330     0.2897190    -0.2433270
  C        2.9423460    -1.0479970    -0.0522250
  C       -2.9423440    -1.0480000     0.0522380
  H        1.0693000     0.3446630    -1.5460730
  H       -1.0692400     0.3446160     1.5460640
  H        0.4022720     2.1756970     0.7958000
  H       -0.4022820     2.1756850    -0.7958090
  H        2.1021510     0.3966190     1.3216110
  H        2.9117530     1.1256360    -0.0698640
  H       -2.1022070     0.3966710    -1.3215760
  H       -2.9117580     1.1256310     0.0699580
  H        2.2845910    -1.8662570     0.2495040
  H        3.1497060    -1.1530710    -1.1218230
  H        3.8888820    -1.1460650     0.4866090
  H       -3.1276838    -1.1843847     1.1223434
  H       -3.8889120    -1.1460430    -0.4865470
  H       -2.2846070    -1.8662470    -0.2495670
units angstrom
no_reorient  #important for SAPT in psi4, default
symmetry c1  #important for SAPT in psi4, default
}

set PROPERTIES_ORIGIN ["COM"]
properties('MP2/aug-cc-pvtz', properties = ['dipole'])
--------------------------------------------------------------------------

    Molecular point group: c1
  Charge       = 0
  Multiplicity = 1
  Basis Set: AUG-CC-PVTZ
    Blend: AUG-CC-PVTZ
  Basis Set: (AUG-CC-PVTZ AUX)
    Blend: AUG-CC-PVTZ-JKFIT

    Orbital Energies [Eh]
    ---------------------

    Doubly Occupied:

       1A    -20.538081     2A    -11.277039     3A    -11.277007
       4A    -11.224087     5A    -11.219084     6A    -11.218845
       7A    -11.207370     8A    -11.207250     9A     -1.365011
      10A     -1.059730    11A     -1.047370    12A     -0.994181
      13A     -0.913199    14A     -0.847339    15A     -0.805311
      16A     -0.736103    17A     -0.671684    18A     -0.664967
      19A     -0.607497    20A     -0.600938    21A     -0.583951
      22A     -0.559252    23A     -0.551469    24A     -0.521959
      25A     -0.521513    26A     -0.499642    27A     -0.491441
      28A     -0.480986    29A     -0.479412    30A     -0.446176
      31A     -0.432463    32A     -0.401673

  @DF-RHF Final Energy:  -348.18622448683345

   => Energetics <=

    Nuclear Repulsion Energy =            399.5160833218646417
    One-Electron Energy =               -1264.5005591174872279
    Two-Electron Energy =                 516.7982513087890766
    Total Energy =                       -348.1862244868334528
  Basis Set: (AUG-CC-PVTZ AUX)
    Blend: AUG-CC-PVTZ-RI
    Molecular point group: c1

    Geometry (in Angstrom), charge = 0, multiplicity = 1:

       Center              X                  Y                   Z               Mass
    ------------   -----------------  -----------------  -----------------  -----------------
         O           -0.000195937096    -0.612176512494    -0.000045361363    15.994914619570
         C            0.936156062904     0.412217487506    -0.456636361363    12.000000000000
         C           -0.936530937096     0.412204487506     0.456616638637    12.000000000000
         C           -0.000192937096     1.541138487506    -0.000006361363    12.000000000000
         C            2.271525062904     0.287822487506     0.243361638637    12.000000000000
         C           -2.271926937096     0.287832487506    -0.243330361363    12.000000000000
         C            2.942152062904    -1.049883512494    -0.052228361363    12.000000000000
         C           -2.942537937096    -1.049886512494     0.052234638637    12.000000000000
         H            1.069106062904     0.342776487506    -1.546076361363     1.007825032230
         H           -1.069433937096     0.342729487506     1.546060638637     1.007825032230
         H            0.402078062904     2.173810487506     0.795796638637     1.007825032230
         H           -0.402475937096     2.173798487506    -0.795812361363     1.007825032230
         H            2.101957062904     0.394732487506     1.321607638637     1.007825032230
         H            2.911559062904     1.123749487506    -0.069867361363     1.007825032230
         H           -2.102400937096     0.394784487506    -1.321579361363     1.007825032230
         H           -2.911951937096     1.123744487506     0.069954638637     1.007825032230
         H            2.284397062904    -1.868143512494     0.249500638637     1.007825032230
         H            3.149512062904    -1.154957512494    -1.121826361363     1.007825032230
         H            3.888688062904    -1.147951512494     0.486605638637     1.007825032230
         H           -3.127877737096    -1.186271212494     1.122340038637     1.007825032230
         H           -3.889105937096    -1.147929512494    -0.486550361363     1.007825032230
         H           -2.284800937096    -1.868133512494    -0.249570361363     1.007825032230

  Basis Set: AUG-CC-PVTZ
    Blend: AUG-CC-PVTZ
  Basis Set: (AUG-CC-PVTZ AUX)
    Blend: AUG-CC-PVTZ-JKFIT
	 Reference Energy          =    -348.1862244868334528 [Eh]
	 Singles Energy            =      -0.0000000000000000 [Eh]
	 Same-Spin Energy          =      -0.3609257583557074 [Eh]
	 Opposite-Spin Energy      =      -1.2614631163087540 [Eh]
	 Correlation Energy        =      -1.6223888746644615 [Eh]
	 Total Energy              =    -349.8086133614979190 [Eh]

	 ================> DF-SCS-MP2 Energies <==================
	-----------------------------------------------------------
	 SCS Same-Spin Scale       =       0.3333333333333333 [-]
	 SCS Opposite-Spin Scale   =       1.2000000000000000 [-]
	 SCS Same-Spin Energy      =      -0.1203085861185691 [Eh]
	 SCS Opposite-Spin Energy  =      -1.5137557395705048 [Eh]
	 SCS Correlation Energy    =      -1.6340643256890739 [Eh]
	 SCS Total Energy          =    -349.8202888125225059 [Eh]
	-----------------------------------------------------------

  Dipole Moment: [D]
     X:     0.0088      Y:     1.7010      Z:     0.0013     Total:     1.7010

*** Psi4 exiting successfully. Buy a developer a beer!
