                               Psi4 1.4a3.dev225

  ==> Input File <==

--------------------------------------------------------------------------
#psi4
#
memory 32 gb

molecule  {
0 1
  O       -0.0000020    -0.6102900    -0.0000420
  C        0.9363500     0.4141040    -0.4566330
  C       -0.9363370     0.4140910     0.4566200
  C        0.0000010     1.5430250    -0.0000030
  C        2.2717190     0.2897090     0.2433650
  C       -2.2717330     0.2897190    -0.2433270
  C        2.8998300    -1.0727494    -0.0318713
  C       -2.9423440    -1.0480000     0.0522380
  H        1.0693000     0.3446630    -1.5460730
  H       -1.0692400     0.3446160     1.5460640
  H        0.4022720     2.1756970     0.7958000
  H       -0.4022820     2.1756850    -0.7958090
  H        2.1021510     0.3966190     1.3216110
  H        2.9117530     1.1256360    -0.0698640
  H       -2.1022070     0.3966710    -1.3215760
  H       -2.9117580     1.1256310     0.0699580
  H        2.2845910    -1.8662570     0.2495040
  H        3.1497060    -1.1530710    -1.1218230
  H        3.8888820    -1.1460650     0.4866090
  H       -3.1496440    -1.1531250     1.1218420
  H       -3.8889120    -1.1460430    -0.4865470
  H       -2.2846070    -1.8662470    -0.2495670
units angstrom
no_reorient  #important for SAPT in psi4, default
symmetry c1  #important for SAPT in psi4, default
}

set PROPERTIES_ORIGIN ["COM"]
properties('MP2/aug-cc-pvtz', properties = ['dipole'])
--------------------------------------------------------------------------

    Molecular point group: c1
  Charge       = 0
  Multiplicity = 1
  Basis Set: AUG-CC-PVTZ
    Blend: AUG-CC-PVTZ
  Basis Set: (AUG-CC-PVTZ AUX)
    Blend: AUG-CC-PVTZ-JKFIT

    Orbital Energies [Eh]
    ---------------------

    Doubly Occupied:

       1A    -20.538255     2A    -11.277052     3A    -11.276601
       4A    -11.223792     5A    -11.219108     6A    -11.218859
       7A    -11.208032     8A    -11.207416     9A     -1.365167
      10A     -1.060148    11A     -1.047447    12A     -0.994319
      13A     -0.912941    14A     -0.847376    15A     -0.805462
      16A     -0.735921    17A     -0.672717    18A     -0.664718
      19A     -0.606655    20A     -0.604860    21A     -0.582536
      22A     -0.556050    23A     -0.552605    24A     -0.526223
      25A     -0.520222    26A     -0.498712    27A     -0.493382
      28A     -0.482342    29A     -0.475892    30A     -0.447066
      31A     -0.431043    32A     -0.401412

  @DF-RHF Final Energy:  -348.18308660838079

   => Energetics <=

    Nuclear Repulsion Energy =            399.8003666743128406
    One-Electron Energy =               -1265.0582409266660306
    Two-Electron Energy =                 517.0747876439723996
    Total Energy =                       -348.1830866083807905
  Basis Set: (AUG-CC-PVTZ AUX)
    Blend: AUG-CC-PVTZ-RI
    Molecular point group: c1

    Geometry (in Angstrom), charge = 0, multiplicity = 1:

       Center              X                  Y                   Z               Mass
    ------------   -----------------  -----------------  -----------------  -----------------
         O            0.004469296986    -0.609849482683    -0.002181465996    15.994914619570
         C            0.940821296986     0.414544517317    -0.458772465996    12.000000000000
         C           -0.931865703014     0.414531517317     0.454480534004    12.000000000000
         C            0.004472296986     1.543465517317    -0.002142465996    12.000000000000
         C            2.276190296986     0.290149517317     0.241225534004    12.000000000000
         C           -2.267261703014     0.290159517317    -0.245466465996    12.000000000000
         C            2.904301296986    -1.072308882683    -0.034010765996    12.000000000000
         C           -2.937872703014    -1.047559482683     0.050098534004    12.000000000000
         H            1.073771296986     0.345103517317    -1.548212465996     1.007825032230
         H           -1.064768703014     0.345056517317     1.543924534004     1.007825032230
         H            0.406743296986     2.176137517317     0.793660534004     1.007825032230
         H           -0.397810703014     2.176125517317    -0.797948465996     1.007825032230
         H            2.106622296986     0.397059517317     1.319471534004     1.007825032230
         H            2.916224296986     1.126076517317    -0.072003465996     1.007825032230
         H           -2.097735703014     0.397111517317    -1.323715465996     1.007825032230
         H           -2.907286703014     1.126071517317     0.067818534004     1.007825032230
         H            2.289062296986    -1.865816482683     0.247364534004     1.007825032230
         H            3.154177296986    -1.152630482683    -1.123962465996     1.007825032230
         H            3.893353296986    -1.145624482683     0.484469534004     1.007825032230
         H           -3.145172703014    -1.152684482683     1.119702534004     1.007825032230
         H           -3.884440703014    -1.145602482683    -0.488686465996     1.007825032230
         H           -2.280135703014    -1.865806482683    -0.251706465996     1.007825032230

  Basis Set: AUG-CC-PVTZ
    Blend: AUG-CC-PVTZ
  Basis Set: (AUG-CC-PVTZ AUX)
    Blend: AUG-CC-PVTZ-JKFIT
	 Reference Energy          =    -348.1830866083807905 [Eh]
	 Singles Energy            =      -0.0000000000000000 [Eh]
	 Same-Spin Energy          =      -0.3609631178012174 [Eh]
	 Opposite-Spin Energy      =      -1.2616268493933072 [Eh]
	 Correlation Energy        =      -1.6225899671945245 [Eh]
	 Total Energy              =    -349.8056765755753190 [Eh]

	 ================> DF-SCS-MP2 Energies <==================
	-----------------------------------------------------------
	 SCS Same-Spin Scale       =       0.3333333333333333 [-]
	 SCS Opposite-Spin Scale   =       1.2000000000000000 [-]
	 SCS Same-Spin Energy      =      -0.1203210392670725 [Eh]
	 SCS Opposite-Spin Energy  =      -1.5139522192719685 [Eh]
	 SCS Correlation Energy    =      -1.6342732585390409 [Eh]
	 SCS Total Energy          =    -349.8173598669198441 [Eh]
	-----------------------------------------------------------

  Dipole Moment: [D]
     X:    -0.0062      Y:     1.7095      Z:     0.0084     Total:     1.7096

*** Psi4 exiting successfully. Buy a developer a beer!
