                               Psi4 1.4a3.dev225

  ==> Input File <==

--------------------------------------------------------------------------
#psi4
#
memory 32 gb

molecule  {
0 1
  O       -0.0000020    -0.6102900    -0.0000420
  C        0.9363500     0.4141040    -0.4566330
  C       -0.9363370     0.4140910     0.4566200
  C        0.0000010     1.5430250    -0.0000030
  C        2.2717190     0.2897090     0.2433650
  C       -2.2717330     0.2897190    -0.2433270
  C        2.9423460    -1.0479970    -0.0522250
  C       -2.9423440    -1.0480000     0.0522380
  H        1.0693000     0.3446630    -1.5460730
  H       -1.0692400     0.3446160     1.5460640
  H        0.4022720     2.1756970     0.7958000
  H       -0.4022820     2.1756850    -0.7958090
  H        2.1098817     0.3917449     1.2724533
  H        2.9117530     1.1256360    -0.0698640
  H       -2.1022070     0.3966710    -1.3215760
  H       -2.9117580     1.1256310     0.0699580
  H        2.2845910    -1.8662570     0.2495040
  H        3.1497060    -1.1530710    -1.1218230
  H        3.8888820    -1.1460650     0.4866090
  H       -3.1496440    -1.1531250     1.1218420
  H       -3.8889120    -1.1460430    -0.4865470
  H       -2.2846070    -1.8662470    -0.2495670
units angstrom
no_reorient  #important for SAPT in psi4, default
symmetry c1  #important for SAPT in psi4, default
}

set PROPERTIES_ORIGIN ["COM"]
properties('MP2/aug-cc-pvtz', properties = ['dipole'])
--------------------------------------------------------------------------

    Molecular point group: c1
  Charge       = 0
  Multiplicity = 1
  Basis Set: AUG-CC-PVTZ
    Blend: AUG-CC-PVTZ
  Basis Set: (AUG-CC-PVTZ AUX)
    Blend: AUG-CC-PVTZ-JKFIT

    Orbital Energies [Eh]
    ---------------------

    Doubly Occupied:

       1A    -20.538025     2A    -11.277025     3A    -11.276472
       4A    -11.224069     5A    -11.218836     6A    -11.212489
       7A    -11.207360     8A    -11.206798     9A     -1.364972
      10A     -1.060879    11A     -1.048192    12A     -0.994390
      13A     -0.912977    14A     -0.848301    15A     -0.807471
      16A     -0.737360    17A     -0.671549    18A     -0.665879
      19A     -0.608787    20A     -0.601918    21A     -0.585027
      22A     -0.559090    23A     -0.551650    24A     -0.522203
      25A     -0.520961    26A     -0.500121    27A     -0.491738
      28A     -0.483606    29A     -0.480270    30A     -0.446150
      31A     -0.432504    32A     -0.401451

  @DF-RHF Final Energy:  -348.18540458738244

   => Energetics <=

    Nuclear Repulsion Energy =            399.7442265756681081
    One-Electron Energy =               -1264.9422228454454853
    Two-Electron Energy =                 517.0125916823949410
    Total Energy =                       -348.1854045873824361
  Basis Set: (AUG-CC-PVTZ AUX)
    Blend: AUG-CC-PVTZ-RI
    Molecular point group: c1

    Geometry (in Angstrom), charge = 0, multiplicity = 1:

       Center              X                  Y                   Z               Mass
    ------------   -----------------  -----------------  -----------------  -----------------
         O           -0.000070255368    -0.612409562692     0.000393251482    15.994914619570
         C            0.936281744632     0.411984437308    -0.456197748518    12.000000000000
         C           -0.936405255368     0.411971437308     0.457055251482    12.000000000000
         C           -0.000067255368     1.540905437308     0.000432251482    12.000000000000
         C            2.271650744632     0.287589437308     0.243800251482    12.000000000000
         C           -2.271801255368     0.287599437308    -0.242891748518    12.000000000000
         C            2.942277744632    -1.050116562692    -0.051789748518    12.000000000000
         C           -2.942412255368    -1.050119562692     0.052673251482    12.000000000000
         H            1.069231744632     0.342543437308    -1.545637748518     1.007825032230
         H           -1.069308255368     0.342496437308     1.546499251482     1.007825032230
         H            0.402203744632     2.173577437308     0.796235251482     1.007825032230
         H           -0.402350255368     2.173565437308    -0.795373748518     1.007825032230
         H            2.109813444632     0.389625337308     1.272888551482     1.007825032230
         H            2.911684744632     1.123516437308    -0.069428748518     1.007825032230
         H           -2.102275255368     0.394551437308    -1.321140748518     1.007825032230
         H           -2.911826255368     1.123511437308     0.070393251482     1.007825032230
         H            2.284522744632    -1.868376562692     0.249939251482     1.007825032230
         H            3.149637744632    -1.155190562692    -1.121387748518     1.007825032230
         H            3.888813744632    -1.148184562692     0.487044251482     1.007825032230
         H           -3.149712255368    -1.155244562692     1.122277251482     1.007825032230
         H           -3.888980255368    -1.148162562692    -0.486111748518     1.007825032230
         H           -2.284675255368    -1.868366562692    -0.249131748518     1.007825032230

  Basis Set: AUG-CC-PVTZ
    Blend: AUG-CC-PVTZ
  Basis Set: (AUG-CC-PVTZ AUX)
    Blend: AUG-CC-PVTZ-JKFIT
	 Reference Energy          =    -348.1854045873824361 [Eh]
	 Singles Energy            =      -0.0000000000000000 [Eh]
	 Same-Spin Energy          =      -0.3609058971739401 [Eh]
	 Opposite-Spin Energy      =      -1.2611656860715486 [Eh]
	 Correlation Energy        =      -1.6220715832454886 [Eh]
	 Total Energy              =    -349.8074761706279219 [Eh]

	 ================> DF-SCS-MP2 Energies <==================
	-----------------------------------------------------------
	 SCS Same-Spin Scale       =       0.3333333333333333 [-]
	 SCS Opposite-Spin Scale   =       1.2000000000000000 [-]
	 SCS Same-Spin Energy      =      -0.1203019657246467 [Eh]
	 SCS Opposite-Spin Energy  =      -1.5133988232858582 [Eh]
	 SCS Correlation Energy    =      -1.6337007890105049 [Eh]
	 SCS Total Energy          =    -349.8191053763929403 [Eh]
	-----------------------------------------------------------

  Dipole Moment: [D]
     X:    -0.0037      Y:     1.7186      Z:     0.0290     Total:     1.7188

*** Psi4 exiting successfully. Buy a developer a beer!
