                               Psi4 1.4a3.dev225

  ==> Input File <==

--------------------------------------------------------------------------
#psi4
#
memory 32 gb

molecule  {
0 1
  O       -0.0000020    -0.6102900    -0.0000420
  C        0.9363500     0.4141040    -0.4566330
  C       -0.9363370     0.4140910     0.4566200
  C        0.0000010     1.5430250    -0.0000030
  C        2.2717190     0.2897090     0.2433650
  C       -2.2717330     0.2897190    -0.2433270
  C        2.9633008    -1.0350077    -0.0622683
  C       -2.9423440    -1.0480000     0.0522380
  H        1.0693000     0.3446630    -1.5460730
  H       -1.0692400     0.3446160     1.5460640
  H        0.4022720     2.1756970     0.7958000
  H       -0.4022820     2.1756850    -0.7958090
  H        2.1021510     0.3966190     1.3216110
  H        2.9117530     1.1256360    -0.0698640
  H       -2.1022070     0.3966710    -1.3215760
  H       -2.9117580     1.1256310     0.0699580
  H        2.2845910    -1.8662570     0.2495040
  H        3.1497060    -1.1530710    -1.1218230
  H        3.8888820    -1.1460650     0.4866090
  H       -3.1496440    -1.1531250     1.1218420
  H       -3.8889120    -1.1460430    -0.4865470
  H       -2.2846070    -1.8662470    -0.2495670
units angstrom
no_reorient  #important for SAPT in psi4, default
symmetry c1  #important for SAPT in psi4, default
}

set PROPERTIES_ORIGIN ["COM"]
properties('MP2/aug-cc-pvtz', properties = ['dipole'])
--------------------------------------------------------------------------

    Molecular point group: c1
  Charge       = 0
  Multiplicity = 1
  Basis Set: AUG-CC-PVTZ
    Blend: AUG-CC-PVTZ
  Basis Set: (AUG-CC-PVTZ AUX)
    Blend: AUG-CC-PVTZ-JKFIT

    Orbital Energies [Eh]
    ---------------------

    Doubly Occupied:

       1A    -20.538021     2A    -11.277231     3A    -11.276982
       4A    -11.224225     5A    -11.218868     6A    -11.218828
       7A    -11.207379     8A    -11.207335     9A     -1.364945
      10A     -1.059657    11A     -1.047438    12A     -0.994222
      13A     -0.913450    14A     -0.847225    15A     -0.805036
      16A     -0.736088    17A     -0.671337    18A     -0.665080
      19A     -0.607898    20A     -0.600251    21A     -0.585529
      22A     -0.561002    23A     -0.550728    24A     -0.522495
      25A     -0.520194    26A     -0.500171    27A     -0.490559
      28A     -0.481703    29A     -0.477428    30A     -0.445591
      31A     -0.433075    32A     -0.401744

  @DF-RHF Final Energy:  -348.18560513252788

   => Energetics <=

    Nuclear Repulsion Energy =            399.3781575576298906
    One-Electron Energy =               -1264.2240926413080615
    Two-Electron Energy =                 516.6603299511502883
    Total Energy =                       -348.1856051325278258
  Basis Set: (AUG-CC-PVTZ AUX)
    Blend: AUG-CC-PVTZ-RI
    Molecular point group: c1

    Geometry (in Angstrom), charge = 0, multiplicity = 1:

       Center              X                  Y                   Z               Mass
    ------------   -----------------  -----------------  -----------------  -----------------
         O           -0.002205723133    -0.613818656016     0.001015288835    15.994914619570
         C            0.934146276867     0.410575343984    -0.455575711165    12.000000000000
         C           -0.938540723133     0.410562343984     0.457677288835    12.000000000000
         C           -0.002202723133     1.539496343984     0.001054288835    12.000000000000
         C            2.269515276867     0.286180343984     0.244422288835    12.000000000000
         C           -2.273936723133     0.286190343984    -0.242269711165    12.000000000000
         C            2.961097076867    -1.038536356016    -0.061211011165    12.000000000000
         C           -2.944547723133    -1.051528656016     0.053295288835    12.000000000000
         H            1.067096276867     0.341134343984    -1.545015711165     1.007825032230
         H           -1.071443723133     0.341087343984     1.547121288835     1.007825032230
         H            0.400068276867     2.172168343984     0.796857288835     1.007825032230
         H           -0.404485723133     2.172156343984    -0.794751711165     1.007825032230
         H            2.099947276867     0.393090343984     1.322668288835     1.007825032230
         H            2.909549276867     1.122107343984    -0.068806711165     1.007825032230
         H           -2.104410723133     0.393142343984    -1.320518711165     1.007825032230
         H           -2.913961723133     1.122102343984     0.071015288835     1.007825032230
         H            2.282387276867    -1.869785656016     0.250561288835     1.007825032230
         H            3.147502276867    -1.156599656016    -1.120765711165     1.007825032230
         H            3.886678276867    -1.149593656016     0.487666288835     1.007825032230
         H           -3.151847723133    -1.156653656016     1.122899288835     1.007825032230
         H           -3.891115723133    -1.149571656016    -0.485489711165     1.007825032230
         H           -2.286810723133    -1.869775656016    -0.248509711165     1.007825032230

  Basis Set: AUG-CC-PVTZ
    Blend: AUG-CC-PVTZ
  Basis Set: (AUG-CC-PVTZ AUX)
    Blend: AUG-CC-PVTZ-JKFIT
	 Reference Energy          =    -348.1856051325278827 [Eh]
	 Singles Energy            =      -0.0000000000000000 [Eh]
	 Same-Spin Energy          =      -0.3609371257739744 [Eh]
	 Opposite-Spin Energy      =      -1.2615006811175014 [Eh]
	 Correlation Energy        =      -1.6224378068914758 [Eh]
	 Total Energy              =    -349.8080429394193516 [Eh]

	 ================> DF-SCS-MP2 Energies <==================
	-----------------------------------------------------------
	 SCS Same-Spin Scale       =       0.3333333333333333 [-]
	 SCS Opposite-Spin Scale   =       1.2000000000000000 [-]
	 SCS Same-Spin Energy      =      -0.1203123752579915 [Eh]
	 SCS Opposite-Spin Energy  =      -1.5138008173410016 [Eh]
	 SCS Correlation Energy    =      -1.6341131925989931 [Eh]
	 SCS Total Energy          =    -349.8197183251268712 [Eh]
	-----------------------------------------------------------

  Dipole Moment: [D]
     X:     0.0020      Y:     1.7100      Z:    -0.0040     Total:     1.7101

*** Psi4 exiting successfully. Buy a developer a beer!
