                               Psi4 1.4a3.dev225

  ==> Input File <==

--------------------------------------------------------------------------
#psi4
#
memory 32 gb

molecule  {
0 1
  O       -0.0159286    -0.5919530     0.0077249
  C        0.9363500     0.4141040    -0.4566330
  C       -0.9363370     0.4140910     0.4566200
  C        0.0000010     1.5430250    -0.0000030
  C        2.2717190     0.2897090     0.2433650
  C       -2.2717330     0.2897190    -0.2433270
  C        2.9423460    -1.0479970    -0.0522250
  C       -2.9423440    -1.0480000     0.0522380
  H        1.0693000     0.3446630    -1.5460730
  H       -1.0692400     0.3446160     1.5460640
  H        0.4022720     2.1756970     0.7958000
  H       -0.4022820     2.1756850    -0.7958090
  H        2.1021510     0.3966190     1.3216110
  H        2.9117530     1.1256360    -0.0698640
  H       -2.1022070     0.3966710    -1.3215760
  H       -2.9117580     1.1256310     0.0699580
  H        2.2845910    -1.8662570     0.2495040
  H        3.1497060    -1.1530710    -1.1218230
  H        3.8888820    -1.1460650     0.4866090
  H       -3.1496440    -1.1531250     1.1218420
  H       -3.8889120    -1.1460430    -0.4865470
  H       -2.2846070    -1.8662470    -0.2495670
units angstrom
no_reorient  #important for SAPT in psi4, default
symmetry c1  #important for SAPT in psi4, default
}

set PROPERTIES_ORIGIN ["COM"]
properties('MP2/aug-cc-pvtz', properties = ['dipole'])
--------------------------------------------------------------------------

    Molecular point group: c1
  Charge       = 0
  Multiplicity = 1
  Basis Set: AUG-CC-PVTZ
    Blend: AUG-CC-PVTZ
  Basis Set: (AUG-CC-PVTZ AUX)
    Blend: AUG-CC-PVTZ-JKFIT

    Orbital Energies [Eh]
    ---------------------

    Doubly Occupied:

       1A    -20.538062     2A    -11.277719     3A    -11.273989
       4A    -11.223174     5A    -11.219710     6A    -11.217306
       7A    -11.208198     8A    -11.206787     9A     -1.373002
      10A     -1.060426    11A     -1.046343    12A     -0.993447
      13A     -0.914348    14A     -0.847102    15A     -0.806471
      16A     -0.734839    17A     -0.674048    18A     -0.666525
      19A     -0.608758    20A     -0.601875    21A     -0.584049
      22A     -0.559067    23A     -0.554200    24A     -0.523344
      25A     -0.521124    26A     -0.499088    27A     -0.491930
      28A     -0.480857    29A     -0.480229    30A     -0.445166
      31A     -0.432693    32A     -0.400536

  @DF-RHF Final Energy:  -348.18719235610945

   => Energetics <=

    Nuclear Repulsion Energy =            399.9999147527277614
    One-Electron Energy =               -1265.4453871458997583
    Two-Electron Energy =                 517.2582800370624909
    Total Energy =                       -348.1871923561094491
  Basis Set: (AUG-CC-PVTZ AUX)
    Blend: AUG-CC-PVTZ-RI
    Molecular point group: c1

    Geometry (in Angstrom), charge = 0, multiplicity = 1:

       Center              X                  Y                   Z               Mass
    ------------   -----------------  -----------------  -----------------  -----------------
         O           -0.013696018149    -0.596686053664     0.006637220168    15.994914619570
         C            0.938582581851     0.409370946336    -0.457720679832    12.000000000000
         C           -0.934104418149     0.409357946336     0.455532320168    12.000000000000
         C            0.002233581851     1.538291946336    -0.001090679832    12.000000000000
         C            2.273951581851     0.284975946336     0.242277320168    12.000000000000
         C           -2.269500418149     0.284985946336    -0.244414679832    12.000000000000
         C            2.944578581851    -1.052730053664    -0.053312679832    12.000000000000
         C           -2.940111418149    -1.052733053664     0.051150320168    12.000000000000
         H            1.071532581851     0.339929946336    -1.547160679832     1.007825032230
         H           -1.067007418149     0.339882946336     1.544976320168     1.007825032230
         H            0.404504581851     2.170963946336     0.794712320168     1.007825032230
         H           -0.400049418149     2.170951946336    -0.796896679832     1.007825032230
         H            2.104383581851     0.391885946336     1.320523320168     1.007825032230
         H            2.913985581851     1.120902946336    -0.070951679832     1.007825032230
         H           -2.099974418149     0.391937946336    -1.322663679832     1.007825032230
         H           -2.909525418149     1.120897946336     0.068870320168     1.007825032230
         H            2.286823581851    -1.870990053664     0.248416320168     1.007825032230
         H            3.151938581851    -1.157804053664    -1.122910679832     1.007825032230
         H            3.891114581851    -1.150798053664     0.485521320168     1.007825032230
         H           -3.147411418149    -1.157858053664     1.120754320168     1.007825032230
         H           -3.886679418149    -1.150776053664    -0.487634679832     1.007825032230
         H           -2.282374418149    -1.870980053664    -0.250654679832     1.007825032230

  Basis Set: AUG-CC-PVTZ
    Blend: AUG-CC-PVTZ
  Basis Set: (AUG-CC-PVTZ AUX)
    Blend: AUG-CC-PVTZ-JKFIT
	 Reference Energy          =    -348.1871923561094491 [Eh]
	 Singles Energy            =      -0.0000000000000000 [Eh]
	 Same-Spin Energy          =      -0.3606950995668068 [Eh]
	 Opposite-Spin Energy      =      -1.2607130969191491 [Eh]
	 Correlation Energy        =      -1.6214081964859559 [Eh]
	 Total Energy              =    -349.8086005525954079 [Eh]

	 ================> DF-SCS-MP2 Energies <==================
	-----------------------------------------------------------
	 SCS Same-Spin Scale       =       0.3333333333333333 [-]
	 SCS Opposite-Spin Scale   =       1.2000000000000000 [-]
	 SCS Same-Spin Energy      =      -0.1202316998556023 [Eh]
	 SCS Opposite-Spin Energy  =      -1.5128557163029790 [Eh]
	 SCS Correlation Energy    =      -1.6330874161585813 [Eh]
	 SCS Total Energy          =    -349.8202797722680089 [Eh]
	-----------------------------------------------------------

  Dipole Moment: [D]
     X:     0.0968      Y:     1.6560      Z:    -0.0273     Total:     1.6590

*** Psi4 exiting successfully. Buy a developer a beer!
