                               Psi4 1.4a3.dev225

  ==> Input File <==

--------------------------------------------------------------------------
#psi4
#
memory 32 gb

molecule  {
0 1
  O       -0.0000020    -0.6102900    -0.0000420
  C        0.9363500     0.4141040    -0.4566330
  C       -0.9363370     0.4140910     0.4566200
  C        0.0000010     1.5430250    -0.0000030
  C        2.2717190     0.2897090     0.2433650
  C       -2.2717330     0.2897190    -0.2433270
  C        2.9423460    -1.0479970    -0.0522250
  C       -2.9423440    -1.0480000     0.0522380
  H        1.0693000     0.3446630    -1.5460730
  H       -1.0692400     0.3446160     1.5460640
  H        0.4022720     2.1756970     0.7958000
  H       -0.4022820     2.1756850    -0.7958090
  H        2.1021510     0.3966190     1.3216110
  H        2.9117530     1.1256360    -0.0698640
  H       -2.1022070     0.3966710    -1.3215760
  H       -2.9117580     1.1256310     0.0699580
  H        2.2845910    -1.8662570     0.2495040
  H        3.1497060    -1.1530710    -1.1218230
  H        3.7157722    -1.1281296     0.3880629
  H       -3.1496440    -1.1531250     1.1218420
  H       -3.8889120    -1.1460430    -0.4865470
  H       -2.2846070    -1.8662470    -0.2495670
units angstrom
no_reorient  #important for SAPT in psi4, default
symmetry c1  #important for SAPT in psi4, default
}

set PROPERTIES_ORIGIN ["COM"]
properties('MP2/aug-cc-pvtz', properties = ['dipole'])
--------------------------------------------------------------------------

    Molecular point group: c1
  Charge       = 0
  Multiplicity = 1
  Basis Set: AUG-CC-PVTZ
    Blend: AUG-CC-PVTZ
  Basis Set: (AUG-CC-PVTZ AUX)
    Blend: AUG-CC-PVTZ-JKFIT

    Orbital Energies [Eh]
    ---------------------

    Doubly Occupied:

       1A    -20.537103     2A    -11.276179     3A    -11.275767
       4A    -11.223002     5A    -11.218238     6A    -11.217334
       7A    -11.206873     8A    -11.182001     9A     -1.363966
      10A     -1.062477    11A     -1.048660    12A     -0.997884
      13A     -0.923951    14A     -0.855490    15A     -0.806179
      16A     -0.735108    17A     -0.670915    18A     -0.665659
      19A     -0.609989    20A     -0.605849    21A     -0.594105
      22A     -0.566313    23A     -0.552662    24A     -0.524785
      25A     -0.520372    26A     -0.500679    27A     -0.493969
      28A     -0.480812    29A     -0.479384    30A     -0.445207
      31A     -0.432379    32A     -0.401197

  @DF-RHF Final Energy:  -348.15215740069937

   => Energetics <=

    Nuclear Repulsion Energy =            400.5470176235008921
    One-Electron Energy =               -1266.4493791457462066
    Two-Electron Energy =                 517.7502041215459485
    Total Energy =                       -348.1521574006993660
  Basis Set: (AUG-CC-PVTZ AUX)
    Blend: AUG-CC-PVTZ-RI
    Molecular point group: c1

    Geometry (in Angstrom), charge = 0, multiplicity = 1:

       Center              X                  Y                   Z               Mass
    ------------   -----------------  -----------------  -----------------  -----------------
         O            0.001527014139    -0.612611027070     0.000829473376    15.994914619570
         C            0.937879014139     0.411782972930    -0.455761526624    12.000000000000
         C           -0.934807985861     0.411769972930     0.457491473376    12.000000000000
         C            0.001530014139     1.540703972930     0.000868473376    12.000000000000
         C            2.273248014139     0.287387972930     0.244236473376    12.000000000000
         C           -2.270203985861     0.287397972930    -0.242455526624    12.000000000000
         C            2.943875014139    -1.050318027070    -0.051353526624    12.000000000000
         C           -2.940814985861    -1.050321027070     0.053109473376    12.000000000000
         H            1.070829014139     0.342341972930    -1.545201526624     1.007825032230
         H           -1.067710985861     0.342294972930     1.546935473376     1.007825032230
         H            0.403801014139     2.173375972930     0.796671473376     1.007825032230
         H           -0.400752985861     2.173363972930    -0.794937526624     1.007825032230
         H            2.103680014139     0.394297972930     1.322482473376     1.007825032230
         H            2.913282014139     1.123314972930    -0.068992526624     1.007825032230
         H           -2.100677985861     0.394349972930    -1.320704526624     1.007825032230
         H           -2.910228985861     1.123309972930     0.070829473376     1.007825032230
         H            2.286120014139    -1.868578027070     0.250375473376     1.007825032230
         H            3.151235014139    -1.155392027070    -1.120951526624     1.007825032230
         H            3.717301214139    -1.130450627070     0.388934373376     1.007825032230
         H           -3.148114985861    -1.155446027070     1.122713473376     1.007825032230
         H           -3.887382985861    -1.148364027070    -0.485675526624     1.007825032230
         H           -2.283077985861    -1.868568027070    -0.248695526624     1.007825032230

  Basis Set: AUG-CC-PVTZ
    Blend: AUG-CC-PVTZ
  Basis Set: (AUG-CC-PVTZ AUX)
    Blend: AUG-CC-PVTZ-JKFIT
	 Reference Energy          =    -348.1521574006993660 [Eh]
	 Singles Energy            =      -0.0000000000000000 [Eh]
	 Same-Spin Energy          =      -0.3611481473549903 [Eh]
	 Opposite-Spin Energy      =      -1.2609747985889916 [Eh]
	 Correlation Energy        =      -1.6221229459439819 [Eh]
	 Total Energy              =    -349.7742803466433656 [Eh]

	 ================> DF-SCS-MP2 Energies <==================
	-----------------------------------------------------------
	 SCS Same-Spin Scale       =       0.3333333333333333 [-]
	 SCS Opposite-Spin Scale   =       1.2000000000000000 [-]
	 SCS Same-Spin Energy      =      -0.1203827157849968 [Eh]
	 SCS Opposite-Spin Energy  =      -1.5131697583067900 [Eh]
	 SCS Correlation Energy    =      -1.6335524740917868 [Eh]
	 SCS Total Energy          =    -349.7857098747911664 [Eh]
	-----------------------------------------------------------

  Dipole Moment: [D]
     X:     0.1147      Y:     1.6659      Z:     0.0338     Total:     1.6702

*** Psi4 exiting successfully. Buy a developer a beer!
