                               Psi4 1.4a3.dev225

  ==> Input File <==

--------------------------------------------------------------------------
#psi4
#
memory 32 gb

molecule  {
0 1
  O       -0.0000020    -0.6102900    -0.0000420
  C        0.9539025     0.4579008    -0.4803428
  C       -0.9363370     0.4140910     0.4566200
  C        0.0000010     1.5430250    -0.0000030
  C        2.2717190     0.2897090     0.2433650
  C       -2.2717330     0.2897190    -0.2433270
  C        2.9423460    -1.0479970    -0.0522250
  C       -2.9423440    -1.0480000     0.0522380
  H        1.0693000     0.3446630    -1.5460730
  H       -1.0692400     0.3446160     1.5460640
  H        0.4022720     2.1756970     0.7958000
  H       -0.4022820     2.1756850    -0.7958090
  H        2.1021510     0.3966190     1.3216110
  H        2.9117530     1.1256360    -0.0698640
  H       -2.1022070     0.3966710    -1.3215760
  H       -2.9117580     1.1256310     0.0699580
  H        2.2845910    -1.8662570     0.2495040
  H        3.1497060    -1.1530710    -1.1218230
  H        3.8888820    -1.1460650     0.4866090
  H       -3.1496440    -1.1531250     1.1218420
  H       -3.8889120    -1.1460430    -0.4865470
  H       -2.2846070    -1.8662470    -0.2495670
units angstrom
no_reorient  #important for SAPT in psi4, default
symmetry c1  #important for SAPT in psi4, default
}

set PROPERTIES_ORIGIN ["COM"]
properties('MP2/aug-cc-pvtz', properties = ['dipole'])
--------------------------------------------------------------------------

    Molecular point group: c1
  Charge       = 0
  Multiplicity = 1
  Basis Set: AUG-CC-PVTZ
    Blend: AUG-CC-PVTZ
  Basis Set: (AUG-CC-PVTZ AUX)
    Blend: AUG-CC-PVTZ-JKFIT

    Orbital Energies [Eh]
    ---------------------

    Doubly Occupied:

       1A    -20.533343     2A    -11.277899     3A    -11.274599
       4A    -11.225457     5A    -11.220725     6A    -11.217477
       7A    -11.208386     8A    -11.206227     9A     -1.349386
      10A     -1.059766    11A     -1.046907    12A     -0.995497
      13A     -0.913306    14A     -0.847870    15A     -0.804686
      16A     -0.737986    17A     -0.667449    18A     -0.661775
      19A     -0.605976    20A     -0.599848    21A     -0.585563
      22A     -0.560971    23A     -0.546462    24A     -0.521249
      25A     -0.519342    26A     -0.496996    27A     -0.490927
      28A     -0.482765    29A     -0.478465    30A     -0.445750
      31A     -0.432767    32A     -0.401584

  @DF-RHF Final Energy:  -348.18291295121480

   => Energetics <=

    Nuclear Repulsion Energy =            398.8590663414473170
    One-Electron Energy =               -1263.2491516669790599
    Two-Electron Energy =                 516.2071723743169969
    Total Energy =                       -348.1829129512148029
  Basis Set: (AUG-CC-PVTZ AUX)
    Blend: AUG-CC-PVTZ-RI
    Molecular point group: c1

    Geometry (in Angstrom), charge = 0, multiplicity = 1:

       Center              X                  Y                   Z               Mass
    ------------   -----------------  -----------------  -----------------  -----------------
         O           -0.001847914173    -0.617058581814     0.002452550733    15.994914619570
         C            0.952056585827     0.451132218186    -0.477848249267    12.000000000000
         C           -0.938182914173     0.407322418186     0.459114550733    12.000000000000
         C           -0.001844914173     1.536256418186     0.002491550733    12.000000000000
         C            2.269873085827     0.282940418186     0.245859550733    12.000000000000
         C           -2.273578914173     0.282950418186    -0.240832449267    12.000000000000
         C            2.940500085827    -1.054765581814    -0.049730449267    12.000000000000
         C           -2.944189914173    -1.054768581814     0.054732550733    12.000000000000
         H            1.067454085827     0.337894418186    -1.543578449267     1.007825032230
         H           -1.071085914173     0.337847418186     1.548558550733     1.007825032230
         H            0.400426085827     2.168928418186     0.798294550733     1.007825032230
         H           -0.404127914173     2.168916418186    -0.793314449267     1.007825032230
         H            2.100305085827     0.389850418186     1.324105550733     1.007825032230
         H            2.909907085827     1.118867418186    -0.067369449267     1.007825032230
         H           -2.104052914173     0.389902418186    -1.319081449267     1.007825032230
         H           -2.913603914173     1.118862418186     0.072452550733     1.007825032230
         H            2.282745085827    -1.873025581814     0.251998550733     1.007825032230
         H            3.147860085827    -1.159839581814    -1.119328449267     1.007825032230
         H            3.887036085827    -1.152833581814     0.489103550733     1.007825032230
         H           -3.151489914173    -1.159893581814     1.124336550733     1.007825032230
         H           -3.890757914173    -1.152811581814    -0.484052449267     1.007825032230
         H           -2.286452914173    -1.873015581814    -0.247072449267     1.007825032230

  Basis Set: AUG-CC-PVTZ
    Blend: AUG-CC-PVTZ
  Basis Set: (AUG-CC-PVTZ AUX)
    Blend: AUG-CC-PVTZ-JKFIT
	 Reference Energy          =    -348.1829129512148029 [Eh]
	 Singles Energy            =      -0.0000000000000000 [Eh]
	 Same-Spin Energy          =      -0.3612439389163766 [Eh]
	 Opposite-Spin Energy      =      -1.2626209631306031 [Eh]
	 Correlation Energy        =      -1.6238649020469798 [Eh]
	 Total Energy              =    -349.8067778532617922 [Eh]

	 ================> DF-SCS-MP2 Energies <==================
	-----------------------------------------------------------
	 SCS Same-Spin Scale       =       0.3333333333333333 [-]
	 SCS Opposite-Spin Scale   =       1.2000000000000000 [-]
	 SCS Same-Spin Energy      =      -0.1204146463054589 [Eh]
	 SCS Opposite-Spin Energy  =      -1.5151451557567237 [Eh]
	 SCS Correlation Energy    =      -1.6355598020621827 [Eh]
	 SCS Total Energy          =    -349.8184727532769784 [Eh]
	-----------------------------------------------------------

  Dipole Moment: [D]
     X:     0.1281      Y:     1.7657      Z:    -0.0604     Total:     1.7714

*** Psi4 exiting successfully. Buy a developer a beer!
