                               Psi4 1.4a3.dev225

  ==> Input File <==

--------------------------------------------------------------------------
#psi4
#
memory 32 gb

molecule  {
0 1
  O       -0.0000020    -0.6102900    -0.0000420
  C        0.9363500     0.4141040    -0.4566330
  C       -0.9363370     0.4140910     0.4566200
  C        0.0000010     1.5430250    -0.0000030
  C        2.2717190     0.2897090     0.2433650
  C       -2.2717330     0.2897190    -0.2433270
  C        2.9423460    -1.0479970    -0.0522250
  C       -2.9423440    -1.0480000     0.0522380
  H        1.0693000     0.3446630    -1.5460730
  H       -1.0692400     0.3446160     1.5460640
  H        0.4022720     2.1756970     0.7958000
  H       -0.4022820     2.1756850    -0.7958090
  H        2.1021510     0.3966190     1.3216110
  H        2.9117530     1.1256360    -0.0698640
  H       -2.1022070     0.3966710    -1.3215760
  H       -2.9117580     1.1256310     0.0699580
  H        2.3448056    -1.7913489     0.2218820
  H        3.1497060    -1.1530710    -1.1218230
  H        3.8888820    -1.1460650     0.4866090
  H       -3.1496440    -1.1531250     1.1218420
  H       -3.8889120    -1.1460430    -0.4865470
  H       -2.2846070    -1.8662470    -0.2495670
units angstrom
no_reorient  #important for SAPT in psi4, default
symmetry c1  #important for SAPT in psi4, default
}

set PROPERTIES_ORIGIN ["COM"]
properties('MP2/aug-cc-pvtz', properties = ['dipole'])
--------------------------------------------------------------------------

    Molecular point group: c1
  Charge       = 0
  Multiplicity = 1
  Basis Set: AUG-CC-PVTZ
    Blend: AUG-CC-PVTZ
  Basis Set: (AUG-CC-PVTZ AUX)
    Blend: AUG-CC-PVTZ-JKFIT

    Orbital Energies [Eh]
    ---------------------

    Doubly Occupied:

       1A    -20.538148     2A    -11.277040     3A    -11.276795
       4A    -11.223954     5A    -11.218848     6A    -11.217932
       7A    -11.207382     8A    -11.195320     9A     -1.365053
      10A     -1.061068    11A     -1.048189    12A     -0.995948
      13A     -0.917068    14A     -0.851032    15A     -0.806538
      16A     -0.736111    17A     -0.673025    18A     -0.664827
      19A     -0.607436    20A     -0.606707    21A     -0.584379
      22A     -0.558530    23A     -0.555918    24A     -0.525539
      25A     -0.520981    26A     -0.498868    27A     -0.495928
      28A     -0.482184    29A     -0.480341    30A     -0.446876
      31A     -0.432190    32A     -0.401554

  @DF-RHF Final Energy:  -348.18021011592538

   => Energetics <=

    Nuclear Repulsion Energy =            399.9003412783887939
    One-Electron Energy =               -1265.2176840378947418
    Two-Electron Energy =                 517.1371326435804576
    Total Energy =                       -348.1802101159254335
  Basis Set: (AUG-CC-PVTZ AUX)
    Blend: AUG-CC-PVTZ-RI
    Molecular point group: c1

    Geometry (in Angstrom), charge = 0, multiplicity = 1:

       Center              X                  Y                   Z               Mass
    ------------   -----------------  -----------------  -----------------  -----------------
         O           -0.000533818193    -0.613114237117     0.000203037913    15.994914619570
         C            0.935818181807     0.411279762883    -0.456387962087    12.000000000000
         C           -0.936868818193     0.411266762883     0.456865037913    12.000000000000
         C           -0.000530818193     1.540200762883     0.000242037913    12.000000000000
         C            2.271187181807     0.286884762883     0.243610037913    12.000000000000
         C           -2.272264818193     0.286894762883    -0.243081962087    12.000000000000
         C            2.941814181807    -1.050821237117    -0.051979962087    12.000000000000
         C           -2.942875818193    -1.050824237117     0.052483037913    12.000000000000
         H            1.068768181807     0.341838762883    -1.545827962087     1.007825032230
         H           -1.069771818193     0.341791762883     1.546309037913     1.007825032230
         H            0.401740181807     2.172872762883     0.796045037913     1.007825032230
         H           -0.402813818193     2.172860762883    -0.795563962087     1.007825032230
         H            2.101619181807     0.393794762883     1.321856037913     1.007825032230
         H            2.911221181807     1.122811762883    -0.069618962087     1.007825032230
         H           -2.102738818193     0.393846762883    -1.321330962087     1.007825032230
         H           -2.912289818193     1.122806762883     0.070203037913     1.007825032230
         H            2.344273781807    -1.794173137117     0.222127037913     1.007825032230
         H            3.149174181807    -1.155895237117    -1.121577962087     1.007825032230
         H            3.888350181807    -1.148889237117     0.486854037913     1.007825032230
         H           -3.150175818193    -1.155949237117     1.122087037913     1.007825032230
         H           -3.889443818193    -1.148867237117    -0.486301962087     1.007825032230
         H           -2.285138818193    -1.869071237117    -0.249321962087     1.007825032230

  Basis Set: AUG-CC-PVTZ
    Blend: AUG-CC-PVTZ
  Basis Set: (AUG-CC-PVTZ AUX)
    Blend: AUG-CC-PVTZ-JKFIT
	 Reference Energy          =    -348.1802101159253766 [Eh]
	 Singles Energy            =      -0.0000000000000000 [Eh]
	 Same-Spin Energy          =      -0.3609109076240227 [Eh]
	 Opposite-Spin Energy      =      -1.2609715941527613 [Eh]
	 Correlation Energy        =      -1.6218825017767839 [Eh]
	 Total Energy              =    -349.8020926177021579 [Eh]

	 ================> DF-SCS-MP2 Energies <==================
	-----------------------------------------------------------
	 SCS Same-Spin Scale       =       0.3333333333333333 [-]
	 SCS Opposite-Spin Scale   =       1.2000000000000000 [-]
	 SCS Same-Spin Energy      =      -0.1203036358746742 [Eh]
	 SCS Opposite-Spin Energy  =      -1.5131659129833135 [Eh]
	 SCS Correlation Energy    =      -1.6334695488579878 [Eh]
	 SCS Total Energy          =    -349.8136796647833648 [Eh]
	-----------------------------------------------------------

  Dipole Moment: [D]
     X:    -0.0030      Y:     1.6703      Z:     0.0069     Total:     1.6703

*** Psi4 exiting successfully. Buy a developer a beer!
