                               Psi4 1.4a3.dev225

  ==> Input File <==

--------------------------------------------------------------------------
#psi4
#
memory 32 gb

molecule  {
0 1
  O       -0.0000020    -0.6102900    -0.0000420
  C        0.9363500     0.4141040    -0.4566330
  C       -0.9363370     0.4140910     0.4566200
  C        0.0000010     1.5430250    -0.0000030
  C        2.2717190     0.2897090     0.2433650
  C       -2.2717330     0.2897190    -0.2433270
  C        2.9423460    -1.0479970    -0.0522250
  C       -2.9423440    -1.0480000     0.0522380
  H        1.0693000     0.3446630    -1.5460730
  H       -1.0692400     0.3446160     1.5460640
  H        0.4022720     2.1756970     0.7958000
  H       -0.4022820     2.1756850    -0.7958090
  H        2.0866896     0.4063671     1.4199264
  H        2.9117530     1.1256360    -0.0698640
  H       -2.1022070     0.3966710    -1.3215760
  H       -2.9117580     1.1256310     0.0699580
  H        2.2845910    -1.8662570     0.2495040
  H        3.1497060    -1.1530710    -1.1218230
  H        3.8888820    -1.1460650     0.4866090
  H       -3.1496440    -1.1531250     1.1218420
  H       -3.8889120    -1.1460430    -0.4865470
  H       -2.2846070    -1.8662470    -0.2495670
units angstrom
no_reorient  #important for SAPT in psi4, default
symmetry c1  #important for SAPT in psi4, default
}

set PROPERTIES_ORIGIN ["COM"]
properties('MP2/aug-cc-pvtz', properties = ['dipole'])
--------------------------------------------------------------------------

    Molecular point group: c1
  Charge       = 0
  Multiplicity = 1
  Basis Set: AUG-CC-PVTZ
    Blend: AUG-CC-PVTZ
  Basis Set: (AUG-CC-PVTZ AUX)
    Blend: AUG-CC-PVTZ-JKFIT

    Orbital Energies [Eh]
    ---------------------

    Doubly Occupied:

       1A    -20.538267     2A    -11.278234     3A    -11.276945
       4A    -11.231047     5A    -11.224106     6A    -11.218837
       7A    -11.208677     8A    -11.207367     9A     -1.365129
      10A     -1.058550    11A     -1.046160    12A     -0.994053
      13A     -0.913745    14A     -0.845793    15A     -0.801278
      16A     -0.733695    17A     -0.672137    18A     -0.663394
      19A     -0.606061    20A     -0.600965    21A     -0.582033
      22A     -0.558487    23A     -0.551969    24A     -0.522307
      25A     -0.521718    26A     -0.496790    27A     -0.492240
      28A     -0.480781    29A     -0.471692    30A     -0.446475
      31A     -0.432017    32A     -0.402071

  @DF-RHF Final Energy:  -348.17998730705455

   => Energetics <=

    Nuclear Repulsion Energy =            399.0921827233964336
    One-Electron Energy =               -1263.6583003946120698
    Two-Electron Energy =                 516.3861303641610903
    Total Energy =                       -348.1799873070544891
  Basis Set: (AUG-CC-PVTZ AUX)
    Blend: AUG-CC-PVTZ-RI
    Molecular point group: c1

    Geometry (in Angstrom), charge = 0, multiplicity = 1:

       Center              X                  Y                   Z               Mass
    ------------   -----------------  -----------------  -----------------  -----------------
         O            0.000134588315    -0.612538712933    -0.000909301241    15.994914619570
         C            0.936486588315     0.411855287067    -0.457500301241    12.000000000000
         C           -0.936200411685     0.411842287067     0.455752698759    12.000000000000
         C            0.000137588315     1.540776287067    -0.000870301241    12.000000000000
         C            2.271855588315     0.287460287067     0.242497698759    12.000000000000
         C           -2.271596411685     0.287470287067    -0.244194301241    12.000000000000
         C            2.942482588315    -1.050245712933    -0.053092301241    12.000000000000
         C           -2.942207411685    -1.050248712933     0.051370698759    12.000000000000
         H            1.069436588315     0.342414287067    -1.546940301241     1.007825032230
         H           -1.069103411685     0.342367287067     1.545196698759     1.007825032230
         H            0.402408588315     2.173448287067     0.794932698759     1.007825032230
         H           -0.402145411685     2.173436287067    -0.796676301241     1.007825032230
         H            2.086826188315     0.404118387067     1.419059098759     1.007825032230
         H            2.911889588315     1.123387287067    -0.070731301241     1.007825032230
         H           -2.102070411685     0.394422287067    -1.322443301241     1.007825032230
         H           -2.911621411685     1.123382287067     0.069090698759     1.007825032230
         H            2.284727588315    -1.868505712933     0.248636698759     1.007825032230
         H            3.149842588315    -1.155319712933    -1.122690301241     1.007825032230
         H            3.889018588315    -1.148313712933     0.485741698759     1.007825032230
         H           -3.149507411685    -1.155373712933     1.120974698759     1.007825032230
         H           -3.888775411685    -1.148291712933    -0.487414301241     1.007825032230
         H           -2.284470411685    -1.868495712933    -0.250434301241     1.007825032230

  Basis Set: AUG-CC-PVTZ
    Blend: AUG-CC-PVTZ
  Basis Set: (AUG-CC-PVTZ AUX)
    Blend: AUG-CC-PVTZ-JKFIT
	 Reference Energy          =    -348.1799873070545459 [Eh]
	 Singles Energy            =      -0.0000000000000000 [Eh]
	 Same-Spin Energy          =      -0.3609668283033558 [Eh]
	 Opposite-Spin Energy      =      -1.2622387039585696 [Eh]
	 Correlation Energy        =      -1.6232055322619254 [Eh]
	 Total Energy              =    -349.8031928393164662 [Eh]

	 ================> DF-SCS-MP2 Energies <==================
	-----------------------------------------------------------
	 SCS Same-Spin Scale       =       0.3333333333333333 [-]
	 SCS Opposite-Spin Scale   =       1.2000000000000000 [-]
	 SCS Same-Spin Energy      =      -0.1203222761011186 [Eh]
	 SCS Opposite-Spin Energy  =      -1.5146864447502835 [Eh]
	 SCS Correlation Energy    =      -1.6350087208514021 [Eh]
	 SCS Total Energy          =    -349.8149960279059201 [Eh]
	-----------------------------------------------------------

  Dipole Moment: [D]
     X:     0.0073      Y:     1.6820      Z:    -0.0711     Total:     1.6835

*** Psi4 exiting successfully. Buy a developer a beer!
