                               Psi4 1.4a3.dev225

  ==> Input File <==

--------------------------------------------------------------------------
#psi4
#
memory 32 gb

molecule  {
0 1
  O       -0.0000020    -0.6102900    -0.0000420
  C        0.9363500     0.4141040    -0.4566330
  C       -0.9363370     0.4140910     0.4566200
  C        0.0000010     1.5430250    -0.0000030
  C        2.2717190     0.2897090     0.2433650
  C       -2.2717330     0.2897190    -0.2433270
  C        2.9423460    -1.0479970    -0.0522250
  C       -2.9423440    -1.0480000     0.0522380
  H        1.0693000     0.3446630    -1.5460730
  H       -1.0692400     0.3446160     1.5460640
  H        0.4390648     2.2335628     0.8685862
  H       -0.4022820     2.1756850    -0.7958090
  H        2.1021510     0.3966190     1.3216110
  H        2.9117530     1.1256360    -0.0698640
  H       -2.1022070     0.3966710    -1.3215760
  H       -2.9117580     1.1256310     0.0699580
  H        2.2845910    -1.8662570     0.2495040
  H        3.1497060    -1.1530710    -1.1218230
  H        3.8888820    -1.1460650     0.4866090
  H       -3.1496440    -1.1531250     1.1218420
  H       -3.8889120    -1.1460430    -0.4865470
  H       -2.2846070    -1.8662470    -0.2495670
units angstrom
no_reorient  #important for SAPT in psi4, default
symmetry c1  #important for SAPT in psi4, default
}

set PROPERTIES_ORIGIN ["COM"]
properties('MP2/aug-cc-pvtz', properties = ['dipole'])
--------------------------------------------------------------------------

    Molecular point group: c1
  Charge       = 0
  Multiplicity = 1
  Basis Set: AUG-CC-PVTZ
    Blend: AUG-CC-PVTZ
  Basis Set: (AUG-CC-PVTZ AUX)
    Blend: AUG-CC-PVTZ-JKFIT

    Orbital Energies [Eh]
    ---------------------

    Doubly Occupied:

       1A    -20.539066     2A    -11.278193     3A    -11.278087
       4A    -11.235856     5A    -11.219571     6A    -11.218864
       7A    -11.207932     8A    -11.207392     9A     -1.365993
      10A     -1.060262    11A     -1.046727    12A     -0.991230
      13A     -0.913777    14A     -0.845673    15A     -0.805360
      16A     -0.731681    17A     -0.671338    18A     -0.661642
      19A     -0.605397    20A     -0.601899    21A     -0.584666
      22A     -0.559306    23A     -0.549470    24A     -0.521740
      25A     -0.515442    26A     -0.497817    27A     -0.491908
      28A     -0.480979    29A     -0.480516    30A     -0.445667
      31A     -0.433486    32A     -0.401587

  @DF-RHF Final Energy:  -348.17962243967725

   => Energetics <=

    Nuclear Repulsion Energy =            399.0465274711217489
    One-Electron Energy =               -1263.5552581266813377
    Two-Electron Energy =                 516.3291082158823428
    Total Energy =                       -348.1796224396772459
  Basis Set: (AUG-CC-PVTZ AUX)
    Blend: AUG-CC-PVTZ-RI
    Molecular point group: c1

    Geometry (in Angstrom), charge = 0, multiplicity = 1:

       Center              X                  Y                   Z               Mass
    ------------   -----------------  -----------------  -----------------  -----------------
         O           -0.000326945690    -0.612963711399    -0.000683815176    15.994914619570
         C            0.936025054310     0.411430288601    -0.457274815176    12.000000000000
         C           -0.936661945690     0.411417288601     0.455978184824    12.000000000000
         C           -0.000323945690     1.540351288601    -0.000644815176    12.000000000000
         C            2.271394054310     0.287035288601     0.242723184824    12.000000000000
         C           -2.272057945690     0.287045288601    -0.243968815176    12.000000000000
         C            2.942021054310    -1.050670711399    -0.052866815176    12.000000000000
         C           -2.942668945690    -1.050673711399     0.051596184824    12.000000000000
         H            1.068975054310     0.341989288601    -1.546714815176     1.007825032230
         H           -1.069564945690     0.341942288601     1.545422184824     1.007825032230
         H            0.438739854310     2.230889088601     0.867944384824     1.007825032230
         H           -0.402606945690     2.173011288601    -0.796450815176     1.007825032230
         H            2.101826054310     0.393945288601     1.320969184824     1.007825032230
         H            2.911428054310     1.122962288601    -0.070505815176     1.007825032230
         H           -2.102531945690     0.393997288601    -1.322217815176     1.007825032230
         H           -2.912082945690     1.122957288601     0.069316184824     1.007825032230
         H            2.284266054310    -1.868930711399     0.248862184824     1.007825032230
         H            3.149381054310    -1.155744711399    -1.122464815176     1.007825032230
         H            3.888557054310    -1.148738711399     0.485967184824     1.007825032230
         H           -3.149968945690    -1.155798711399     1.121200184824     1.007825032230
         H           -3.889236945690    -1.148716711399    -0.487188815176     1.007825032230
         H           -2.284931945690    -1.868920711399    -0.250208815176     1.007825032230

  Basis Set: AUG-CC-PVTZ
    Blend: AUG-CC-PVTZ
  Basis Set: (AUG-CC-PVTZ AUX)
    Blend: AUG-CC-PVTZ-JKFIT
	 Reference Energy          =    -348.1796224396772459 [Eh]
	 Singles Energy            =      -0.0000000000000000 [Eh]
	 Same-Spin Energy          =      -0.3609786255929169 [Eh]
	 Opposite-Spin Energy      =      -1.2622488253199011 [Eh]
	 Correlation Energy        =      -1.6232274509128182 [Eh]
	 Total Energy              =    -349.8028498905900392 [Eh]

	 ================> DF-SCS-MP2 Energies <==================
	-----------------------------------------------------------
	 SCS Same-Spin Scale       =       0.3333333333333333 [-]
	 SCS Opposite-Spin Scale   =       1.2000000000000000 [-]
	 SCS Same-Spin Energy      =      -0.1203262085309723 [Eh]
	 SCS Opposite-Spin Energy  =      -1.5146985903838812 [Eh]
	 SCS Correlation Energy    =      -1.6350247989148534 [Eh]
	 SCS Total Energy          =    -349.8146472385921015 [Eh]
	-----------------------------------------------------------

  Dipole Moment: [D]
     X:    -0.0277      Y:     1.6496      Z:    -0.0330     Total:     1.6502

*** Psi4 exiting successfully. Buy a developer a beer!
