                               Psi4 1.4a3.dev225

  ==> Input File <==

--------------------------------------------------------------------------
#psi4
#
memory 32 gb

molecule  {
0 1
  O       -0.0000020    -0.6102900    -0.0000420
  C        0.9363500     0.4141040    -0.4566330
  C       -0.9363370     0.4140910     0.4566200
  C        0.0000010     1.5430250    -0.0000030
  C        2.2717190     0.2897090     0.2433650
  C       -2.2717330     0.2897190    -0.2433270
  C        2.9423460    -1.0479970    -0.0522250
  C       -2.9423440    -1.0480000     0.0522380
  H        1.0693000     0.3446630    -1.5460730
  H       -1.0692400     0.3446160     1.5460640
  H        0.4022720     2.1756970     0.7958000
  H       -0.4022820     2.1756850    -0.7958090
  H        2.0712283     0.4161153     1.5182418
  H        2.9117530     1.1256360    -0.0698640
  H       -2.1022070     0.3966710    -1.3215760
  H       -2.9117580     1.1256310     0.0699580
  H        2.2845910    -1.8662570     0.2495040
  H        3.1497060    -1.1530710    -1.1218230
  H        3.8888820    -1.1460650     0.4866090
  H       -3.1496440    -1.1531250     1.1218420
  H       -3.8889120    -1.1460430    -0.4865470
  H       -2.2846070    -1.8662470    -0.2495670
units angstrom
no_reorient  #important for SAPT in psi4, default
symmetry c1  #important for SAPT in psi4, default
}

set PROPERTIES_ORIGIN ["COM"]
properties('MP2/aug-cc-pvtz', properties = ['dipole'])
--------------------------------------------------------------------------

    Molecular point group: c1
  Charge       = 0
  Multiplicity = 1
  Basis Set: AUG-CC-PVTZ
    Blend: AUG-CC-PVTZ
  Basis Set: (AUG-CC-PVTZ AUX)
    Blend: AUG-CC-PVTZ-JKFIT

    Orbital Energies [Eh]
    ---------------------

    Doubly Occupied:

       1A    -20.538578     2A    -11.279742     3A    -11.276934
       4A    -11.242503     5A    -11.224229     6A    -11.218879
       7A    -11.210281     8A    -11.207403     9A     -1.365384
      10A     -1.058138    11A     -1.045546    12A     -0.994172
      13A     -0.914453    14A     -0.845307    15A     -0.798730
      16A     -0.732055    17A     -0.672693    18A     -0.662375
      19A     -0.605860    20A     -0.600581    21A     -0.580044
      22A     -0.558330    23A     -0.552303    24A     -0.522909
      25A     -0.522169    26A     -0.496606    27A     -0.492653
      28A     -0.481210    29A     -0.460944    30A     -0.446833
      31A     -0.430844    32A     -0.402547

  @DF-RHF Final Energy:  -348.16683003832270

   => Energetics <=

    Nuclear Repulsion Energy =            398.7082840113977795
    One-Electron Energy =               -1262.8677610117290442
    Two-Electron Energy =                 515.9926469620085072
    Total Energy =                       -348.1668300383227006
  Basis Set: (AUG-CC-PVTZ AUX)
    Blend: AUG-CC-PVTZ-RI
    Molecular point group: c1

    Geometry (in Angstrom), charge = 0, multiplicity = 1:

       Center              X                  Y                   Z               Mass
    ------------   -----------------  -----------------  -----------------  -----------------
         O            0.000271149888    -0.612624813683    -0.001777669724    15.994914619570
         C            0.936623149888     0.411769186317    -0.458368669724    12.000000000000
         C           -0.936063850112     0.411756186317     0.454884330276    12.000000000000
         C            0.000274149888     1.540690186317    -0.001738669724    12.000000000000
         C            2.271992149888     0.287374186317     0.241629330276    12.000000000000
         C           -2.271459850112     0.287384186317    -0.245062669724    12.000000000000
         C            2.942619149888    -1.050331813683    -0.053960669724    12.000000000000
         C           -2.942070850112    -1.050334813683     0.050502330276    12.000000000000
         H            1.069573149888     0.342328186317    -1.547808669724     1.007825032230
         H           -1.068966850112     0.342281186317     1.544328330276     1.007825032230
         H            0.402545149888     2.173362186317     0.794064330276     1.007825032230
         H           -0.402008850112     2.173350186317    -0.797544669724     1.007825032230
         H            2.071501449888     0.413780486317     1.516506130276     1.007825032230
         H            2.912026149888     1.123301186317    -0.071599669724     1.007825032230
         H           -2.101933850112     0.394336186317    -1.323311669724     1.007825032230
         H           -2.911484850112     1.123296186317     0.068222330276     1.007825032230
         H            2.284864149888    -1.868591813683     0.247768330276     1.007825032230
         H            3.149979149888    -1.155405813683    -1.123558669724     1.007825032230
         H            3.889155149888    -1.148399813683     0.484873330276     1.007825032230
         H           -3.149370850112    -1.155459813683     1.120106330276     1.007825032230
         H           -3.888638850112    -1.148377813683    -0.488282669724     1.007825032230
         H           -2.284333850112    -1.868581813683    -0.251302669724     1.007825032230

  Basis Set: AUG-CC-PVTZ
    Blend: AUG-CC-PVTZ
  Basis Set: (AUG-CC-PVTZ AUX)
    Blend: AUG-CC-PVTZ-JKFIT
	 Reference Energy          =    -348.1668300383227006 [Eh]
	 Singles Energy            =      -0.0000000000000000 [Eh]
	 Same-Spin Energy          =      -0.3610055796309623 [Eh]
	 Opposite-Spin Energy      =      -1.2631315890345227 [Eh]
	 Correlation Energy        =      -1.6241371686654851 [Eh]
	 Total Energy              =    -349.7909672069881708 [Eh]

	 ================> DF-SCS-MP2 Energies <==================
	-----------------------------------------------------------
	 SCS Same-Spin Scale       =       0.3333333333333333 [-]
	 SCS Opposite-Spin Scale   =       1.2000000000000000 [-]
	 SCS Same-Spin Energy      =      -0.1203351932103208 [Eh]
	 SCS Opposite-Spin Energy  =      -1.5157579068414273 [Eh]
	 SCS Correlation Energy    =      -1.6360931000517480 [Eh]
	 SCS Total Energy          =    -349.8029231383744673 [Eh]
	-----------------------------------------------------------

  Dipole Moment: [D]
     X:     0.0142      Y:     1.6530      Z:    -0.1590     Total:     1.6607

*** Psi4 exiting successfully. Buy a developer a beer!
