                               Psi4 1.4a3.dev225

  ==> Input File <==

--------------------------------------------------------------------------
#psi4
#
memory 32 gb

molecule  {
0 1
  O       -0.0000020    -0.6102900    -0.0000420
  C        0.9363500     0.4141040    -0.4566330
  C       -0.9363370     0.4140910     0.4566200
  C        0.0000010     1.5430250    -0.0000030
  C        2.2717190     0.2897090     0.2433650
  C       -2.2717330     0.2897190    -0.2433270
  C        2.9423460    -1.0479970    -0.0522250
  C       -2.9423440    -1.0480000     0.0522380
  H        1.0572105     0.3509774    -1.4470075
  H       -1.0692400     0.3446160     1.5460640
  H        0.4022720     2.1756970     0.7958000
  H       -0.4022820     2.1756850    -0.7958090
  H        2.1021510     0.3966190     1.3216110
  H        2.9117530     1.1256360    -0.0698640
  H       -2.1022070     0.3966710    -1.3215760
  H       -2.9117580     1.1256310     0.0699580
  H        2.2845910    -1.8662570     0.2495040
  H        3.1497060    -1.1530710    -1.1218230
  H        3.8888820    -1.1460650     0.4866090
  H       -3.1496440    -1.1531250     1.1218420
  H       -3.8889120    -1.1460430    -0.4865470
  H       -2.2846070    -1.8662470    -0.2495670
units angstrom
no_reorient  #important for SAPT in psi4, default
symmetry c1  #important for SAPT in psi4, default
}

set PROPERTIES_ORIGIN ["COM"]
properties('MP2/aug-cc-pvtz', properties = ['dipole'])
--------------------------------------------------------------------------

    Molecular point group: c1
  Charge       = 0
  Multiplicity = 1
  Basis Set: AUG-CC-PVTZ
    Blend: AUG-CC-PVTZ
  Basis Set: (AUG-CC-PVTZ AUX)
    Blend: AUG-CC-PVTZ-JKFIT

    Orbital Energies [Eh]
    ---------------------

    Doubly Occupied:

       1A    -20.536351     2A    -11.276282     3A    -11.264297
       4A    -11.223034     5A    -11.218510     6A    -11.217819
       7A    -11.207397     8A    -11.207075     9A     -1.364100
      10A     -1.060978    11A     -1.047622    12A     -0.993890
      13A     -0.917015    14A     -0.847253    15A     -0.810800
      16A     -0.743321    17A     -0.674184    18A     -0.666299
      19A     -0.606891    20A     -0.601318    21A     -0.584001
      22A     -0.563645    23A     -0.551336    24A     -0.522373
      25A     -0.520758    26A     -0.498657    27A     -0.491556
      28A     -0.481661    29A     -0.480016    30A     -0.445175
      31A     -0.433744    32A     -0.402795

  @DF-RHF Final Energy:  -348.18118468315322

   => Energetics <=

    Nuclear Repulsion Energy =            400.0786602936395866
    One-Electron Energy =               -1265.5993774892804140
    Two-Electron Energy =                 517.3395325124876081
    Total Energy =                       -348.1811846831532193
  Basis Set: (AUG-CC-PVTZ AUX)
    Blend: AUG-CC-PVTZ-RI
    Molecular point group: c1

    Geometry (in Angstrom), charge = 0, multiplicity = 1:

       Center              X                  Y                   Z               Mass
    ------------   -----------------  -----------------  -----------------  -----------------
         O            0.000104806087    -0.612508384858    -0.000915926482    15.994914619570
         C            0.936456806087     0.411885615142    -0.457506926482    12.000000000000
         C           -0.936230193913     0.411872615142     0.455746073518    12.000000000000
         C            0.000107806087     1.540806615142    -0.000876926482    12.000000000000
         C            2.271825806087     0.287490615142     0.242491073518    12.000000000000
         C           -2.271626193913     0.287500615142    -0.244200926482    12.000000000000
         C            2.942452806087    -1.050215384858    -0.053098926482    12.000000000000
         C           -2.942237193913    -1.050218384858     0.051364073518    12.000000000000
         H            1.057317306087     0.348759015142    -1.447881426482     1.007825032230
         H           -1.069133193913     0.342397615142     1.545190073518     1.007825032230
         H            0.402378806087     2.173478615142     0.794926073518     1.007825032230
         H           -0.402175193913     2.173466615142    -0.796682926482     1.007825032230
         H            2.102257806087     0.394400615142     1.320737073518     1.007825032230
         H            2.911859806087     1.123417615142    -0.070737926482     1.007825032230
         H           -2.102100193913     0.394452615142    -1.322449926482     1.007825032230
         H           -2.911651193913     1.123412615142     0.069084073518     1.007825032230
         H            2.284697806087    -1.868475384858     0.248630073518     1.007825032230
         H            3.149812806087    -1.155289384858    -1.122696926482     1.007825032230
         H            3.888988806087    -1.148283384858     0.485735073518     1.007825032230
         H           -3.149537193913    -1.155343384858     1.120968073518     1.007825032230
         H           -3.888805193913    -1.148261384858    -0.487420926482     1.007825032230
         H           -2.284500193913    -1.868465384858    -0.250440926482     1.007825032230

  Basis Set: AUG-CC-PVTZ
    Blend: AUG-CC-PVTZ
  Basis Set: (AUG-CC-PVTZ AUX)
    Blend: AUG-CC-PVTZ-JKFIT
	 Reference Energy          =    -348.1811846831532193 [Eh]
	 Singles Energy            =      -0.0000000000000000 [Eh]
	 Same-Spin Energy          =      -0.3607721865258561 [Eh]
	 Opposite-Spin Energy      =      -1.2607996609970908 [Eh]
	 Correlation Energy        =      -1.6215718475229468 [Eh]
	 Total Energy              =    -349.8027565306761630 [Eh]

	 ================> DF-SCS-MP2 Energies <==================
	-----------------------------------------------------------
	 SCS Same-Spin Scale       =       0.3333333333333333 [-]
	 SCS Opposite-Spin Scale   =       1.2000000000000000 [-]
	 SCS Same-Spin Energy      =      -0.1202573955086187 [Eh]
	 SCS Opposite-Spin Energy  =      -1.5129595931965090 [Eh]
	 SCS Correlation Energy    =      -1.6332169887051275 [Eh]
	 SCS Total Energy          =    -349.8144016718583202 [Eh]
	-----------------------------------------------------------

  Dipole Moment: [D]
     X:     0.0341      Y:     1.7108      Z:    -0.0697     Total:     1.7126

*** Psi4 exiting successfully. Buy a developer a beer!
