                               Psi4 1.4a3.dev225

  ==> Input File <==

--------------------------------------------------------------------------
#psi4
#
memory 32 gb

molecule  {
0 1
  O       -0.0000020    -0.6102900    -0.0000420
  C        0.9363500     0.4141040    -0.4566330
  C       -0.9363370     0.4140910     0.4566200
  C        0.0000010     1.5430250    -0.0000030
  C        2.2717190     0.2897090     0.2433650
  C       -2.2717330     0.2897190    -0.2433270
  C        2.9423460    -1.0479970    -0.0522250
  C       -2.9423440    -1.0480000     0.0522380
  H        1.0693000     0.3446630    -1.5460730
  H       -1.0692400     0.3446160     1.5460640
  H        0.4022720     2.1756970     0.7958000
  H       -0.4022820     2.1756850    -0.7958090
  H        2.1021510     0.3966190     1.3216110
  H        2.9117530     1.1256360    -0.0698640
  H       -2.1022070     0.3966710    -1.3215760
  H       -2.9117580     1.1256310     0.0699580
  H        2.2845910    -1.8662570     0.2495040
  H        3.1497060    -1.1530710    -1.1218230
  H        3.8888820    -1.1460650     0.4866090
  H       -3.1496440    -1.1531250     1.1218420
  H       -3.8889120    -1.1460430    -0.4865470
  H       -2.2966496    -1.8512656    -0.2440412
units angstrom
no_reorient  #important for SAPT in psi4, default
symmetry c1  #important for SAPT in psi4, default
}

set PROPERTIES_ORIGIN ["COM"]
properties('MP2/aug-cc-pvtz', properties = ['dipole'])
--------------------------------------------------------------------------

    Molecular point group: c1
  Charge       = 0
  Multiplicity = 1
  Basis Set: AUG-CC-PVTZ
    Blend: AUG-CC-PVTZ
  Basis Set: (AUG-CC-PVTZ AUX)
    Blend: AUG-CC-PVTZ-JKFIT

    Orbital Energies [Eh]
    ---------------------

    Doubly Occupied:

       1A    -20.538094     2A    -11.277002     3A    -11.276946
       4A    -11.224038     5A    -11.218834     6A    -11.218629
       7A    -11.207363     8A    -11.204986     9A     -1.365009
      10A     -1.059958    11A     -1.047529    12A     -0.994495
      13A     -0.913846    14A     -0.847834    15A     -0.805362
      16A     -0.736008    17A     -0.671943    18A     -0.664900
      19A     -0.607390    20A     -0.602528    21A     -0.584143
      22A     -0.558772    23A     -0.552501    24A     -0.522770
      25A     -0.521194    26A     -0.498444    27A     -0.492834
      28A     -0.480948    29A     -0.480512    30A     -0.446395
      31A     -0.432365    32A     -0.401618

  @DF-RHF Final Energy:  -348.18637226975142

   => Energetics <=

    Nuclear Repulsion Energy =            399.5877393875636585
    One-Electron Energy =               -1264.6378439527898081
    Two-Electron Energy =                 516.8637322954746196
    Total Energy =                       -348.1863722697514731
  Basis Set: (AUG-CC-PVTZ AUX)
    Blend: AUG-CC-PVTZ-RI
    Molecular point group: c1

    Geometry (in Angstrom), charge = 0, multiplicity = 1:

       Center              X                  Y                   Z               Mass
    ------------   -----------------  -----------------  -----------------  -----------------
         O            0.000104391844    -0.612584935934    -0.000089739259    15.994914619570
         C            0.936456391844     0.411809064066    -0.456680739259    12.000000000000
         C           -0.936230608156     0.411796064066     0.456572260741    12.000000000000
         C            0.000107391844     1.540730064066    -0.000050739259    12.000000000000
         C            2.271825391844     0.287414064066     0.243317260741    12.000000000000
         C           -2.271626608156     0.287424064066    -0.243374739259    12.000000000000
         C            2.942452391844    -1.050291935934    -0.052272739259    12.000000000000
         C           -2.942237608156    -1.050294935934     0.052190260741    12.000000000000
         H            1.069406391844     0.342368064066    -1.546120739259     1.007825032230
         H           -1.069133608156     0.342321064066     1.546016260741     1.007825032230
         H            0.402378391844     2.173402064066     0.795752260741     1.007825032230
         H           -0.402175608156     2.173390064066    -0.795856739259     1.007825032230
         H            2.102257391844     0.394324064066     1.321563260741     1.007825032230
         H            2.911859391844     1.123341064066    -0.069911739259     1.007825032230
         H           -2.102100608156     0.394376064066    -1.321623739259     1.007825032230
         H           -2.911651608156     1.123336064066     0.069910260741     1.007825032230
         H            2.284697391844    -1.868551935934     0.249456260741     1.007825032230
         H            3.149812391844    -1.155365935934    -1.121870739259     1.007825032230
         H            3.888988391844    -1.148359935934     0.486561260741     1.007825032230
         H           -3.149537608156    -1.155419935934     1.121794260741     1.007825032230
         H           -3.888805608156    -1.148337935934    -0.486594739259     1.007825032230
         H           -2.296543208156    -1.853560535934    -0.244088939259     1.007825032230

  Basis Set: AUG-CC-PVTZ
    Blend: AUG-CC-PVTZ
  Basis Set: (AUG-CC-PVTZ AUX)
    Blend: AUG-CC-PVTZ-JKFIT
	 Reference Energy          =    -348.1863722697514163 [Eh]
	 Singles Energy            =      -0.0000000000000000 [Eh]
	 Same-Spin Energy          =      -0.3609162620631014 [Eh]
	 Opposite-Spin Energy      =      -1.2613473321560380 [Eh]
	 Correlation Energy        =      -1.6222635942191395 [Eh]
	 Total Energy              =    -349.8086358639705509 [Eh]

	 ================> DF-SCS-MP2 Energies <==================
	-----------------------------------------------------------
	 SCS Same-Spin Scale       =       0.3333333333333333 [-]
	 SCS Opposite-Spin Scale   =       1.2000000000000000 [-]
	 SCS Same-Spin Energy      =      -0.1203054206877005 [Eh]
	 SCS Opposite-Spin Energy  =      -1.5136167985872455 [Eh]
	 SCS Correlation Energy    =      -1.6339222192749461 [Eh]
	 SCS Total Energy          =    -349.8202944890263666 [Eh]
	-----------------------------------------------------------

  Dipole Moment: [D]
     X:     0.0009      Y:     1.6990      Z:    -0.0016     Total:     1.6990

*** Psi4 exiting successfully. Buy a developer a beer!
