                               Psi4 1.4a3.dev225

  ==> Input File <==

--------------------------------------------------------------------------
#psi4
#
memory 32 gb

molecule  {
0 1
  O       -0.0000020    -0.6102900    -0.0000420
  C        0.9363500     0.4141040    -0.4566330
  C       -0.9484441     0.4106547     0.4798312
  C        0.0000010     1.5430250    -0.0000030
  C        2.2717190     0.2897090     0.2433650
  C       -2.2717330     0.2897190    -0.2433270
  C        2.9423460    -1.0479970    -0.0522250
  C       -2.9423440    -1.0480000     0.0522380
  H        1.0693000     0.3446630    -1.5460730
  H       -1.0692400     0.3446160     1.5460640
  H        0.4022720     2.1756970     0.7958000
  H       -0.4022820     2.1756850    -0.7958090
  H        2.1021510     0.3966190     1.3216110
  H        2.9117530     1.1256360    -0.0698640
  H       -2.1022070     0.3966710    -1.3215760
  H       -2.9117580     1.1256310     0.0699580
  H        2.2845910    -1.8662570     0.2495040
  H        3.1497060    -1.1530710    -1.1218230
  H        3.8888820    -1.1460650     0.4866090
  H       -3.1496440    -1.1531250     1.1218420
  H       -3.8889120    -1.1460430    -0.4865470
  H       -2.2846070    -1.8662470    -0.2495670
units angstrom
no_reorient  #important for SAPT in psi4, default
symmetry c1  #important for SAPT in psi4, default
}

set PROPERTIES_ORIGIN ["COM"]
properties('MP2/aug-cc-pvtz', properties = ['dipole'])
--------------------------------------------------------------------------

    Molecular point group: c1
  Charge       = 0
  Multiplicity = 1
  Basis Set: AUG-CC-PVTZ
    Blend: AUG-CC-PVTZ
  Basis Set: (AUG-CC-PVTZ AUX)
    Blend: AUG-CC-PVTZ-JKFIT

    Orbital Energies [Eh]
    ---------------------

    Doubly Occupied:

       1A    -20.536971     2A    -11.276515     3A    -11.275883
       4A    -11.224763     5A    -11.219249     6A    -11.218305
       7A    -11.207302     8A    -11.206919     9A     -1.359628
      10A     -1.059816    11A     -1.046346    12A     -0.991677
      13A     -0.913450    14A     -0.846651    15A     -0.806100
      16A     -0.738258    17A     -0.670520    18A     -0.663179
      19A     -0.605836    20A     -0.600956    21A     -0.583560
      22A     -0.561218    23A     -0.550494    24A     -0.521835
      25A     -0.520283    26A     -0.498613    27A     -0.491056
      28A     -0.482472    29A     -0.479631    30A     -0.442111
      31A     -0.432417    32A     -0.402922

  @DF-RHF Final Energy:  -348.18551912221329

   => Energetics <=

    Nuclear Repulsion Energy =            399.1561414771434215
    One-Electron Energy =               -1263.8134491477533174
    Two-Electron Energy =                 516.4717885483966029
    Total Energy =                       -348.1855191222133499
  Basis Set: (AUG-CC-PVTZ AUX)
    Blend: AUG-CC-PVTZ-RI
    Molecular point group: c1

    Geometry (in Angstrom), charge = 0, multiplicity = 1:

       Center              X                  Y                   Z               Mass
    ------------   -----------------  -----------------  -----------------  -----------------
         O            0.001271290669    -0.612091228436    -0.002481980091    15.994914619570
         C            0.937623290669     0.412302771564    -0.459072980091    12.000000000000
         C           -0.947170809331     0.408853471564     0.477391219909    12.000000000000
         C            0.001274290669     1.541223771564    -0.002442980091    12.000000000000
         C            2.272992290669     0.287907771564     0.240925019909    12.000000000000
         C           -2.270459709331     0.287917771564    -0.245766980091    12.000000000000
         C            2.943619290669    -1.049798228436    -0.054664980091    12.000000000000
         C           -2.941070709331    -1.049801228436     0.049798019909    12.000000000000
         H            1.070573290669     0.342861771564    -1.548512980091     1.007825032230
         H           -1.067966709331     0.342814771564     1.543624019909     1.007825032230
         H            0.403545290669     2.173895771564     0.793360019909     1.007825032230
         H           -0.401008709331     2.173883771564    -0.798248980091     1.007825032230
         H            2.103424290669     0.394817771564     1.319171019909     1.007825032230
         H            2.913026290669     1.123834771564    -0.072303980091     1.007825032230
         H           -2.100933709331     0.394869771564    -1.324015980091     1.007825032230
         H           -2.910484709331     1.123829771564     0.067518019909     1.007825032230
         H            2.285864290669    -1.868058228436     0.247064019909     1.007825032230
         H            3.150979290669    -1.154872228436    -1.124262980091     1.007825032230
         H            3.890155290669    -1.147866228436     0.484169019909     1.007825032230
         H           -3.148370709331    -1.154926228436     1.119402019909     1.007825032230
         H           -3.887638709331    -1.147844228436    -0.488986980091     1.007825032230
         H           -2.283333709331    -1.868048228436    -0.252006980091     1.007825032230

  Basis Set: AUG-CC-PVTZ
    Blend: AUG-CC-PVTZ
  Basis Set: (AUG-CC-PVTZ AUX)
    Blend: AUG-CC-PVTZ-JKFIT
	 Reference Energy          =    -348.1855191222132930 [Eh]
	 Singles Energy            =      -0.0000000000000000 [Eh]
	 Same-Spin Energy          =      -0.3608397527520426 [Eh]
	 Opposite-Spin Energy      =      -1.2616674650538406 [Eh]
	 Correlation Energy        =      -1.6225072178058833 [Eh]
	 Total Energy              =    -349.8080263400191825 [Eh]

	 ================> DF-SCS-MP2 Energies <==================
	-----------------------------------------------------------
	 SCS Same-Spin Scale       =       0.3333333333333333 [-]
	 SCS Opposite-Spin Scale   =       1.2000000000000000 [-]
	 SCS Same-Spin Energy      =      -0.1202799175840142 [Eh]
	 SCS Opposite-Spin Energy  =      -1.5140009580646088 [Eh]
	 SCS Correlation Energy    =      -1.6342808756486229 [Eh]
	 SCS Total Energy          =    -349.8197999978619350 [Eh]
	-----------------------------------------------------------

  Dipole Moment: [D]
     X:    -0.0546      Y:     1.7134      Z:     0.0407     Total:     1.7148

*** Psi4 exiting successfully. Buy a developer a beer!
