                               Psi4 1.4a3.dev225

  ==> Input File <==

--------------------------------------------------------------------------
#psi4
#
memory 32 gb

molecule  {
0 1
  O        0.0327018    -0.6460223    -0.0159906
  C        0.9363500     0.4141040    -0.4566330
  C       -0.9363370     0.4140910     0.4566200
  C        0.0000010     1.5430250    -0.0000030
  C        2.2717190     0.2897090     0.2433650
  C       -2.2717330     0.2897190    -0.2433270
  C        2.9423460    -1.0479970    -0.0522250
  C       -2.9423440    -1.0480000     0.0522380
  H        1.0693000     0.3446630    -1.5460730
  H       -1.0692400     0.3446160     1.5460640
  H        0.4022720     2.1756970     0.7958000
  H       -0.4022820     2.1756850    -0.7958090
  H        2.1021510     0.3966190     1.3216110
  H        2.9117530     1.1256360    -0.0698640
  H       -2.1022070     0.3966710    -1.3215760
  H       -2.9117580     1.1256310     0.0699580
  H        2.2845910    -1.8662570     0.2495040
  H        3.1497060    -1.1530710    -1.1218230
  H        3.8888820    -1.1460650     0.4866090
  H       -3.1496440    -1.1531250     1.1218420
  H       -3.8889120    -1.1460430    -0.4865470
  H       -2.2846070    -1.8662470    -0.2495670
units angstrom
no_reorient  #important for SAPT in psi4, default
symmetry c1  #important for SAPT in psi4, default
}

set PROPERTIES_ORIGIN ["COM"]
properties('MP2/aug-cc-pvtz', properties = ['dipole'])
--------------------------------------------------------------------------

    Molecular point group: c1
  Charge       = 0
  Multiplicity = 1
  Basis Set: AUG-CC-PVTZ
    Blend: AUG-CC-PVTZ
  Basis Set: (AUG-CC-PVTZ AUX)
    Blend: AUG-CC-PVTZ-JKFIT

    Orbital Energies [Eh]
    ---------------------

    Doubly Occupied:

       1A    -20.537761     2A    -11.283068     3A    -11.275636
       4A    -11.225888     5A    -11.221840     6A    -11.217110
       7A    -11.208508     8A    -11.205654     9A     -1.350397
      10A     -1.060019    11A     -1.048188    12A     -0.995781
      13A     -0.911095    14A     -0.847291    15A     -0.802601
      16A     -0.738263    17A     -0.667685    18A     -0.662166
      19A     -0.605391    20A     -0.601196    21A     -0.584314
      22A     -0.558612    23A     -0.547244    24A     -0.521446
      25A     -0.519609    26A     -0.497064    27A     -0.492220
      28A     -0.480996    29A     -0.479336    30A     -0.448425
      31A     -0.430565    32A     -0.403141

  @DF-RHF Final Energy:  -348.18229721569458

   => Energetics <=

    Nuclear Repulsion Energy =            398.5903146537449402
    One-Electron Energy =               -1262.6882020525563348
    Two-Electron Energy =                 515.9155901831168194
    Total Energy =                       -348.1822972156945752
  Basis Set: (AUG-CC-PVTZ AUX)
    Blend: AUG-CC-PVTZ-RI
    Molecular point group: c1

    Geometry (in Angstrom), charge = 0, multiplicity = 1:

       Center              X                  Y                   Z               Mass
    ------------   -----------------  -----------------  -----------------  -----------------
         O            0.028117478627    -0.643176037320    -0.013753892855    15.994914619570
         C            0.931765678627     0.416950262680    -0.454396292855    12.000000000000
         C           -0.940921321373     0.416937262680     0.458856707145    12.000000000000
         C           -0.004583321373     1.545871262680     0.002233707145    12.000000000000
         C            2.267134678627     0.292555262680     0.245601707145    12.000000000000
         C           -2.276317321373     0.292565262680    -0.241090292855    12.000000000000
         C            2.937761678627    -1.045150737320    -0.049988292855    12.000000000000
         C           -2.946928321373    -1.045153737320     0.054474707145    12.000000000000
         H            1.064715678627     0.347509262680    -1.543836292855     1.007825032230
         H           -1.073824321373     0.347462262680     1.548300707145     1.007825032230
         H            0.397687678627     2.178543262680     0.798036707145     1.007825032230
         H           -0.406866321373     2.178531262680    -0.793572292855     1.007825032230
         H            2.097566678627     0.399465262680     1.323847707145     1.007825032230
         H            2.907168678627     1.128482262680    -0.067627292855     1.007825032230
         H           -2.106791321373     0.399517262680    -1.319339292855     1.007825032230
         H           -2.916342321373     1.128477262680     0.072194707145     1.007825032230
         H            2.280006678627    -1.863410737320     0.251740707145     1.007825032230
         H            3.145121678627    -1.150224737320    -1.119586292855     1.007825032230
         H            3.884297678627    -1.143218737320     0.488845707145     1.007825032230
         H           -3.154228321373    -1.150278737320     1.124078707145     1.007825032230
         H           -3.893496321373    -1.143196737320    -0.484310292855     1.007825032230
         H           -2.289191321373    -1.863400737320    -0.247330292855     1.007825032230

  Basis Set: AUG-CC-PVTZ
    Blend: AUG-CC-PVTZ
  Basis Set: (AUG-CC-PVTZ AUX)
    Blend: AUG-CC-PVTZ-JKFIT
	 Reference Energy          =    -348.1822972156945752 [Eh]
	 Singles Energy            =      -0.0000000000000000 [Eh]
	 Same-Spin Energy          =      -0.3614537255973002 [Eh]
	 Opposite-Spin Energy      =      -1.2631230086417564 [Eh]
	 Correlation Energy        =      -1.6245767342390565 [Eh]
	 Total Energy              =    -349.8068739499336175 [Eh]

	 ================> DF-SCS-MP2 Energies <==================
	-----------------------------------------------------------
	 SCS Same-Spin Scale       =       0.3333333333333333 [-]
	 SCS Opposite-Spin Scale   =       1.2000000000000000 [-]
	 SCS Same-Spin Energy      =      -0.1204845751991001 [Eh]
	 SCS Opposite-Spin Energy  =      -1.5157476103701077 [Eh]
	 SCS Correlation Energy    =      -1.6362321855692077 [Eh]
	 SCS Total Energy          =    -349.8185294012637883 [Eh]
	-----------------------------------------------------------

  Dipole Moment: [D]
     X:    -0.1888      Y:     1.8072      Z:     0.0523     Total:     1.8178

*** Psi4 exiting successfully. Buy a developer a beer!
