                               Psi4 1.4a3.dev225

  ==> Input File <==

--------------------------------------------------------------------------
#psi4
#
memory 32 gb

molecule  {
0 1
  O       -0.0000020    -0.6102900    -0.0000420
  C        0.9363500     0.4141040    -0.4566330
  C       -0.9363370     0.4140910     0.4566200
  C        0.0000010     1.5430250    -0.0000030
  C        2.2727487     0.2956880     0.2174442
  C       -2.2717330     0.2897190    -0.2433270
  C        2.9423460    -1.0479970    -0.0522250
  C       -2.9423440    -1.0480000     0.0522380
  H        1.0693000     0.3446630    -1.5460730
  H       -1.0692400     0.3446160     1.5460640
  H        0.4022720     2.1756970     0.7958000
  H       -0.4022820     2.1756850    -0.7958090
  H        2.1021510     0.3966190     1.3216110
  H        2.9117530     1.1256360    -0.0698640
  H       -2.1022070     0.3966710    -1.3215760
  H       -2.9117580     1.1256310     0.0699580
  H        2.2845910    -1.8662570     0.2495040
  H        3.1497060    -1.1530710    -1.1218230
  H        3.8888820    -1.1460650     0.4866090
  H       -3.1496440    -1.1531250     1.1218420
  H       -3.8889120    -1.1460430    -0.4865470
  H       -2.2846070    -1.8662470    -0.2495670
units angstrom
no_reorient  #important for SAPT in psi4, default
symmetry c1  #important for SAPT in psi4, default
}

set PROPERTIES_ORIGIN ["COM"]
properties('MP2/aug-cc-pvtz', properties = ['dipole'])
--------------------------------------------------------------------------

    Molecular point group: c1
  Charge       = 0
  Multiplicity = 1
  Basis Set: AUG-CC-PVTZ
    Blend: AUG-CC-PVTZ
  Basis Set: (AUG-CC-PVTZ AUX)
    Blend: AUG-CC-PVTZ-JKFIT

    Orbital Energies [Eh]
    ---------------------

    Doubly Occupied:

       1A    -20.538604     2A    -11.277107     3A    -11.276675
       4A    -11.224240     5A    -11.219464     6A    -11.218881
       7A    -11.207599     8A    -11.207405     9A     -1.365296
      10A     -1.060686    11A     -1.048053    12A     -0.994281
      13A     -0.913918    14A     -0.847770    15A     -0.804302
      16A     -0.735741    17A     -0.672871    18A     -0.664952
      19A     -0.607033    20A     -0.602809    21A     -0.583900
      22A     -0.558337    23A     -0.552138    24A     -0.522236
      25A     -0.522151    26A     -0.497758    27A     -0.493242
      28A     -0.481463    29A     -0.476137    30A     -0.446615
      31A     -0.432571    32A     -0.402402

  @DF-RHF Final Energy:  -348.18545619295674

   => Energetics <=

    Nuclear Repulsion Energy =            399.5975492899385131
    One-Electron Energy =               -1264.6527378237881294
    Two-Electron Energy =                 516.8697323408928241
    Total Energy =                       -348.1854561929567353
  Basis Set: (AUG-CC-PVTZ AUX)
    Blend: AUG-CC-PVTZ-RI
    Molecular point group: c1

    Geometry (in Angstrom), charge = 0, multiplicity = 1:

       Center              X                  Y                   Z               Mass
    ------------   -----------------  -----------------  -----------------  -----------------
         O           -0.000110264381    -0.613081405288     0.002685074500    15.994914619570
         C            0.936241735619     0.411312594712    -0.453905925500    12.000000000000
         C           -0.936445264381     0.411299594712     0.459347074500    12.000000000000
         C           -0.000107264381     1.540233594712     0.002724074500    12.000000000000
         C            2.272640435619     0.292896594712     0.220171274500    12.000000000000
         C           -2.271841264381     0.286927594712    -0.240599925500    12.000000000000
         C            2.942237735619    -1.050788405288    -0.049497925500    12.000000000000
         C           -2.942452264381    -1.050791405288     0.054965074500    12.000000000000
         H            1.069191735619     0.341871594712    -1.543345925500     1.007825032230
         H           -1.069348264381     0.341824594712     1.548791074500     1.007825032230
         H            0.402163735619     2.172905594712     0.798527074500     1.007825032230
         H           -0.402390264381     2.172893594712    -0.793081925500     1.007825032230
         H            2.102042735619     0.393827594712     1.324338074500     1.007825032230
         H            2.911644735619     1.122844594712    -0.067136925500     1.007825032230
         H           -2.102315264381     0.393879594712    -1.318848925500     1.007825032230
         H           -2.911866264381     1.122839594712     0.072685074500     1.007825032230
         H            2.284482735619    -1.869048405288     0.252231074500     1.007825032230
         H            3.149597735619    -1.155862405288    -1.119095925500     1.007825032230
         H            3.888773735619    -1.148856405288     0.489336074500     1.007825032230
         H           -3.149752264381    -1.155916405288     1.124569074500     1.007825032230
         H           -3.889020264381    -1.148834405288    -0.483819925500     1.007825032230
         H           -2.284715264381    -1.869038405288    -0.246839925500     1.007825032230

  Basis Set: AUG-CC-PVTZ
    Blend: AUG-CC-PVTZ
  Basis Set: (AUG-CC-PVTZ AUX)
    Blend: AUG-CC-PVTZ-JKFIT
	 Reference Energy          =    -348.1854561929567353 [Eh]
	 Singles Energy            =      -0.0000000000000000 [Eh]
	 Same-Spin Energy          =      -0.3610073475627176 [Eh]
	 Opposite-Spin Energy      =      -1.2615759873430052 [Eh]
	 Correlation Energy        =      -1.6225833349057228 [Eh]
	 Total Energy              =    -349.8080395278624337 [Eh]

	 ================> DF-SCS-MP2 Energies <==================
	-----------------------------------------------------------
	 SCS Same-Spin Scale       =       0.3333333333333333 [-]
	 SCS Opposite-Spin Scale   =       1.2000000000000000 [-]
	 SCS Same-Spin Energy      =      -0.1203357825209059 [Eh]
	 SCS Opposite-Spin Energy  =      -1.5138911848116063 [Eh]
	 SCS Correlation Energy    =      -1.6342269673325123 [Eh]
	 SCS Total Energy          =    -349.8196831602892303 [Eh]
	-----------------------------------------------------------

  Dipole Moment: [D]
     X:     0.0084      Y:     1.7118      Z:    -0.0086     Total:     1.7118

*** Psi4 exiting successfully. Buy a developer a beer!
