                               Psi4 1.4a3.dev225

  ==> Input File <==

--------------------------------------------------------------------------
#psi4
#
memory 32 gb

molecule  {
0 1
  O       -0.0000020    -0.6102900    -0.0000420
  C        0.9363500     0.4141040    -0.4566330
  C       -0.9363370     0.4140910     0.4566200
  C        0.0000010     1.5430250    -0.0000030
  C        2.2717190     0.2897090     0.2433650
  C       -2.2717330     0.2897190    -0.2433270
  C        2.9423460    -1.0479970    -0.0522250
  C       -2.9423440    -1.0480000     0.0522380
  H        1.0693000     0.3446630    -1.5460730
  H       -1.0692400     0.3446160     1.5460640
  H        0.4022720     2.1756970     0.7958000
  H       -0.4022820     2.1756850    -0.7958090
  H        2.1021510     0.3966190     1.3216110
  H        2.9117530     1.1256360    -0.0698640
  H       -2.1022070     0.3966710    -1.3215760
  H       -2.9117580     1.1256310     0.0699580
  H        2.2845910    -1.8662570     0.2495040
  H        3.1497060    -1.1530710    -1.1218230
  H        3.8888820    -1.1460650     0.4866090
  H       -3.1496440    -1.1531250     1.1218420
  H       -3.8889120    -1.1460430    -0.4865470
  H       -2.2243941    -1.9411539    -0.2771959
units angstrom
no_reorient  #important for SAPT in psi4, default
symmetry c1  #important for SAPT in psi4, default
}

set PROPERTIES_ORIGIN ["COM"]
properties('MP2/aug-cc-pvtz', properties = ['dipole'])
--------------------------------------------------------------------------

    Molecular point group: c1
  Charge       = 0
  Multiplicity = 1
  Basis Set: AUG-CC-PVTZ
    Blend: AUG-CC-PVTZ
  Basis Set: (AUG-CC-PVTZ AUX)
    Blend: AUG-CC-PVTZ-JKFIT

    Orbital Energies [Eh]
    ---------------------

    Doubly Occupied:

       1A    -20.538000     2A    -11.277278     3A    -11.276942
       4A    -11.224226     5A    -11.220048     6A    -11.218810
       7A    -11.218738     8A    -11.207320     9A     -1.364940
      10A     -1.059165    11A     -1.046995    12A     -0.993145
      13A     -0.910718    14A     -0.844294    15A     -0.803855
      16A     -0.735992    17A     -0.670797    18A     -0.665064
      19A     -0.607709    20A     -0.598292    21A     -0.584055
      22A     -0.559378    23A     -0.548655    24A     -0.522070
      25A     -0.518794    26A     -0.498845    27A     -0.488198
      28A     -0.480859    29A     -0.474504    30A     -0.444938
      31A     -0.432710    32A     -0.401743

  @DF-RHF Final Energy:  -348.17977625954239

   => Energetics <=

    Nuclear Repulsion Energy =            399.1785472597681519
    One-Electron Energy =               -1263.8424945916506204
    Two-Electron Energy =                 516.4841710723401320
    Total Energy =                       -348.1797762595423364
  Basis Set: (AUG-CC-PVTZ AUX)
    Blend: AUG-CC-PVTZ-RI
    Molecular point group: c1

    Geometry (in Angstrom), charge = 0, multiplicity = 1:

       Center              X                  Y                   Z               Mass
    ------------   -----------------  -----------------  -----------------  -----------------
         O           -0.000533803178    -0.611790999616     0.000203098857    15.994914619570
         C            0.935818196822     0.412603000384    -0.456387901143    12.000000000000
         C           -0.936868803178     0.412590000384     0.456865098857    12.000000000000
         C           -0.000530803178     1.541524000384     0.000242098857    12.000000000000
         C            2.271187196822     0.288208000384     0.243610098857    12.000000000000
         C           -2.272264803178     0.288218000384    -0.243081901143    12.000000000000
         C            2.941814196822    -1.049497999616    -0.051979901143    12.000000000000
         C           -2.942875803178    -1.049500999616     0.052483098857    12.000000000000
         H            1.068768196822     0.343162000384    -1.545827901143     1.007825032230
         H           -1.069771803178     0.343115000384     1.546309098857     1.007825032230
         H            0.401740196822     2.174196000384     0.796045098857     1.007825032230
         H           -0.402813803178     2.174184000384    -0.795563901143     1.007825032230
         H            2.101619196822     0.395118000384     1.321856098857     1.007825032230
         H            2.911221196822     1.124135000384    -0.069618901143     1.007825032230
         H           -2.102738803178     0.395170000384    -1.321330901143     1.007825032230
         H           -2.912289803178     1.124130000384     0.070203098857     1.007825032230
         H            2.284059196822    -1.867757999616     0.249749098857     1.007825032230
         H            3.149174196822    -1.154571999616    -1.121577901143     1.007825032230
         H            3.888350196822    -1.147565999616     0.486854098857     1.007825032230
         H           -3.150175803178    -1.154625999616     1.122087098857     1.007825032230
         H           -3.889443803178    -1.147543999616    -0.486301901143     1.007825032230
         H           -2.224925903178    -1.942654899616    -0.276950801143     1.007825032230

  Basis Set: AUG-CC-PVTZ
    Blend: AUG-CC-PVTZ
  Basis Set: (AUG-CC-PVTZ AUX)
    Blend: AUG-CC-PVTZ-JKFIT
	 Reference Energy          =    -348.1797762595423933 [Eh]
	 Singles Energy            =      -0.0000000000000000 [Eh]
	 Same-Spin Energy          =      -0.3609683629412957 [Eh]
	 Opposite-Spin Energy      =      -1.2622336289465697 [Eh]
	 Correlation Energy        =      -1.6232019918878653 [Eh]
	 Total Energy              =    -349.8029782514302610 [Eh]

	 ================> DF-SCS-MP2 Energies <==================
	-----------------------------------------------------------
	 SCS Same-Spin Scale       =       0.3333333333333333 [-]
	 SCS Opposite-Spin Scale   =       1.2000000000000000 [-]
	 SCS Same-Spin Energy      =      -0.1203227876470986 [Eh]
	 SCS Opposite-Spin Energy  =      -1.5146803547358836 [Eh]
	 SCS Correlation Energy    =      -1.6350031423829821 [Eh]
	 SCS Total Energy          =    -349.8147794019253638 [Eh]
	-----------------------------------------------------------

  Dipole Moment: [D]
     X:    -0.0069      Y:     1.7563      Z:     0.0100     Total:     1.7563

*** Psi4 exiting successfully. Buy a developer a beer!
