                               Psi4 1.4a3.dev225

  ==> Input File <==

--------------------------------------------------------------------------
#psi4
#
memory 32 gb

molecule  {
0 1
  O       -0.0000020    -0.6102900    -0.0000420
  C        0.9363500     0.4141040    -0.4566330
  C       -0.9363370     0.4140910     0.4566200
  C        0.0000010     1.5430250    -0.0000030
  C        2.2717190     0.2897090     0.2433650
  C       -2.2717330     0.2897190    -0.2433270
  C        2.9423460    -1.0479970    -0.0522250
  C       -2.9423440    -1.0480000     0.0522380
  H        1.0693000     0.3446630    -1.5460730
  H       -1.0692400     0.3446160     1.5460640
  H        0.4022720     2.1756970     0.7958000
  H       -0.4022820     2.1756850    -0.7958090
  H        2.1021510     0.3966190     1.3216110
  H        2.9117530     1.1256360    -0.0698640
  H       -2.1022070     0.3966710    -1.3215760
  H       -2.9234115     1.1408513     0.0756623
  H        2.2845910    -1.8662570     0.2495040
  H        3.1497060    -1.1530710    -1.1218230
  H        3.8888820    -1.1460650     0.4866090
  H       -3.1496440    -1.1531250     1.1218420
  H       -3.8889120    -1.1460430    -0.4865470
  H       -2.2846070    -1.8662470    -0.2495670
units angstrom
no_reorient  #important for SAPT in psi4, default
symmetry c1  #important for SAPT in psi4, default
}

set PROPERTIES_ORIGIN ["COM"]
properties('MP2/aug-cc-pvtz', properties = ['dipole'])
--------------------------------------------------------------------------

    Molecular point group: c1
  Charge       = 0
  Multiplicity = 1
  Basis Set: AUG-CC-PVTZ
    Blend: AUG-CC-PVTZ
  Basis Set: (AUG-CC-PVTZ AUX)
    Blend: AUG-CC-PVTZ-JKFIT

    Orbital Energies [Eh]
    ---------------------

    Doubly Occupied:

       1A    -20.538283     2A    -11.277190     3A    -11.277073
       4A    -11.224102     5A    -11.221349     6A    -11.218892
       7A    -11.207599     8A    -11.207412     9A     -1.365172
      10A     -1.059471    11A     -1.047102    12A     -0.994206
      13A     -0.913318    14A     -0.846717    15A     -0.804453
      16A     -0.735847    17A     -0.670927    18A     -0.665037
      19A     -0.607510    20A     -0.600564    21A     -0.584187
      22A     -0.558967    23A     -0.551749    24A     -0.522283
      25A     -0.521187    26A     -0.498525    27A     -0.491383
      28A     -0.480701    29A     -0.479277    30A     -0.446223
      31A     -0.432515    32A     -0.401774

  @DF-RHF Final Energy:  -348.18583991615753

   => Energetics <=

    Nuclear Repulsion Energy =            399.4185776688100304
    One-Electron Energy =               -1264.3068537512842795
    Two-Electron Energy =                 516.7024361663167156
    Total Energy =                       -348.1858399161575335
  Basis Set: (AUG-CC-PVTZ AUX)
    Blend: AUG-CC-PVTZ-RI
    Molecular point group: c1

    Geometry (in Angstrom), charge = 0, multiplicity = 1:

       Center              X                  Y                   Z               Mass
    ------------   -----------------  -----------------  -----------------  -----------------
         O            0.000100955127    -0.612587046012    -0.000091315856    15.994914619570
         C            0.936452955127     0.411806953988    -0.456682315856    12.000000000000
         C           -0.936234044873     0.411793953988     0.456570684144    12.000000000000
         C            0.000103955127     1.540727953988    -0.000052315856    12.000000000000
         C            2.271821955127     0.287411953988     0.243315684144    12.000000000000
         C           -2.271630044873     0.287421953988    -0.243376315856    12.000000000000
         C            2.942448955127    -1.050294046012    -0.052274315856    12.000000000000
         C           -2.942241044873    -1.050297046012     0.052188684144    12.000000000000
         H            1.069402955127     0.342365953988    -1.546122315856     1.007825032230
         H           -1.069137044873     0.342318953988     1.546014684144     1.007825032230
         H            0.402374955127     2.173399953988     0.795750684144     1.007825032230
         H           -0.402179044873     2.173387953988    -0.795858315856     1.007825032230
         H            2.102253955127     0.394321953988     1.321561684144     1.007825032230
         H            2.911855955127     1.123338953988    -0.069913315856     1.007825032230
         H           -2.102104044873     0.394373953988    -1.321625315856     1.007825032230
         H           -2.923308544873     1.138554253988     0.075612984144     1.007825032230
         H            2.284693955127    -1.868554046012     0.249454684144     1.007825032230
         H            3.149808955127    -1.155368046012    -1.121872315856     1.007825032230
         H            3.888984955127    -1.148362046012     0.486559684144     1.007825032230
         H           -3.149541044873    -1.155422046012     1.121792684144     1.007825032230
         H           -3.888809044873    -1.148340046012    -0.486596315856     1.007825032230
         H           -2.284504044873    -1.868544046012    -0.249616315856     1.007825032230

  Basis Set: AUG-CC-PVTZ
    Blend: AUG-CC-PVTZ
  Basis Set: (AUG-CC-PVTZ AUX)
    Blend: AUG-CC-PVTZ-JKFIT
	 Reference Energy          =    -348.1858399161575335 [Eh]
	 Singles Energy            =      -0.0000000000000000 [Eh]
	 Same-Spin Energy          =      -0.3609217523514915 [Eh]
	 Opposite-Spin Energy      =      -1.2616017654705474 [Eh]
	 Correlation Energy        =      -1.6225235178220387 [Eh]
	 Total Energy              =    -349.8083634339795935 [Eh]

	 ================> DF-SCS-MP2 Energies <==================
	-----------------------------------------------------------
	 SCS Same-Spin Scale       =       0.3333333333333333 [-]
	 SCS Opposite-Spin Scale   =       1.2000000000000000 [-]
	 SCS Same-Spin Energy      =      -0.1203072507838305 [Eh]
	 SCS Opposite-Spin Energy  =      -1.5139221185646567 [Eh]
	 SCS Correlation Energy    =      -1.6342293693484873 [Eh]
	 SCS Total Energy          =    -349.8200692855060083 [Eh]
	-----------------------------------------------------------

  Dipole Moment: [D]
     X:     0.0089      Y:     1.6949      Z:    -0.0022     Total:     1.6949

*** Psi4 exiting successfully. Buy a developer a beer!
