                               Psi4 1.4a3.dev225

  ==> Input File <==

--------------------------------------------------------------------------
#psi4
#
memory 32 gb

molecule  {
0 1
  O       -0.0000020    -0.6102900    -0.0000420
  C        0.9363500     0.4141040    -0.4566330
  C       -0.9363370     0.4140910     0.4566200
  C        0.0000010     1.5430250    -0.0000030
  C        2.2717190     0.2897090     0.2433650
  C       -2.2717330     0.2897190    -0.2433270
  C        2.9423460    -1.0479970    -0.0522250
  C       -2.9423440    -1.0480000     0.0522380
  H        1.0693000     0.3446630    -1.5460730
  H       -1.0692400     0.3446160     1.5460640
  H        0.4022720     2.1756970     0.7958000
  H       -0.4022820     2.1756850    -0.7958090
  H        2.1675199     0.4908434     1.3164377
  H        2.9117530     1.1256360    -0.0698640
  H       -2.1022070     0.3966710    -1.3215760
  H       -2.9117580     1.1256310     0.0699580
  H        2.2845910    -1.8662570     0.2495040
  H        3.1497060    -1.1530710    -1.1218230
  H        3.8888820    -1.1460650     0.4866090
  H       -3.1496440    -1.1531250     1.1218420
  H       -3.8889120    -1.1460430    -0.4865470
  H       -2.2846070    -1.8662470    -0.2495670
units angstrom
no_reorient  #important for SAPT in psi4, default
symmetry c1  #important for SAPT in psi4, default
}

set PROPERTIES_ORIGIN ["COM"]
properties('MP2/aug-cc-pvtz', properties = ['dipole'])
--------------------------------------------------------------------------

    Molecular point group: c1
  Charge       = 0
  Multiplicity = 1
  Basis Set: AUG-CC-PVTZ
    Blend: AUG-CC-PVTZ
  Basis Set: (AUG-CC-PVTZ AUX)
    Blend: AUG-CC-PVTZ-JKFIT

    Orbital Energies [Eh]
    ---------------------

    Doubly Occupied:

       1A    -20.537755     2A    -11.277566     3A    -11.276840
       4A    -11.224155     5A    -11.218742     6A    -11.218730
       7A    -11.208076     8A    -11.207272     9A     -1.364735
      10A     -1.059386    11A     -1.047244    12A     -0.994079
      13A     -0.913217    14A     -0.847675    15A     -0.806250
      16A     -0.736886    17A     -0.671385    18A     -0.664658
      19A     -0.606859    20A     -0.599031    21A     -0.584431
      22A     -0.559130    23A     -0.551497    24A     -0.522485
      25A     -0.521759    26A     -0.501232    27A     -0.491427
      28A     -0.481855    29A     -0.475757    30A     -0.446059
      31A     -0.432241    32A     -0.401961

  @DF-RHF Final Energy:  -348.18519049822783

   => Energetics <=

    Nuclear Repulsion Energy =            399.3704777898286693
    One-Electron Energy =               -1264.2105806731692610
    Two-Electron Energy =                 516.6549123851127661
    Total Energy =                       -348.1851904982278256
  Basis Set: (AUG-CC-PVTZ AUX)
    Blend: AUG-CC-PVTZ-RI
    Molecular point group: c1

    Geometry (in Angstrom), charge = 0, multiplicity = 1:

       Center              X                  Y                   Z               Mass
    ------------   -----------------  -----------------  -----------------  -----------------
         O           -0.000579343428    -0.613284847887     0.000004760293    15.994914619570
         C            0.935772656572     0.411109152113    -0.456586239707    12.000000000000
         C           -0.936914343428     0.411096152113     0.456666760293    12.000000000000
         C           -0.000576343428     1.540030152113     0.000043760293    12.000000000000
         C            2.271141656572     0.286714152113     0.243411760293    12.000000000000
         C           -2.272310343428     0.286724152113    -0.243280239707    12.000000000000
         C            2.941768656572    -1.050991847887    -0.052178239707    12.000000000000
         C           -2.942921343428    -1.050994847887     0.052284760293    12.000000000000
         H            1.068722656572     0.341668152113    -1.546026239707     1.007825032230
         H           -1.069817343428     0.341621152113     1.546110760293     1.007825032230
         H            0.401694656572     2.172702152113     0.795846760293     1.007825032230
         H           -0.402859343428     2.172690152113    -0.795762239707     1.007825032230
         H            2.166942556572     0.487848552113     1.316484460293     1.007825032230
         H            2.911175656572     1.122641152113    -0.069817239707     1.007825032230
         H           -2.102784343428     0.393676152113    -1.321529239707     1.007825032230
         H           -2.912335343428     1.122636152113     0.070004760293     1.007825032230
         H            2.284013656572    -1.869251847887     0.249550760293     1.007825032230
         H            3.149128656572    -1.156065847887    -1.121776239707     1.007825032230
         H            3.888304656572    -1.149059847887     0.486655760293     1.007825032230
         H           -3.150221343428    -1.156119847887     1.121888760293     1.007825032230
         H           -3.889489343428    -1.149037847887    -0.486500239707     1.007825032230
         H           -2.285184343428    -1.869241847887    -0.249520239707     1.007825032230

  Basis Set: AUG-CC-PVTZ
    Blend: AUG-CC-PVTZ
  Basis Set: (AUG-CC-PVTZ AUX)
    Blend: AUG-CC-PVTZ-JKFIT
	 Reference Energy          =    -348.1851904982278256 [Eh]
	 Singles Energy            =      -0.0000000000000000 [Eh]
	 Same-Spin Energy          =      -0.3609176950931368 [Eh]
	 Opposite-Spin Energy      =      -1.2614132457105061 [Eh]
	 Correlation Energy        =      -1.6223309408036428 [Eh]
	 Total Energy              =    -349.8075214390314613 [Eh]

	 ================> DF-SCS-MP2 Energies <==================
	-----------------------------------------------------------
	 SCS Same-Spin Scale       =       0.3333333333333333 [-]
	 SCS Opposite-Spin Scale   =       1.2000000000000000 [-]
	 SCS Same-Spin Energy      =      -0.1203058983643789 [Eh]
	 SCS Opposite-Spin Energy  =      -1.5136958948526071 [Eh]
	 SCS Correlation Energy    =      -1.6340017932169861 [Eh]
	 SCS Total Energy          =    -349.8191922914448355 [Eh]
	-----------------------------------------------------------

  Dipole Moment: [D]
     X:     0.0232      Y:     1.7255      Z:     0.0042     Total:     1.7257

*** Psi4 exiting successfully. Buy a developer a beer!
