                               Psi4 1.4a3.dev225

  ==> Input File <==

--------------------------------------------------------------------------
#psi4
#
memory 32 gb

molecule  {
0 1
  O       -0.0000020    -0.6102900    -0.0000420
  C        0.9363500     0.4141040    -0.4566330
  C       -0.9363370     0.4140910     0.4566200
  C        0.0000010     1.5430250    -0.0000030
  C        2.2698374     0.2453505     0.3967247
  C       -2.2717330     0.2897190    -0.2433270
  C        2.9423460    -1.0479970    -0.0522250
  C       -2.9423440    -1.0480000     0.0522380
  H        1.0693000     0.3446630    -1.5460730
  H       -1.0692400     0.3446160     1.5460640
  H        0.4022720     2.1756970     0.7958000
  H       -0.4022820     2.1756850    -0.7958090
  H        2.1021510     0.3966190     1.3216110
  H        2.9117530     1.1256360    -0.0698640
  H       -2.1022070     0.3966710    -1.3215760
  H       -2.9117580     1.1256310     0.0699580
  H        2.2845910    -1.8662570     0.2495040
  H        3.1497060    -1.1530710    -1.1218230
  H        3.8888820    -1.1460650     0.4866090
  H       -3.1496440    -1.1531250     1.1218420
  H       -3.8889120    -1.1460430    -0.4865470
  H       -2.2846070    -1.8662470    -0.2495670
units angstrom
no_reorient  #important for SAPT in psi4, default
symmetry c1  #important for SAPT in psi4, default
}

set PROPERTIES_ORIGIN ["COM"]
properties('MP2/aug-cc-pvtz', properties = ['dipole'])
--------------------------------------------------------------------------

    Molecular point group: c1
  Charge       = 0
  Multiplicity = 1
  Basis Set: AUG-CC-PVTZ
    Blend: AUG-CC-PVTZ
  Basis Set: (AUG-CC-PVTZ AUX)
    Blend: AUG-CC-PVTZ-JKFIT

    Orbital Energies [Eh]
    ---------------------

    Doubly Occupied:

       1A    -20.535542     2A    -11.280729     3A    -11.276539
       4A    -11.223445     5A    -11.219436     6A    -11.218701
       7A    -11.208449     8A    -11.207223     9A     -1.363591
      10A     -1.056651    11A     -1.043819    12A     -0.994510
      13A     -0.909840    14A     -0.847510    15A     -0.813611
      16A     -0.739089    17A     -0.666948    18A     -0.664414
      19A     -0.612749    20A     -0.594184    21A     -0.586531
      22A     -0.562219    23A     -0.550013    24A     -0.534614
      25A     -0.522023    26A     -0.508377    27A     -0.486578
      28A     -0.485335    29A     -0.464896    30A     -0.442749
      31A     -0.429239    32A     -0.391688

  @DF-RHF Final Energy:  -348.15478548172558

   => Energetics <=

    Nuclear Repulsion Energy =            398.9096249624712982
    One-Electron Energy =               -1263.2463409783388215
    Two-Electron Energy =                 516.1819305341418840
    Total Energy =                       -348.1547854817256393
  Basis Set: (AUG-CC-PVTZ AUX)
    Blend: AUG-CC-PVTZ-RI
    Molecular point group: c1

    Geometry (in Angstrom), charge = 0, multiplicity = 1:

       Center              X                  Y                   Z               Mass
    ------------   -----------------  -----------------  -----------------  -----------------
         O            0.000195907687    -0.607787572136    -0.016169279698    15.994914619570
         C            0.936547907687     0.416606427864    -0.472760279698    12.000000000000
         C           -0.936139092313     0.416593427864     0.440492720302    12.000000000000
         C            0.000198907687     1.545527427864    -0.016130279698    12.000000000000
         C            2.270035307687     0.247852927864     0.380597420302    12.000000000000
         C           -2.271535092313     0.292221427864    -0.259454279698    12.000000000000
         C            2.942543907687    -1.045494572136    -0.068352279698    12.000000000000
         C           -2.942146092313    -1.045497572136     0.036110720302    12.000000000000
         H            1.069497907687     0.347165427864    -1.562200279698     1.007825032230
         H           -1.069042092313     0.347118427864     1.529936720302     1.007825032230
         H            0.402469907687     2.178199427864     0.779672720302     1.007825032230
         H           -0.402084092313     2.178187427864    -0.811936279698     1.007825032230
         H            2.102348907687     0.399121427864     1.305483720302     1.007825032230
         H            2.911950907687     1.128138427864    -0.085991279698     1.007825032230
         H           -2.102009092313     0.399173427864    -1.337703279698     1.007825032230
         H           -2.911560092313     1.128133427864     0.053830720302     1.007825032230
         H            2.284788907687    -1.863754572136     0.233376720302     1.007825032230
         H            3.149903907687    -1.150568572136    -1.137950279698     1.007825032230
         H            3.889079907687    -1.143562572136     0.470481720302     1.007825032230
         H           -3.149446092313    -1.150622572136     1.105714720302     1.007825032230
         H           -3.888714092313    -1.143540572136    -0.502674279698     1.007825032230
         H           -2.284409092313    -1.863744572136    -0.265694279698     1.007825032230

  Basis Set: AUG-CC-PVTZ
    Blend: AUG-CC-PVTZ
  Basis Set: (AUG-CC-PVTZ AUX)
    Blend: AUG-CC-PVTZ-JKFIT
	 Reference Energy          =    -348.1547854817255825 [Eh]
	 Singles Energy            =      -0.0000000000000000 [Eh]
	 Same-Spin Energy          =      -0.3610372970208336 [Eh]
	 Opposite-Spin Energy      =      -1.2626766299188983 [Eh]
	 Correlation Energy        =      -1.6237139269397320 [Eh]
	 Total Energy              =    -349.7784994086653114 [Eh]

	 ================> DF-SCS-MP2 Energies <==================
	-----------------------------------------------------------
	 SCS Same-Spin Scale       =       0.3333333333333333 [-]
	 SCS Opposite-Spin Scale   =       1.2000000000000000 [-]
	 SCS Same-Spin Energy      =      -0.1203457656736112 [Eh]
	 SCS Opposite-Spin Energy  =      -1.5152119559026780 [Eh]
	 SCS Correlation Energy    =      -1.6355577215762891 [Eh]
	 SCS Total Energy          =    -349.7903432033018589 [Eh]
	-----------------------------------------------------------

  Dipole Moment: [D]
     X:    -0.0717      Y:     1.6393      Z:     0.0066     Total:     1.6409

*** Psi4 exiting successfully. Buy a developer a beer!
