                               Psi4 1.4a3.dev225

  ==> Input File <==

--------------------------------------------------------------------------
#psi4
#
memory 32 gb

molecule  {
0 1
  O       -0.0000020    -0.6102900    -0.0000420
  C        0.9363500     0.4141040    -0.4566330
  C       -0.9363370     0.4140910     0.4566200
  C       -0.0121899     1.5577232     0.0059422
  C        2.2717190     0.2897090     0.2433650
  C       -2.2717330     0.2897190    -0.2433270
  C        2.9423460    -1.0479970    -0.0522250
  C       -2.9423440    -1.0480000     0.0522380
  H        1.0693000     0.3446630    -1.5460730
  H       -1.0692400     0.3446160     1.5460640
  H        0.4022720     2.1756970     0.7958000
  H       -0.4022820     2.1756850    -0.7958090
  H        2.1021510     0.3966190     1.3216110
  H        2.9117530     1.1256360    -0.0698640
  H       -2.1022070     0.3966710    -1.3215760
  H       -2.9117580     1.1256310     0.0699580
  H        2.2845910    -1.8662570     0.2495040
  H        3.1497060    -1.1530710    -1.1218230
  H        3.8888820    -1.1460650     0.4866090
  H       -3.1496440    -1.1531250     1.1218420
  H       -3.8889120    -1.1460430    -0.4865470
  H       -2.2846070    -1.8662470    -0.2495670
units angstrom
no_reorient  #important for SAPT in psi4, default
symmetry c1  #important for SAPT in psi4, default
}

set PROPERTIES_ORIGIN ["COM"]
properties('MP2/aug-cc-pvtz', properties = ['dipole'])
--------------------------------------------------------------------------

    Molecular point group: c1
  Charge       = 0
  Multiplicity = 1
  Basis Set: AUG-CC-PVTZ
    Blend: AUG-CC-PVTZ
  Basis Set: (AUG-CC-PVTZ AUX)
    Blend: AUG-CC-PVTZ-JKFIT

    Orbital Energies [Eh]
    ---------------------

    Doubly Occupied:

       1A    -20.538368     2A    -11.278104     3A    -11.277460
       4A    -11.223645     5A    -11.218846     6A    -11.218750
       7A    -11.207406     8A    -11.207232     9A     -1.364050
      10A     -1.059545    11A     -1.046933    12A     -0.993197
      13A     -0.912591    14A     -0.847378    15A     -0.804717
      16A     -0.737067    17A     -0.671651    18A     -0.663922
      19A     -0.607527    20A     -0.601547    21A     -0.582952
      22A     -0.558708    23A     -0.552891    24A     -0.524596
      25A     -0.521236    26A     -0.498601    27A     -0.491681
      28A     -0.480543    29A     -0.480220    30A     -0.446679
      31A     -0.429002    32A     -0.402123

  @DF-RHF Final Energy:  -348.18603464503832

   => Energetics <=

    Nuclear Repulsion Energy =            399.2156189187851396
    One-Electron Energy =               -1263.9049698202693435
    Two-Electron Energy =                 516.5033162564459417
    Total Energy =                       -348.1860346450382622
  Basis Set: (AUG-CC-PVTZ AUX)
    Blend: AUG-CC-PVTZ-RI
    Molecular point group: c1

    Geometry (in Angstrom), charge = 0, multiplicity = 1:

       Center              X                  Y                   Z               Mass
    ------------   -----------------  -----------------  -----------------  -----------------
         O            0.001280103646    -0.613998375539    -0.000666170342    15.994914619570
         C            0.937632103646     0.410395624461    -0.457257170342    12.000000000000
         C           -0.935054896354     0.410382624461     0.455995829658    12.000000000000
         C           -0.010907796354     1.554014824461     0.005318029658    12.000000000000
         C            2.273001103646     0.286000624461     0.242740829658    12.000000000000
         C           -2.270450896354     0.286010624461    -0.243951170342    12.000000000000
         C            2.943628103646    -1.051705375539    -0.052849170342    12.000000000000
         C           -2.941061896354    -1.051708375539     0.051613829658    12.000000000000
         H            1.070582103646     0.340954624461    -1.546697170342     1.007825032230
         H           -1.067957896354     0.340907624461     1.545439829658     1.007825032230
         H            0.403554103646     2.171988624461     0.795175829658     1.007825032230
         H           -0.400999896354     2.171976624461    -0.796433170342     1.007825032230
         H            2.103433103646     0.392910624461     1.320986829658     1.007825032230
         H            2.913035103646     1.121927624461    -0.070488170342     1.007825032230
         H           -2.100924896354     0.392962624461    -1.322200170342     1.007825032230
         H           -2.910475896354     1.121922624461     0.069333829658     1.007825032230
         H            2.285873103646    -1.869965375539     0.248879829658     1.007825032230
         H            3.150988103646    -1.156779375539    -1.122447170342     1.007825032230
         H            3.890164103646    -1.149773375539     0.485984829658     1.007825032230
         H           -3.148361896354    -1.156833375539     1.121217829658     1.007825032230
         H           -3.887629896354    -1.149751375539    -0.487171170342     1.007825032230
         H           -2.283324896354    -1.869955375539    -0.250191170342     1.007825032230

  Basis Set: AUG-CC-PVTZ
    Blend: AUG-CC-PVTZ
  Basis Set: (AUG-CC-PVTZ AUX)
    Blend: AUG-CC-PVTZ-JKFIT
	 Reference Energy          =    -348.1860346450383190 [Eh]
	 Singles Energy            =      -0.0000000000000000 [Eh]
	 Same-Spin Energy          =      -0.3608781535680782 [Eh]
	 Opposite-Spin Energy      =      -1.2615032904260057 [Eh]
	 Correlation Energy        =      -1.6223814439940840 [Eh]
	 Total Energy              =    -349.8084160890323915 [Eh]

	 ================> DF-SCS-MP2 Energies <==================
	-----------------------------------------------------------
	 SCS Same-Spin Scale       =       0.3333333333333333 [-]
	 SCS Opposite-Spin Scale   =       1.2000000000000000 [-]
	 SCS Same-Spin Energy      =      -0.1202927178560260 [Eh]
	 SCS Opposite-Spin Energy  =      -1.5138039485112069 [Eh]
	 SCS Correlation Energy    =      -1.6340966663672329 [Eh]
	 SCS Total Energy          =    -349.8201313114055324 [Eh]
	-----------------------------------------------------------

  Dipole Moment: [D]
     X:     0.0116      Y:     1.7058      Z:    -0.0022     Total:     1.7058

*** Psi4 exiting successfully. Buy a developer a beer!
