                               Psi4 1.4a3.dev225

  ==> Input File <==

--------------------------------------------------------------------------
#psi4
#
memory 32 gb

molecule  {
0 1
  O       -0.0000020    -0.6102900    -0.0000420
  C        0.9363500     0.4141040    -0.4566330
  C       -0.9363370     0.4140910     0.4566200
  C        0.0000010     1.5430250    -0.0000030
  C        2.2717190     0.2897090     0.2433650
  C       -2.2717330     0.2897190    -0.2433270
  C        2.9423460    -1.0479970    -0.0522250
  C       -2.9423440    -1.0480000     0.0522380
  H        1.0693000     0.3446630    -1.5460730
  H       -1.0692400     0.3446160     1.5460640
  H        0.4022720     2.1756970     0.7958000
  H       -0.4022820     2.1756850    -0.7958090
  H        2.1021510     0.3966190     1.3216110
  H        2.9117530     1.1256360    -0.0698640
  H       -2.1022070     0.3966710    -1.3215760
  H       -2.9117580     1.1256310     0.0699580
  H        2.1641618    -2.0160733     0.3047479
  H        3.1497060    -1.1530710    -1.1218230
  H        3.8888820    -1.1460650     0.4866090
  H       -3.1496440    -1.1531250     1.1218420
  H       -3.8889120    -1.1460430    -0.4865470
  H       -2.2846070    -1.8662470    -0.2495670
units angstrom
no_reorient  #important for SAPT in psi4, default
symmetry c1  #important for SAPT in psi4, default
}

set PROPERTIES_ORIGIN ["COM"]
properties('MP2/aug-cc-pvtz', properties = ['dipole'])
--------------------------------------------------------------------------

    Molecular point group: c1
  Charge       = 0
  Multiplicity = 1
  Basis Set: AUG-CC-PVTZ
    Blend: AUG-CC-PVTZ
  Basis Set: (AUG-CC-PVTZ AUX)
    Blend: AUG-CC-PVTZ-JKFIT

    Orbital Energies [Eh]
    ---------------------

    Doubly Occupied:

       1A    -20.537921     2A    -11.277664     3A    -11.276899
       4A    -11.229491     5A    -11.224446     6A    -11.221360
       7A    -11.218793     8A    -11.207274     9A     -1.364892
      10A     -1.058981    11A     -1.046931    12A     -0.992591
      13A     -0.909256    14A     -0.842440    15A     -0.802976
      16A     -0.736110    17A     -0.670188    18A     -0.665264
      19A     -0.608089    20A     -0.596310    21A     -0.584283
      22A     -0.560049    23A     -0.546756    24A     -0.522800
      25A     -0.516786    26A     -0.499510    27A     -0.487055
      28A     -0.481179    29A     -0.464807    30A     -0.441831
      31A     -0.433001    32A     -0.401881

  @DF-RHF Final Energy:  -348.16606467960003

   => Energetics <=

    Nuclear Repulsion Energy =            398.8795610762632577
    One-Electron Energy =               -1263.2356197151059405
    Two-Electron Energy =                 516.1899939592426563
    Total Energy =                       -348.1660646796000265
  Basis Set: (AUG-CC-PVTZ AUX)
    Blend: AUG-CC-PVTZ-RI
    Molecular point group: c1

    Geometry (in Angstrom), charge = 0, multiplicity = 1:

       Center              X                  Y                   Z               Mass
    ------------   -----------------  -----------------  -----------------  -----------------
         O            0.001061713966    -0.611129364084    -0.000528873220    15.994914619570
         C            0.937413713966     0.413264635916    -0.457119873220    12.000000000000
         C           -0.935273286034     0.413251635916     0.456133126780    12.000000000000
         C            0.001064713966     1.542185635916    -0.000489873220    12.000000000000
         C            2.272782713966     0.288869635916     0.242878126780    12.000000000000
         C           -2.270669286034     0.288879635916    -0.243813873220    12.000000000000
         C            2.943409713966    -1.048836364084    -0.052711873220    12.000000000000
         C           -2.941280286034    -1.048839364084     0.051751126780    12.000000000000
         H            1.070363713966     0.343823635916    -1.546559873220     1.007825032230
         H           -1.068176286034     0.343776635916     1.545577126780     1.007825032230
         H            0.403335713966     2.174857635916     0.795313126780     1.007825032230
         H           -0.401218286034     2.174845635916    -0.796295873220     1.007825032230
         H            2.103214713966     0.395779635916     1.321124126780     1.007825032230
         H            2.912816713966     1.124796635916    -0.070350873220     1.007825032230
         H           -2.101143286034     0.395831635916    -1.322062873220     1.007825032230
         H           -2.910694286034     1.124791635916     0.069471126780     1.007825032230
         H            2.165225513966    -2.016912664084     0.304261026780     1.007825032230
         H            3.150769713966    -1.153910364084    -1.122309873220     1.007825032230
         H            3.889945713966    -1.146904364084     0.486122126780     1.007825032230
         H           -3.148580286034    -1.153964364084     1.121355126780     1.007825032230
         H           -3.887848286034    -1.146882364084    -0.487033873220     1.007825032230
         H           -2.283543286034    -1.867086364084    -0.250053873220     1.007825032230

  Basis Set: AUG-CC-PVTZ
    Blend: AUG-CC-PVTZ
  Basis Set: (AUG-CC-PVTZ AUX)
    Blend: AUG-CC-PVTZ-JKFIT
	 Reference Energy          =    -348.1660646796000265 [Eh]
	 Singles Energy            =      -0.0000000000000000 [Eh]
	 Same-Spin Energy          =      -0.3610193218157437 [Eh]
	 Opposite-Spin Energy      =      -1.2631674851556545 [Eh]
	 Correlation Energy        =      -1.6241868069713981 [Eh]
	 Total Energy              =    -349.7902514865714352 [Eh]

	 ================> DF-SCS-MP2 Energies <==================
	-----------------------------------------------------------
	 SCS Same-Spin Scale       =       0.3333333333333333 [-]
	 SCS Opposite-Spin Scale   =       1.2000000000000000 [-]
	 SCS Same-Spin Energy      =      -0.1203397739385812 [Eh]
	 SCS Opposite-Spin Energy  =      -1.5158009821867853 [Eh]
	 SCS Correlation Energy    =      -1.6361407561253665 [Eh]
	 SCS Total Energy          =    -349.8022054357253978 [Eh]
	-----------------------------------------------------------

  Dipole Moment: [D]
     X:     0.0170      Y:     1.8161      Z:    -0.0226     Total:     1.8163

*** Psi4 exiting successfully. Buy a developer a beer!
