                               Psi4 1.4a3.dev225

  ==> Input File <==

--------------------------------------------------------------------------
#psi4
#
memory 32 gb

molecule  {
0 1
  O       -0.0000020    -0.6102900    -0.0000420
  C        0.9363500     0.4141040    -0.4566330
  C       -0.9363370     0.4140910     0.4566200
  C        0.1219104     1.3960434    -0.0594547
  C        2.2717190     0.2897090     0.2433650
  C       -2.2717330     0.2897190    -0.2433270
  C        2.9423460    -1.0479970    -0.0522250
  C       -2.9423440    -1.0480000     0.0522380
  H        1.0693000     0.3446630    -1.5460730
  H       -1.0692400     0.3446160     1.5460640
  H        0.4022720     2.1756970     0.7958000
  H       -0.4022820     2.1756850    -0.7958090
  H        2.1021510     0.3966190     1.3216110
  H        2.9117530     1.1256360    -0.0698640
  H       -2.1022070     0.3966710    -1.3215760
  H       -2.9117580     1.1256310     0.0699580
  H        2.2845910    -1.8662570     0.2495040
  H        3.1497060    -1.1530710    -1.1218230
  H        3.8888820    -1.1460650     0.4866090
  H       -3.1496440    -1.1531250     1.1218420
  H       -3.8889120    -1.1460430    -0.4865470
  H       -2.2846070    -1.8662470    -0.2495670
units angstrom
no_reorient  #important for SAPT in psi4, default
symmetry c1  #important for SAPT in psi4, default
}

set PROPERTIES_ORIGIN ["COM"]
properties('MP2/aug-cc-pvtz', properties = ['dipole'])
--------------------------------------------------------------------------

    Molecular point group: c1
  Charge       = 0
  Multiplicity = 1
  Basis Set: AUG-CC-PVTZ
    Blend: AUG-CC-PVTZ
  Basis Set: (AUG-CC-PVTZ AUX)
    Blend: AUG-CC-PVTZ-JKFIT

    Orbital Energies [Eh]
    ---------------------

    Doubly Occupied:

       1A    -20.537297     2A    -11.275207     3A    -11.264516
       4A    -11.232234     5A    -11.219962     6A    -11.219942
       7A    -11.208964     8A    -11.207449     9A     -1.379704
      10A     -1.071415    11A     -1.051044    12A     -1.007022
      13A     -0.919493    14A     -0.846523    15A     -0.810538
      16A     -0.723848    17A     -0.677548    18A     -0.670894
      19A     -0.619232    20A     -0.603626    21A     -0.595365
      22A     -0.561864    23A     -0.546991    24A     -0.521455
      25A     -0.503756    26A     -0.499190    27A     -0.488124
      28A     -0.483405    29A     -0.475130    30A     -0.466503
      31A     -0.421076    32A     -0.394331

  @DF-RHF Final Energy:  -348.13732230436864

   => Energetics <=

    Nuclear Repulsion Energy =            402.6718400017555837
    One-Electron Energy =               -1270.6110304166775222
    Two-Electron Energy =                 519.8018681105534142
    Total Energy =                       -348.1373223043685812
  Basis Set: (AUG-CC-PVTZ AUX)
    Blend: AUG-CC-PVTZ-RI
    Molecular point group: c1

    Geometry (in Angstrom), charge = 0, multiplicity = 1:

       Center              X                  Y                   Z               Mass
    ------------   -----------------  -----------------  -----------------  -----------------
         O           -0.012822794071    -0.596995030413     0.006211411526    15.994914619570
         C            0.923529205929     0.427398969587    -0.450379588474    12.000000000000
         C           -0.949157794071     0.427385969587     0.462873411526    12.000000000000
         C            0.109089605929     1.409338369587    -0.053201288474    12.000000000000
         C            2.258898205929     0.303003969587     0.249618411526    12.000000000000
         C           -2.284553794071     0.303013969587    -0.237073588474    12.000000000000
         C            2.929525205929    -1.034702030413    -0.045971588474    12.000000000000
         C           -2.955164794071    -1.034705030413     0.058491411526    12.000000000000
         H            1.056479205929     0.357957969587    -1.539819588474     1.007825032230
         H           -1.082060794071     0.357910969587     1.552317411526     1.007825032230
         H            0.389451205929     2.188991969587     0.802053411526     1.007825032230
         H           -0.415102794071     2.188979969587    -0.789555588474     1.007825032230
         H            2.089330205929     0.409913969587     1.327864411526     1.007825032230
         H            2.898932205929     1.138930969587    -0.063610588474     1.007825032230
         H           -2.115027794071     0.409965969587    -1.315322588474     1.007825032230
         H           -2.924578794071     1.138925969587     0.076211411526     1.007825032230
         H            2.271770205929    -1.852962030413     0.255757411526     1.007825032230
         H            3.136885205929    -1.139776030413    -1.115569588474     1.007825032230
         H            3.876061205929    -1.132770030413     0.492862411526     1.007825032230
         H           -3.162464794071    -1.139830030413     1.128095411526     1.007825032230
         H           -3.901732794071    -1.132748030413    -0.480293588474     1.007825032230
         H           -2.297427794071    -1.852952030413    -0.243313588474     1.007825032230

  Basis Set: AUG-CC-PVTZ
    Blend: AUG-CC-PVTZ
  Basis Set: (AUG-CC-PVTZ AUX)
    Blend: AUG-CC-PVTZ-JKFIT
	 Reference Energy          =    -348.1373223043686380 [Eh]
	 Singles Energy            =      -0.0000000000000000 [Eh]
	 Same-Spin Energy          =      -0.3633828922482544 [Eh]
	 Opposite-Spin Energy      =      -1.2647976528029163 [Eh]
	 Correlation Energy        =      -1.6281805450511708 [Eh]
	 Total Energy              =    -349.7655028494198177 [Eh]

	 ================> DF-SCS-MP2 Energies <==================
	-----------------------------------------------------------
	 SCS Same-Spin Scale       =       0.3333333333333333 [-]
	 SCS Opposite-Spin Scale   =       1.2000000000000000 [-]
	 SCS Same-Spin Energy      =      -0.1211276307494181 [Eh]
	 SCS Opposite-Spin Energy  =      -1.5177571833634995 [Eh]
	 SCS Correlation Energy    =      -1.6388848141129175 [Eh]
	 SCS Total Energy          =    -349.7762071184815795 [Eh]
	-----------------------------------------------------------

  Dipole Moment: [D]
     X:    -0.0873      Y:     1.6011      Z:     0.0142     Total:     1.6035

*** Psi4 exiting successfully. Buy a developer a beer!
