                               Psi4 1.4a3.dev225

  ==> Input File <==

--------------------------------------------------------------------------
#psi4
#
memory 32 gb

molecule  {
0 1
  O       -0.0000020    -0.6102900    -0.0000420
  C        0.9363500     0.4141040    -0.4566330
  C       -0.9363370     0.4140910     0.4566200
  C        0.0071978     1.5565643     0.0513765
  C        2.2717190     0.2897090     0.2433650
  C       -2.2717330     0.2897190    -0.2433270
  C        2.9423460    -1.0479970    -0.0522250
  C       -2.9423440    -1.0480000     0.0522380
  H        1.0693000     0.3446630    -1.5460730
  H       -1.0692400     0.3446160     1.5460640
  H        0.4022720     2.1756970     0.7958000
  H       -0.4022820     2.1756850    -0.7958090
  H        2.1021510     0.3966190     1.3216110
  H        2.9117530     1.1256360    -0.0698640
  H       -2.1022070     0.3966710    -1.3215760
  H       -2.9117580     1.1256310     0.0699580
  H        2.2845910    -1.8662570     0.2495040
  H        3.1497060    -1.1530710    -1.1218230
  H        3.8888820    -1.1460650     0.4866090
  H       -3.1496440    -1.1531250     1.1218420
  H       -3.8889120    -1.1460430    -0.4865470
  H       -2.2846070    -1.8662470    -0.2495670
units angstrom
no_reorient  #important for SAPT in psi4, default
symmetry c1  #important for SAPT in psi4, default
}

set PROPERTIES_ORIGIN ["COM"]
properties('MP2/aug-cc-pvtz', properties = ['dipole'])
--------------------------------------------------------------------------

    Molecular point group: c1
  Charge       = 0
  Multiplicity = 1
  Basis Set: AUG-CC-PVTZ
    Blend: AUG-CC-PVTZ
  Basis Set: (AUG-CC-PVTZ AUX)
    Blend: AUG-CC-PVTZ-JKFIT

    Orbital Energies [Eh]
    ---------------------

    Doubly Occupied:

       1A    -20.538465     2A    -11.278350     3A    -11.277588
       4A    -11.223968     5A    -11.219341     6A    -11.218382
       7A    -11.207618     8A    -11.207093     9A     -1.364186
      10A     -1.059591    11A     -1.047044    12A     -0.993428
      13A     -0.912674    14A     -0.847635    15A     -0.804697
      16A     -0.738114    17A     -0.672207    18A     -0.664311
      19A     -0.607268    20A     -0.601493    21A     -0.583060
      22A     -0.558947    23A     -0.552414    24A     -0.525668
      25A     -0.519843    26A     -0.498638    27A     -0.491700
      28A     -0.480531    29A     -0.480319    30A     -0.446596
      31A     -0.428641    32A     -0.401810

  @DF-RHF Final Energy:  -348.18307942581293

   => Energetics <=

    Nuclear Repulsion Energy =            399.2254780817303299
    One-Electron Energy =               -1263.9138830627375683
    Two-Electron Energy =                 516.5053255551943039
    Total Energy =                       -348.1830794258129345
  Basis Set: (AUG-CC-PVTZ AUX)
    Blend: AUG-CC-PVTZ-RI
    Molecular point group: c1

    Geometry (in Angstrom), charge = 0, multiplicity = 1:

       Center              X                  Y                   Z               Mass
    ------------   -----------------  -----------------  -----------------  -----------------
         O           -0.000758838475    -0.613876497749    -0.005444349703    15.994914619570
         C            0.935593161525     0.410517502251    -0.462035349703    12.000000000000
         C           -0.937093838475     0.410504502251     0.451217650297    12.000000000000
         C            0.006440961525     1.552977802251     0.045974150297    12.000000000000
         C            2.270962161525     0.286122502251     0.237962650297    12.000000000000
         C           -2.272489838475     0.286132502251    -0.248729349703    12.000000000000
         C            2.941589161525    -1.051583497749    -0.057627349703    12.000000000000
         C           -2.943100838475    -1.051586497749     0.046835650297    12.000000000000
         H            1.068543161525     0.341076502251    -1.551475349703     1.007825032230
         H           -1.069996838475     0.341029502251     1.540661650297     1.007825032230
         H            0.401515161525     2.172110502251     0.790397650297     1.007825032230
         H           -0.403038838475     2.172098502251    -0.801211349703     1.007825032230
         H            2.101394161525     0.393032502251     1.316208650297     1.007825032230
         H            2.910996161525     1.122049502251    -0.075266349703     1.007825032230
         H           -2.102963838475     0.393084502251    -1.326978349703     1.007825032230
         H           -2.912514838475     1.122044502251     0.064555650297     1.007825032230
         H            2.283834161525    -1.869843497749     0.244101650297     1.007825032230
         H            3.148949161525    -1.156657497749    -1.127225349703     1.007825032230
         H            3.888125161525    -1.149651497749     0.481206650297     1.007825032230
         H           -3.150400838475    -1.156711497749     1.116439650297     1.007825032230
         H           -3.889668838475    -1.149629497749    -0.491949349703     1.007825032230
         H           -2.285363838475    -1.869833497749    -0.254969349703     1.007825032230

  Basis Set: AUG-CC-PVTZ
    Blend: AUG-CC-PVTZ
  Basis Set: (AUG-CC-PVTZ AUX)
    Blend: AUG-CC-PVTZ-JKFIT
	 Reference Energy          =    -348.1830794258129345 [Eh]
	 Singles Energy            =      -0.0000000000000000 [Eh]
	 Same-Spin Energy          =      -0.3609269735053228 [Eh]
	 Opposite-Spin Energy      =      -1.2616518546334548 [Eh]
	 Correlation Energy        =      -1.6225788281387776 [Eh]
	 Total Energy              =    -349.8056582539517194 [Eh]

	 ================> DF-SCS-MP2 Energies <==================
	-----------------------------------------------------------
	 SCS Same-Spin Scale       =       0.3333333333333333 [-]
	 SCS Opposite-Spin Scale   =       1.2000000000000000 [-]
	 SCS Same-Spin Energy      =      -0.1203089911684409 [Eh]
	 SCS Opposite-Spin Energy  =      -1.5139822255601456 [Eh]
	 SCS Correlation Energy    =      -1.6342912167285866 [Eh]
	 SCS Total Energy          =    -349.8173706425415048 [Eh]
	-----------------------------------------------------------

  Dipole Moment: [D]
     X:     0.0160      Y:     1.6992      Z:     0.0219     Total:     1.6994

*** Psi4 exiting successfully. Buy a developer a beer!
