                               Psi4 1.4a3.dev225

  ==> Input File <==

--------------------------------------------------------------------------
#psi4
#
memory 32 gb

molecule  {
0 1
  O       -0.0000020    -0.6102900    -0.0000420
  C        0.9363500     0.4141040    -0.4566330
  C       -0.9363370     0.4140910     0.4566200
  C        0.0000010     1.5430250    -0.0000030
  C        2.2717190     0.2897090     0.2433650
  C       -2.2717330     0.2897190    -0.2433270
  C        2.9423460    -1.0479970    -0.0522250
  C       -2.9423440    -1.0480000     0.0522380
  H        1.0693000     0.3446630    -1.5460730
  H       -1.0934104     0.3319809     1.7441956
  H        0.4022720     2.1756970     0.7958000
  H       -0.4022820     2.1756850    -0.7958090
  H        2.1021510     0.3966190     1.3216110
  H        2.9117530     1.1256360    -0.0698640
  H       -2.1022070     0.3966710    -1.3215760
  H       -2.9117580     1.1256310     0.0699580
  H        2.2845910    -1.8662570     0.2495040
  H        3.1497060    -1.1530710    -1.1218230
  H        3.8888820    -1.1460650     0.4866090
  H       -3.1496440    -1.1531250     1.1218420
  H       -3.8889120    -1.1460430    -0.4865470
  H       -2.2846070    -1.8662470    -0.2495670
units angstrom
no_reorient  #important for SAPT in psi4, default
symmetry c1  #important for SAPT in psi4, default
}

set PROPERTIES_ORIGIN ["COM"]
properties('MP2/aug-cc-pvtz', properties = ['dipole'])
--------------------------------------------------------------------------

    Molecular point group: c1
  Charge       = 0
  Multiplicity = 1
  Basis Set: AUG-CC-PVTZ
    Blend: AUG-CC-PVTZ
  Basis Set: (AUG-CC-PVTZ AUX)
    Blend: AUG-CC-PVTZ-JKFIT

    Orbital Energies [Eh]
    ---------------------

    Doubly Occupied:

       1A    -20.543124     2A    -11.300428     3A    -11.279220
       4A    -11.227186     5A    -11.221807     6A    -11.219808
       7A    -11.208203     8A    -11.207489     9A     -1.368365
      10A     -1.059652    11A     -1.048134    12A     -0.995871
      13A     -0.910055    14A     -0.847988    15A     -0.799834
      16A     -0.727088    17A     -0.672034    18A     -0.657005
      19A     -0.609276    20A     -0.602708    21A     -0.585091
      22A     -0.553471    23A     -0.549493    24A     -0.522980
      25A     -0.521251    26A     -0.498496    27A     -0.492909
      28A     -0.481560    29A     -0.477742    30A     -0.449336
      31A     -0.429982    32A     -0.396791

  @DF-RHF Final Energy:  -348.16622441373778

   => Energetics <=

    Nuclear Repulsion Energy =            398.5444306875896814
    One-Electron Energy =               -1262.4925550361110709
    Two-Electron Energy =                 515.7818999347834961
    Total Energy =                       -348.1662244137378366
  Basis Set: (AUG-CC-PVTZ AUX)
    Blend: AUG-CC-PVTZ-RI
    Molecular point group: c1

    Geometry (in Angstrom), charge = 0, multiplicity = 1:

       Center              X                  Y                   Z               Mass
    ------------   -----------------  -----------------  -----------------  -----------------
         O            0.000211510355    -0.612341013840    -0.001790925505    15.994914619570
         C            0.936563510355     0.412052986160    -0.458381925505    12.000000000000
         C           -0.936123489645     0.412039986160     0.454871074495    12.000000000000
         C            0.000214510355     1.540973986160    -0.001751925505    12.000000000000
         C            2.271932510355     0.287657986160     0.241616074495    12.000000000000
         C           -2.271519489645     0.287667986160    -0.245075925505    12.000000000000
         C            2.942559510355    -1.050048013840    -0.053973925505    12.000000000000
         C           -2.942130489645    -1.050051013840     0.050489074495    12.000000000000
         H            1.069513510355     0.342611986160    -1.547821925505     1.007825032230
         H           -1.093196889645     0.329929886160     1.742446674495     1.007825032230
         H            0.402485510355     2.173645986160     0.794051074495     1.007825032230
         H           -0.402068489645     2.173633986160    -0.797557925505     1.007825032230
         H            2.102364510355     0.394567986160     1.319862074495     1.007825032230
         H            2.911966510355     1.123584986160    -0.071612925505     1.007825032230
         H           -2.101993489645     0.394619986160    -1.323324925505     1.007825032230
         H           -2.911544489645     1.123579986160     0.068209074495     1.007825032230
         H            2.284804510355    -1.868308013840     0.247755074495     1.007825032230
         H            3.149919510355    -1.155122013840    -1.123571925505     1.007825032230
         H            3.889095510355    -1.148116013840     0.484860074495     1.007825032230
         H           -3.149430489645    -1.155176013840     1.120093074495     1.007825032230
         H           -3.888698489645    -1.148094013840    -0.488295925505     1.007825032230
         H           -2.284393489645    -1.868298013840    -0.251315925505     1.007825032230

  Basis Set: AUG-CC-PVTZ
    Blend: AUG-CC-PVTZ
  Basis Set: (AUG-CC-PVTZ AUX)
    Blend: AUG-CC-PVTZ-JKFIT
	 Reference Energy          =    -348.1662244137377797 [Eh]
	 Singles Energy            =      -0.0000000000000000 [Eh]
	 Same-Spin Energy          =      -0.3613577920757413 [Eh]
	 Opposite-Spin Energy      =      -1.2635841960214074 [Eh]
	 Correlation Energy        =      -1.6249419880971487 [Eh]
	 Total Energy              =    -349.7911664018349143 [Eh]

	 ================> DF-SCS-MP2 Energies <==================
	-----------------------------------------------------------
	 SCS Same-Spin Scale       =       0.3333333333333333 [-]
	 SCS Opposite-Spin Scale   =       1.2000000000000000 [-]
	 SCS Same-Spin Energy      =      -0.1204525973585804 [Eh]
	 SCS Opposite-Spin Energy  =      -1.5163010352256887 [Eh]
	 SCS Correlation Energy    =      -1.6367536325842691 [Eh]
	 SCS Total Energy          =    -349.8029780463220391 [Eh]
	-----------------------------------------------------------

  Dipole Moment: [D]
     X:     0.0931      Y:     1.7001      Z:    -0.2239     Total:     1.7173

*** Psi4 exiting successfully. Buy a developer a beer!
