                               Psi4 1.4a3.dev225

  ==> Input File <==

--------------------------------------------------------------------------
#psi4
#
memory 32 gb

molecule  {
0 1
  O       -0.0000020    -0.6102900    -0.0000420
  C        0.9363500     0.4141040    -0.4566330
  C       -0.9363370     0.4140910     0.4566200
  C        0.0000010     1.5430250    -0.0000030
  C        2.2717190     0.2897090     0.2433650
  C       -2.2717330     0.2897190    -0.2433270
  C        2.9423460    -1.0479970    -0.0522250
  C       -2.9423440    -1.0480000     0.0522380
  H        1.0813895     0.3383486    -1.6451385
  H       -1.0692400     0.3446160     1.5460640
  H        0.4022720     2.1756970     0.7958000
  H       -0.4022820     2.1756850    -0.7958090
  H        2.1021510     0.3966190     1.3216110
  H        2.9117530     1.1256360    -0.0698640
  H       -2.1022070     0.3966710    -1.3215760
  H       -2.9117580     1.1256310     0.0699580
  H        2.2845910    -1.8662570     0.2495040
  H        3.1497060    -1.1530710    -1.1218230
  H        3.8888820    -1.1460650     0.4866090
  H       -3.1496440    -1.1531250     1.1218420
  H       -3.8889120    -1.1460430    -0.4865470
  H       -2.2846070    -1.8662470    -0.2495670
units angstrom
no_reorient  #important for SAPT in psi4, default
symmetry c1  #important for SAPT in psi4, default
}

set PROPERTIES_ORIGIN ["COM"]
properties('MP2/aug-cc-pvtz', properties = ['dipole'])
--------------------------------------------------------------------------

    Molecular point group: c1
  Charge       = 0
  Multiplicity = 1
  Basis Set: AUG-CC-PVTZ
    Blend: AUG-CC-PVTZ
  Basis Set: (AUG-CC-PVTZ AUX)
    Blend: AUG-CC-PVTZ-JKFIT

    Orbital Energies [Eh]
    ---------------------

    Doubly Occupied:

       1A    -20.540340     2A    -11.289098     3A    -11.277967
       4A    -11.225452     5A    -11.220161     6A    -11.219259
       7A    -11.207731     8A    -11.207380     9A     -1.366430
      10A     -1.059420    11A     -1.047562    12A     -0.994880
      13A     -0.911053    14A     -0.847414    15A     -0.801635
      16A     -0.730462    17A     -0.671227    18A     -0.661336
      19A     -0.608222    20A     -0.602105    21A     -0.584476
      22A     -0.554231    23A     -0.552140    24A     -0.522288
      25A     -0.521428    26A     -0.498391    27A     -0.492336
      28A     -0.480912    29A     -0.479218    30A     -0.447623
      31A     -0.431112    32A     -0.399802

  @DF-RHF Final Energy:  -348.17956525667699

   => Energetics <=

    Nuclear Repulsion Energy =            399.0072111285036272
    One-Electron Energy =               -1263.4673741477718067
    Two-Electron Energy =                 516.2805977625912419
    Total Energy =                       -348.1795652566769377
  Basis Set: (AUG-CC-PVTZ AUX)
    Blend: AUG-CC-PVTZ-RI
    Molecular point group: c1

    Geometry (in Angstrom), charge = 0, multiplicity = 1:

       Center              X                  Y                   Z               Mass
    ------------   -----------------  -----------------  -----------------  -----------------
         O           -0.000108754368    -0.612396841276     0.000834060964    15.994914619570
         C            0.936243245632     0.411997158724    -0.455756939036    12.000000000000
         C           -0.936443754368     0.411984158724     0.457496060964    12.000000000000
         C           -0.000105754368     1.540918158724     0.000873060964    12.000000000000
         C            2.271612245632     0.287602158724     0.244241060964    12.000000000000
         C           -2.271839754368     0.287612158724    -0.242450939036    12.000000000000
         C            2.942239245632    -1.050103841276    -0.051348939036    12.000000000000
         C           -2.942450754368    -1.050106841276     0.053114060964    12.000000000000
         H            1.081282745632     0.336241758724    -1.644262439036     1.007825032230
         H           -1.069346754368     0.342509158724     1.546940060964     1.007825032230
         H            0.402165245632     2.173590158724     0.796676060964     1.007825032230
         H           -0.402388754368     2.173578158724    -0.794932939036     1.007825032230
         H            2.102044245632     0.394512158724     1.322487060964     1.007825032230
         H            2.911646245632     1.123529158724    -0.068987939036     1.007825032230
         H           -2.102313754368     0.394564158724    -1.320699939036     1.007825032230
         H           -2.911864754368     1.123524158724     0.070834060964     1.007825032230
         H            2.284484245632    -1.868363841276     0.250380060964     1.007825032230
         H            3.149599245632    -1.155177841276    -1.120946939036     1.007825032230
         H            3.888775245632    -1.148171841276     0.487485060964     1.007825032230
         H           -3.149750754368    -1.155231841276     1.122718060964     1.007825032230
         H           -3.889018754368    -1.148149841276    -0.485670939036     1.007825032230
         H           -2.284713754368    -1.868353841276    -0.248690939036     1.007825032230

  Basis Set: AUG-CC-PVTZ
    Blend: AUG-CC-PVTZ
  Basis Set: (AUG-CC-PVTZ AUX)
    Blend: AUG-CC-PVTZ-JKFIT
	 Reference Energy          =    -348.1795652566769945 [Eh]
	 Singles Energy            =      -0.0000000000000000 [Eh]
	 Same-Spin Energy          =      -0.3611258507766333 [Eh]
	 Opposite-Spin Energy      =      -1.2624330633783716 [Eh]
	 Correlation Energy        =      -1.6235589141550049 [Eh]
	 Total Energy              =    -349.8031241708320067 [Eh]

	 ================> DF-SCS-MP2 Energies <==================
	-----------------------------------------------------------
	 SCS Same-Spin Scale       =       0.3333333333333333 [-]
	 SCS Opposite-Spin Scale   =       1.2000000000000000 [-]
	 SCS Same-Spin Energy      =      -0.1203752835922111 [Eh]
	 SCS Opposite-Spin Energy  =      -1.5149196760540458 [Eh]
	 SCS Correlation Energy    =      -1.6352949596462569 [Eh]
	 SCS Total Energy          =    -349.8148602163232681 [Eh]
	-----------------------------------------------------------

  Dipole Moment: [D]
     X:    -0.0426      Y:     1.7039      Z:     0.0980     Total:     1.7072

*** Psi4 exiting successfully. Buy a developer a beer!
