                               Psi4 1.4a3.dev225

  ==> Input File <==

--------------------------------------------------------------------------
#psi4
#
memory 32 gb

molecule  {
0 1
  O       -0.0000020    -0.6102900    -0.0000420
  C        0.9363500     0.4141040    -0.4566330
  C       -0.9363370     0.4140910     0.4566200
  C        0.0000010     1.5430250    -0.0000030
  C        2.2717190     0.2897090     0.2433650
  C       -2.2717330     0.2897190    -0.2433270
  C        2.9423460    -1.0479970    -0.0522250
  C       -2.9423440    -1.0480000     0.0522380
  H        1.0693000     0.3446630    -1.5460730
  H       -1.0692400     0.3446160     1.5460640
  H        0.4758575     2.2914287     0.9413725
  H       -0.4022820     2.1756850    -0.7958090
  H        2.1021510     0.3966190     1.3216110
  H        2.9117530     1.1256360    -0.0698640
  H       -2.1022070     0.3966710    -1.3215760
  H       -2.9117580     1.1256310     0.0699580
  H        2.2845910    -1.8662570     0.2495040
  H        3.1497060    -1.1530710    -1.1218230
  H        3.8888820    -1.1460650     0.4866090
  H       -3.1496440    -1.1531250     1.1218420
  H       -3.8889120    -1.1460430    -0.4865470
  H       -2.2846070    -1.8662470    -0.2495670
units angstrom
no_reorient  #important for SAPT in psi4, default
symmetry c1  #important for SAPT in psi4, default
}

set PROPERTIES_ORIGIN ["COM"]
properties('MP2/aug-cc-pvtz', properties = ['dipole'])
--------------------------------------------------------------------------

    Molecular point group: c1
  Charge       = 0
  Multiplicity = 1
  Basis Set: AUG-CC-PVTZ
    Blend: AUG-CC-PVTZ
  Basis Set: (AUG-CC-PVTZ AUX)
    Blend: AUG-CC-PVTZ-JKFIT

    Orbital Energies [Eh]
    ---------------------

    Doubly Occupied:

       1A    -20.540293     2A    -11.279682     3A    -11.279461
       4A    -11.246853     5A    -11.220499     6A    -11.218976
       7A    -11.208639     8A    -11.207492     9A     -1.367248
      10A     -1.060923    11A     -1.046648    12A     -0.989605
      13A     -0.914518    14A     -0.844971    15A     -0.805853
      16A     -0.729208    17A     -0.671958    18A     -0.658945
      19A     -0.604068    20A     -0.602085    21A     -0.585404
      22A     -0.559884    23A     -0.548182    24A     -0.522339
      25A     -0.509431    26A     -0.496531    27A     -0.491069
      28A     -0.481477    29A     -0.480540    30A     -0.444467
      31A     -0.434816    32A     -0.401387

  @DF-RHF Final Energy:  -348.16592499526462

   => Energetics <=

    Nuclear Repulsion Energy =            398.6222707172167929
    One-Electron Energy =               -1262.6694887389351152
    Two-Electron Energy =                 515.8812930264537044
    Total Energy =                       -348.1659249952646178
  Basis Set: (AUG-CC-PVTZ AUX)
    Blend: AUG-CC-PVTZ-RI
    Molecular point group: c1

    Geometry (in Angstrom), charge = 0, multiplicity = 1:

       Center              X                  Y                   Z               Mass
    ------------   -----------------  -----------------  -----------------  -----------------
         O           -0.000651916357    -0.613474810614    -0.001326698477    15.994914619570
         C            0.935700083643     0.410919189386    -0.457917698477    12.000000000000
         C           -0.936986916357     0.410906189386     0.455335301523    12.000000000000
         C           -0.000648916357     1.539840189386    -0.001287698477    12.000000000000
         C            2.271069083643     0.286524189386     0.242080301523    12.000000000000
         C           -2.272382916357     0.286534189386    -0.244611698477    12.000000000000
         C            2.941696083643    -1.051181810614    -0.053509698477    12.000000000000
         C           -2.942993916357    -1.051184810614     0.050953301523    12.000000000000
         H            1.068650083643     0.341478189386    -1.547357698477     1.007825032230
         H           -1.069889916357     0.341431189386     1.544779301523     1.007825032230
         H            0.475207583643     2.288243889386     0.940087801523     1.007825032230
         H           -0.402931916357     2.172500189386    -0.797093698477     1.007825032230
         H            2.101501083643     0.393434189386     1.320326301523     1.007825032230
         H            2.911103083643     1.122451189386    -0.071148698477     1.007825032230
         H           -2.102856916357     0.393486189386    -1.322860698477     1.007825032230
         H           -2.912407916357     1.122446189386     0.068673301523     1.007825032230
         H            2.283941083643    -1.869441810614     0.248219301523     1.007825032230
         H            3.149056083643    -1.156255810614    -1.123107698477     1.007825032230
         H            3.888232083643    -1.149249810614     0.485324301523     1.007825032230
         H           -3.150293916357    -1.156309810614     1.120557301523     1.007825032230
         H           -3.889561916357    -1.149227810614    -0.487831698477     1.007825032230
         H           -2.285256916357    -1.869431810614    -0.250851698477     1.007825032230

  Basis Set: AUG-CC-PVTZ
    Blend: AUG-CC-PVTZ
  Basis Set: (AUG-CC-PVTZ AUX)
    Blend: AUG-CC-PVTZ-JKFIT
	 Reference Energy          =    -348.1659249952646178 [Eh]
	 Singles Energy            =      -0.0000000000000000 [Eh]
	 Same-Spin Energy          =      -0.3610427043344250 [Eh]
	 Opposite-Spin Energy      =      -1.2631818805656894 [Eh]
	 Correlation Energy        =      -1.6242245849001145 [Eh]
	 Total Energy              =    -349.7901495801647229 [Eh]

	 ================> DF-SCS-MP2 Energies <==================
	-----------------------------------------------------------
	 SCS Same-Spin Scale       =       0.3333333333333333 [-]
	 SCS Opposite-Spin Scale   =       1.2000000000000000 [-]
	 SCS Same-Spin Energy      =      -0.1203475681114750 [Eh]
	 SCS Opposite-Spin Energy  =      -1.5158182566788272 [Eh]
	 SCS Correlation Energy    =      -1.6361658247903021 [Eh]
	 SCS Total Energy          =    -349.8020908200549002 [Eh]
	-----------------------------------------------------------

  Dipole Moment: [D]
     X:    -0.0610      Y:     1.5778      Z:    -0.0759     Total:     1.5808

*** Psi4 exiting successfully. Buy a developer a beer!
