                               Psi4 1.4a3.dev225

  ==> Input File <==

--------------------------------------------------------------------------
#psi4
#
memory 32 gb

molecule  {
0 1
  O       -0.0315650    -0.5733096     0.0153503
  C        0.9363500     0.4141040    -0.4566330
  C       -0.9363370     0.4140910     0.4566200
  C        0.0000010     1.5430250    -0.0000030
  C        2.2717190     0.2897090     0.2433650
  C       -2.2717330     0.2897190    -0.2433270
  C        2.9423460    -1.0479970    -0.0522250
  C       -2.9423440    -1.0480000     0.0522380
  H        1.0693000     0.3446630    -1.5460730
  H       -1.0692400     0.3446160     1.5460640
  H        0.4022720     2.1756970     0.7958000
  H       -0.4022820     2.1756850    -0.7958090
  H        2.1021510     0.3966190     1.3216110
  H        2.9117530     1.1256360    -0.0698640
  H       -2.1022070     0.3966710    -1.3215760
  H       -2.9117580     1.1256310     0.0699580
  H        2.2845910    -1.8662570     0.2495040
  H        3.1497060    -1.1530710    -1.1218230
  H        3.8888820    -1.1460650     0.4866090
  H       -3.1496440    -1.1531250     1.1218420
  H       -3.8889120    -1.1460430    -0.4865470
  H       -2.2846070    -1.8662470    -0.2495670
units angstrom
no_reorient  #important for SAPT in psi4, default
symmetry c1  #important for SAPT in psi4, default
}

set PROPERTIES_ORIGIN ["COM"]
properties('MP2/aug-cc-pvtz', properties = ['dipole'])
--------------------------------------------------------------------------

    Molecular point group: c1
  Charge       = 0
  Multiplicity = 1
  Basis Set: AUG-CC-PVTZ
    Blend: AUG-CC-PVTZ
  Basis Set: (AUG-CC-PVTZ AUX)
    Blend: AUG-CC-PVTZ-JKFIT

    Orbital Energies [Eh]
    ---------------------

    Doubly Occupied:

       1A    -20.537934     2A    -11.278483     3A    -11.271018
       4A    -11.222300     5A    -11.220605     6A    -11.215767
       7A    -11.209035     8A    -11.206220     9A     -1.381517
      10A     -1.061451    11A     -1.045009    12A     -0.992720
      13A     -0.915559    14A     -0.847105    15A     -0.807949
      16A     -0.733683    17A     -0.676603    18A     -0.668301
      19A     -0.610286    20A     -0.602135    21A     -0.584027
      22A     -0.559353    23A     -0.556748    24A     -0.524433
      25A     -0.521117    26A     -0.499641    27A     -0.492129
      28A     -0.481204    29A     -0.479921    30A     -0.444351
      31A     -0.432318    32A     -0.399198

  @DF-RHF Final Energy:  -348.18710037725333

   => Energetics <=

    Nuclear Repulsion Energy =            400.5002950990623276
    One-Electron Energy =               -1266.4185550763404535
    Two-Electron Energy =                 517.7311596000247391
    Total Energy =                       -348.1871003772533868
  Basis Set: (AUG-CC-PVTZ AUX)
    Blend: AUG-CC-PVTZ-RI
    Molecular point group: c1

    Geometry (in Angstrom), charge = 0, multiplicity = 1:

       Center              X                  Y                   Z               Mass
    ------------   -----------------  -----------------  -----------------  -----------------
         O           -0.027140541759    -0.580656044745     0.013193708256    15.994914619570
         C            0.940774458241     0.406757555255    -0.458789591744    12.000000000000
         C           -0.931912541759     0.406744555255     0.454463408256    12.000000000000
         C            0.004425458241     1.535678555255    -0.002159591744    12.000000000000
         C            2.276143458241     0.282362555255     0.241208408256    12.000000000000
         C           -2.267308541759     0.282372555255    -0.245483591744    12.000000000000
         C            2.946770458241    -1.055343444745    -0.054381591744    12.000000000000
         C           -2.937919541759    -1.055346444745     0.050081408256    12.000000000000
         H            1.073724458241     0.337316555255    -1.548229591744     1.007825032230
         H           -1.064815541759     0.337269555255     1.543907408256     1.007825032230
         H            0.406696458241     2.168350555255     0.793643408256     1.007825032230
         H           -0.397857541759     2.168338555255    -0.797965591744     1.007825032230
         H            2.106575458241     0.389272555255     1.319454408256     1.007825032230
         H            2.916177458241     1.118289555255    -0.072020591744     1.007825032230
         H           -2.097782541759     0.389324555255    -1.323732591744     1.007825032230
         H           -2.907333541759     1.118284555255     0.067801408256     1.007825032230
         H            2.289015458241    -1.873603444745     0.247347408256     1.007825032230
         H            3.154130458241    -1.160417444745    -1.123979591744     1.007825032230
         H            3.893306458241    -1.153411444745     0.484452408256     1.007825032230
         H           -3.145219541759    -1.160471444745     1.119685408256     1.007825032230
         H           -3.884487541759    -1.153389444745    -0.488703591744     1.007825032230
         H           -2.280182541759    -1.873593444745    -0.251723591744     1.007825032230

  Basis Set: AUG-CC-PVTZ
    Blend: AUG-CC-PVTZ
  Basis Set: (AUG-CC-PVTZ AUX)
    Blend: AUG-CC-PVTZ-JKFIT
	 Reference Energy          =    -348.1871003772533300 [Eh]
	 Singles Energy            =      -0.0000000000000000 [Eh]
	 Same-Spin Energy          =      -0.3604967077857206 [Eh]
	 Opposite-Spin Energy      =      -1.2600049026849360 [Eh]
	 Correlation Energy        =      -1.6205016104706567 [Eh]
	 Total Energy              =    -349.8076019877240128 [Eh]

	 ================> DF-SCS-MP2 Energies <==================
	-----------------------------------------------------------
	 SCS Same-Spin Scale       =       0.3333333333333333 [-]
	 SCS Opposite-Spin Scale   =       1.2000000000000000 [-]
	 SCS Same-Spin Energy      =      -0.1201655692619069 [Eh]
	 SCS Opposite-Spin Energy  =      -1.5120058832219232 [Eh]
	 SCS Correlation Energy    =      -1.6321714524838300 [Eh]
	 SCS Total Energy          =    -349.8192718297371471 [Eh]
	-----------------------------------------------------------

  Dipole Moment: [D]
     X:     0.1953      Y:     1.6035      Z:    -0.0556     Total:     1.6163

*** Psi4 exiting successfully. Buy a developer a beer!
