                               Psi4 1.4a3.dev225

  ==> Input File <==

--------------------------------------------------------------------------
#psi4
#
memory 32 gb

molecule  {
0 1
  O       -0.0000020    -0.6102900    -0.0000420
  C        0.9363500     0.4141040    -0.4566330
  C       -0.9363370     0.4140910     0.4566200
  C        0.0000010     1.5430250    -0.0000030
  C        2.2717190     0.2897090     0.2433650
  C       -2.2717330     0.2897190    -0.2433270
  C        2.9423460    -1.0479970    -0.0522250
  C       -2.9423440    -1.0480000     0.0522380
  H        1.0693000     0.3446630    -1.5460730
  H       -1.0692400     0.3446160     1.5460640
  H        0.4022720     2.1756970     0.7958000
  H       -0.4022820     2.1756850    -0.7958090
  H        2.1021510     0.3966190     1.3216110
  H        2.9117530     1.1256360    -0.0698640
  H       -2.1022070     0.3966710    -1.3215760
  H       -2.9117580     1.1256310     0.0699580
  H        2.2845910    -1.8662570     0.2495040
  H        3.1497060    -1.1530710    -1.1218230
  H        3.8888820    -1.1460650     0.4866090
  H       -3.1496440    -1.1531250     1.1218420
  H       -3.8889120    -1.1460430    -0.4865470
  H       -2.3147135    -1.8287935    -0.2357525
units angstrom
no_reorient  #important for SAPT in psi4, default
symmetry c1  #important for SAPT in psi4, default
}

set PROPERTIES_ORIGIN ["COM"]
properties('MP2/aug-cc-pvtz', properties = ['dipole'])
--------------------------------------------------------------------------

    Molecular point group: c1
  Charge       = 0
  Multiplicity = 1
  Basis Set: AUG-CC-PVTZ
    Blend: AUG-CC-PVTZ
  Basis Set: (AUG-CC-PVTZ AUX)
    Blend: AUG-CC-PVTZ-JKFIT

    Orbital Energies [Eh]
    ---------------------

    Doubly Occupied:

       1A    -20.538116     2A    -11.277016     3A    -11.276883
       4A    -11.224003     5A    -11.218839     6A    -11.218348
       7A    -11.207371     8A    -11.201388     9A     -1.365026
      10A     -1.060302    11A     -1.047749    12A     -0.994980
      13A     -0.914932    14A     -0.848959    15A     -0.805793
      16A     -0.736038    17A     -0.672315    18A     -0.664869
      19A     -0.607338    20A     -0.603999    21A     -0.584218
      22A     -0.558661    23A     -0.553730    24A     -0.523790
      25A     -0.521127    26A     -0.498481    27A     -0.494191
      28A     -0.481559    29A     -0.480444    30A     -0.446603
      31A     -0.432294    32A     -0.401593

  @DF-RHF Final Energy:  -348.18534275853273

   => Energetics <=

    Nuclear Repulsion Energy =            399.7006966533040213
    One-Electron Energy =               -1264.8501644365235279
    Two-Electron Energy =                 516.9641250246868367
    Total Energy =                       -348.1853427585326699
  Basis Set: (AUG-CC-PVTZ AUX)
    Blend: AUG-CC-PVTZ-RI
    Molecular point group: c1

    Geometry (in Angstrom), charge = 0, multiplicity = 1:

       Center              X                  Y                   Z               Mass
    ------------   -----------------  -----------------  -----------------  -----------------
         O            0.000263940820    -0.612783420234    -0.000162949009    15.994914619570
         C            0.936615940820     0.411610579766    -0.456753949009    12.000000000000
         C           -0.936071059180     0.411597579766     0.456499050991    12.000000000000
         C            0.000266940820     1.540531579766    -0.000123949009    12.000000000000
         C            2.271984940820     0.287215579766     0.243244050991    12.000000000000
         C           -2.271467059180     0.287225579766    -0.243447949009    12.000000000000
         C            2.942611940820    -1.050490420234    -0.052345949009    12.000000000000
         C           -2.942078059180    -1.050493420234     0.052117050991    12.000000000000
         H            1.069565940820     0.342169579766    -1.546193949009     1.007825032230
         H           -1.068974059180     0.342122579766     1.545943050991     1.007825032230
         H            0.402537940820     2.173203579766     0.795679050991     1.007825032230
         H           -0.402016059180     2.173191579766    -0.795929949009     1.007825032230
         H            2.102416940820     0.394125579766     1.321490050991     1.007825032230
         H            2.912018940820     1.123142579766    -0.069984949009     1.007825032230
         H           -2.101941059180     0.394177579766    -1.321696949009     1.007825032230
         H           -2.911492059180     1.123137579766     0.069837050991     1.007825032230
         H            2.284856940820    -1.868750420234     0.249383050991     1.007825032230
         H            3.149971940820    -1.155564420234    -1.121943949009     1.007825032230
         H            3.889147940820    -1.148558420234     0.486488050991     1.007825032230
         H           -3.149378059180    -1.155618420234     1.121721050991     1.007825032230
         H           -3.888646059180    -1.148536420234    -0.486667949009     1.007825032230
         H           -2.314447559180    -1.831286920234    -0.235873449009     1.007825032230

  Basis Set: AUG-CC-PVTZ
    Blend: AUG-CC-PVTZ
  Basis Set: (AUG-CC-PVTZ AUX)
    Blend: AUG-CC-PVTZ-JKFIT
	 Reference Energy          =    -348.1853427585327267 [Eh]
	 Singles Energy            =      -0.0000000000000000 [Eh]
	 Same-Spin Energy          =      -0.3609100795469724 [Eh]
	 Opposite-Spin Energy      =      -1.2611818435560760 [Eh]
	 Correlation Energy        =      -1.6220919231030484 [Eh]
	 Total Energy              =    -349.8074346816357547 [Eh]

	 ================> DF-SCS-MP2 Energies <==================
	-----------------------------------------------------------
	 SCS Same-Spin Scale       =       0.3333333333333333 [-]
	 SCS Opposite-Spin Scale   =       1.2000000000000000 [-]
	 SCS Same-Spin Energy      =      -0.1203033598489908 [Eh]
	 SCS Opposite-Spin Energy  =      -1.5134182122672912 [Eh]
	 SCS Correlation Energy    =      -1.6337215721162821 [Eh]
	 SCS Total Energy          =    -349.8190643306489847 [Eh]
	-----------------------------------------------------------

  Dipole Moment: [D]
     X:     0.0020      Y:     1.6873      Z:    -0.0037     Total:     1.6873

*** Psi4 exiting successfully. Buy a developer a beer!
