                               Psi4 1.4a3.dev225

  ==> Input File <==

--------------------------------------------------------------------------
#psi4
#
memory 32 gb

molecule  {
0 1
  O       -0.0000020    -0.6102900    -0.0000420
  C        0.9363500     0.4141040    -0.4566330
  C       -0.9363370     0.4140910     0.4566200
  C        0.0000010     1.5430250    -0.0000030
  C        2.2708936     0.2833225     0.2691958
  C       -2.2717330     0.2897190    -0.2433270
  C        2.9423460    -1.0479970    -0.0522250
  C       -2.9423440    -1.0480000     0.0522380
  H        1.0693000     0.3446630    -1.5460730
  H       -1.0692400     0.3446160     1.5460640
  H        0.4022720     2.1756970     0.7958000
  H       -0.4022820     2.1756850    -0.7958090
  H        2.1021510     0.3966190     1.3216110
  H        2.9117530     1.1256360    -0.0698640
  H       -2.1022070     0.3966710    -1.3215760
  H       -2.9117580     1.1256310     0.0699580
  H        2.2845910    -1.8662570     0.2495040
  H        3.1497060    -1.1530710    -1.1218230
  H        3.8888820    -1.1460650     0.4866090
  H       -3.1496440    -1.1531250     1.1218420
  H       -3.8889120    -1.1460430    -0.4865470
  H       -2.2846070    -1.8662470    -0.2495670
units angstrom
no_reorient  #important for SAPT in psi4, default
symmetry c1  #important for SAPT in psi4, default
}

set PROPERTIES_ORIGIN ["COM"]
properties('MP2/aug-cc-pvtz', properties = ['dipole'])
--------------------------------------------------------------------------

    Molecular point group: c1
  Charge       = 0
  Multiplicity = 1
  Basis Set: AUG-CC-PVTZ
    Blend: AUG-CC-PVTZ
  Basis Set: (AUG-CC-PVTZ AUX)
    Blend: AUG-CC-PVTZ-JKFIT

    Orbital Energies [Eh]
    ---------------------

    Doubly Occupied:

       1A    -20.537581     2A    -11.277406     3A    -11.276888
       4A    -11.223910     5A    -11.218787     6A    -11.218410
       7A    -11.207316     8A    -11.207232     9A     -1.364716
      10A     -1.058980    11A     -1.046734    12A     -0.994170
      13A     -0.912520    14A     -0.846622    15A     -0.806063
      16A     -0.736362    17A     -0.670577    18A     -0.664953
      19A     -0.608091    20A     -0.600343    21A     -0.584364
      22A     -0.559423    23A     -0.551350    24A     -0.522184
      25A     -0.520506    26A     -0.500868    27A     -0.490171
      28A     -0.483692    29A     -0.478854    30A     -0.445821
      31A     -0.432039    32A     -0.400615

  @DF-RHF Final Energy:  -348.18566715740877

   => Energetics <=

    Nuclear Repulsion Energy =            399.4263553816367107
    One-Electron Energy =               -1264.3289505482116510
    Two-Electron Energy =                 516.7169280091661676
    Total Energy =                       -348.1856671574087159
  Basis Set: (AUG-CC-PVTZ AUX)
    Blend: AUG-CC-PVTZ-RI
    Molecular point group: c1

    Geometry (in Angstrom), charge = 0, multiplicity = 1:

       Center              X                  Y                   Z               Mass
    ------------   -----------------  -----------------  -----------------  -----------------
         O            0.000084830526    -0.611780965380    -0.002757475006    15.994914619570
         C            0.936436830526     0.412613034620    -0.459348475006    12.000000000000
         C           -0.936250169474     0.412600034620     0.453904524994    12.000000000000
         C            0.000087830526     1.541534034620    -0.002718475006    12.000000000000
         C            2.270980430526     0.281831534620     0.266480324994    12.000000000000
         C           -2.271646169474     0.288228034620    -0.246042475006    12.000000000000
         C            2.942432830526    -1.049487965380    -0.054940475006    12.000000000000
         C           -2.942257169474    -1.049490965380     0.049522524994    12.000000000000
         H            1.069386830526     0.343172034620    -1.548788475006     1.007825032230
         H           -1.069153169474     0.343125034620     1.543348524994     1.007825032230
         H            0.402358830526     2.174206034620     0.793084524994     1.007825032230
         H           -0.402195169474     2.174194034620    -0.798524475006     1.007825032230
         H            2.102237830526     0.395128034620     1.318895524994     1.007825032230
         H            2.911839830526     1.124145034620    -0.072579475006     1.007825032230
         H           -2.102120169474     0.395180034620    -1.324291475006     1.007825032230
         H           -2.911671169474     1.124140034620     0.067242524994     1.007825032230
         H            2.284677830526    -1.867747965380     0.246788524994     1.007825032230
         H            3.149792830526    -1.154561965380    -1.124538475006     1.007825032230
         H            3.888968830526    -1.147555965380     0.483893524994     1.007825032230
         H           -3.149557169474    -1.154615965380     1.119126524994     1.007825032230
         H           -3.888825169474    -1.147533965380    -0.489262475006     1.007825032230
         H           -2.284520169474    -1.867737965380    -0.252282475006     1.007825032230

  Basis Set: AUG-CC-PVTZ
    Blend: AUG-CC-PVTZ
  Basis Set: (AUG-CC-PVTZ AUX)
    Blend: AUG-CC-PVTZ-JKFIT
	 Reference Energy          =    -348.1856671574087727 [Eh]
	 Singles Energy            =      -0.0000000000000000 [Eh]
	 Same-Spin Energy          =      -0.3608659382723589 [Eh]
	 Opposite-Spin Energy      =      -1.2614483270934329 [Eh]
	 Correlation Energy        =      -1.6223142653657918 [Eh]
	 Total Energy              =    -349.8079814227745601 [Eh]

	 ================> DF-SCS-MP2 Energies <==================
	-----------------------------------------------------------
	 SCS Same-Spin Scale       =       0.3333333333333333 [-]
	 SCS Opposite-Spin Scale   =       1.2000000000000000 [-]
	 SCS Same-Spin Energy      =      -0.1202886460907863 [Eh]
	 SCS Opposite-Spin Energy  =      -1.5137379925121195 [Eh]
	 SCS Correlation Energy    =      -1.6340266386029059 [Eh]
	 SCS Total Energy          =    -349.8196937960116770 [Eh]
	-----------------------------------------------------------

  Dipole Moment: [D]
     X:    -0.0095      Y:     1.7010      Z:     0.0064     Total:     1.7011

*** Psi4 exiting successfully. Buy a developer a beer!
