                               Psi4 1.4a3.dev225

  ==> Input File <==

--------------------------------------------------------------------------
#psi4
#
memory 32 gb

molecule  {
0 1
  O       -0.0619488    -0.5351262     0.0301677
  C        0.9363500     0.4141040    -0.4566330
  C       -0.9363370     0.4140910     0.4566200
  C        0.0000010     1.5430250    -0.0000030
  C        2.2717190     0.2897090     0.2433650
  C       -2.2717330     0.2897190    -0.2433270
  C        2.9423460    -1.0479970    -0.0522250
  C       -2.9423440    -1.0480000     0.0522380
  H        1.0693000     0.3446630    -1.5460730
  H       -1.0692400     0.3446160     1.5460640
  H        0.4022720     2.1756970     0.7958000
  H       -0.4022820     2.1756850    -0.7958090
  H        2.1021510     0.3966190     1.3216110
  H        2.9117530     1.1256360    -0.0698640
  H       -2.1022070     0.3966710    -1.3215760
  H       -2.9117580     1.1256310     0.0699580
  H        2.2845910    -1.8662570     0.2495040
  H        3.1497060    -1.1530710    -1.1218230
  H        3.8888820    -1.1460650     0.4866090
  H       -3.1496440    -1.1531250     1.1218420
  H       -3.8889120    -1.1460430    -0.4865470
  H       -2.2846070    -1.8662470    -0.2495670
units angstrom
no_reorient  #important for SAPT in psi4, default
symmetry c1  #important for SAPT in psi4, default
}

set PROPERTIES_ORIGIN ["COM"]
properties('MP2/aug-cc-pvtz', properties = ['dipole'])
--------------------------------------------------------------------------

    Molecular point group: c1
  Charge       = 0
  Multiplicity = 1
  Basis Set: AUG-CC-PVTZ
    Blend: AUG-CC-PVTZ
  Basis Set: (AUG-CC-PVTZ AUX)
    Blend: AUG-CC-PVTZ-JKFIT

    Orbital Energies [Eh]
    ---------------------

    Doubly Occupied:

       1A    -20.537373     2A    -11.280132     3A    -11.265211
       4A    -11.222452     5A    -11.220607     6A    -11.212630
       7A    -11.210703     8A    -11.205090     9A     -1.400196
      10A     -1.064213    11A     -1.041944    12A     -0.991426
      13A     -0.918119    14A     -0.847265    15A     -0.811159
      16A     -0.731414    17A     -0.682414    18A     -0.672432
      19A     -0.613946    20A     -0.602808    21A     -0.584083
      22A     -0.561883    23A     -0.560170    24A     -0.526368
      25A     -0.521228    26A     -0.500511    27A     -0.492954
      28A     -0.481823    29A     -0.479130    30A     -0.443969
      31A     -0.429145    32A     -0.395792

  @DF-RHF Final Energy:  -348.18360310815405

   => Energetics <=

    Nuclear Repulsion Energy =            401.5490047686618027
    One-Electron Energy =               -1268.4480381309249424
    Two-Electron Energy =                 518.7154302541091511
    Total Energy =                       -348.1836031081539886
  Basis Set: (AUG-CC-PVTZ AUX)
    Blend: AUG-CC-PVTZ-RI
    Molecular point group: c1

    Geometry (in Angstrom), charge = 0, multiplicity = 1:

       Center              X                  Y                   Z               Mass
    ------------   -----------------  -----------------  -----------------  -----------------
         O           -0.053265207057    -0.547825110334     0.025934037497    15.994914619570
         C            0.945033592943     0.401405089666    -0.460866662503    12.000000000000
         C           -0.927653407057     0.401392089666     0.452386337497    12.000000000000
         C            0.008684592943     1.530326089666    -0.004236662503    12.000000000000
         C            2.280402592943     0.277010089666     0.239131337497    12.000000000000
         C           -2.263049407057     0.277020089666    -0.247560662503    12.000000000000
         C            2.951029592943    -1.060695910334    -0.056458662503    12.000000000000
         C           -2.933660407057    -1.060698910334     0.048004337497    12.000000000000
         H            1.077983592943     0.331964089666    -1.550306662503     1.007825032230
         H           -1.060556407057     0.331917089666     1.541830337497     1.007825032230
         H            0.410955592943     2.162998089666     0.791566337497     1.007825032230
         H           -0.393598407057     2.162986089666    -0.800042662503     1.007825032230
         H            2.110834592943     0.383920089666     1.317377337497     1.007825032230
         H            2.920436592943     1.112937089666    -0.074097662503     1.007825032230
         H           -2.093523407057     0.383972089666    -1.325809662503     1.007825032230
         H           -2.903074407057     1.112932089666     0.065724337497     1.007825032230
         H            2.293274592943    -1.878955910334     0.245270337497     1.007825032230
         H            3.158389592943    -1.165769910334    -1.126056662503     1.007825032230
         H            3.897565592943    -1.158763910334     0.482375337497     1.007825032230
         H           -3.140960407057    -1.165823910334     1.117608337497     1.007825032230
         H           -3.880228407057    -1.158741910334    -0.490780662503     1.007825032230
         H           -2.275923407057    -1.878945910334    -0.253800662503     1.007825032230

  Basis Set: AUG-CC-PVTZ
    Blend: AUG-CC-PVTZ
  Basis Set: (AUG-CC-PVTZ AUX)
    Blend: AUG-CC-PVTZ-JKFIT
	 Reference Energy          =    -348.1836031081540455 [Eh]
	 Singles Energy            =      -0.0000000000000000 [Eh]
	 Same-Spin Energy          =      -0.3601981436994198 [Eh]
	 Opposite-Spin Energy      =      -1.2587591077447948 [Eh]
	 Correlation Energy        =      -1.6189572514442148 [Eh]
	 Total Energy              =    -349.8025603595982602 [Eh]

	 ================> DF-SCS-MP2 Energies <==================
	-----------------------------------------------------------
	 SCS Same-Spin Scale       =       0.3333333333333333 [-]
	 SCS Opposite-Spin Scale   =       1.2000000000000000 [-]
	 SCS Same-Spin Energy      =      -0.1200660478998066 [Eh]
	 SCS Opposite-Spin Energy  =      -1.5105109292937537 [Eh]
	 SCS Correlation Energy    =      -1.6305769771935603 [Eh]
	 SCS Total Energy          =    -349.8141800853476298 [Eh]
	-----------------------------------------------------------

  Dipole Moment: [D]
     X:     0.3972      Y:     1.4954      Z:    -0.1152     Total:     1.5515

*** Psi4 exiting successfully. Buy a developer a beer!
