                               Psi4 1.4a3.dev225

  ==> Input File <==

--------------------------------------------------------------------------
#psi4
#
memory 32 gb

molecule  {
0 1
  O       -0.0000020    -0.6102900    -0.0000420
  C        0.9363500     0.4141040    -0.4566330
  C       -0.9363370     0.4140910     0.4566200
  C       -0.0283920     1.4942288    -0.1505567
  C        2.2717190     0.2897090     0.2433650
  C       -2.2717330     0.2897190    -0.2433270
  C        2.9423460    -1.0479970    -0.0522250
  C       -2.9423440    -1.0480000     0.0522380
  H        1.0693000     0.3446630    -1.5460730
  H       -1.0692400     0.3446160     1.5460640
  H        0.4022720     2.1756970     0.7958000
  H       -0.4022820     2.1756850    -0.7958090
  H        2.1021510     0.3966190     1.3216110
  H        2.9117530     1.1256360    -0.0698640
  H       -2.1022070     0.3966710    -1.3215760
  H       -2.9117580     1.1256310     0.0699580
  H        2.2845910    -1.8662570     0.2495040
  H        3.1497060    -1.1530710    -1.1218230
  H        3.8888820    -1.1460650     0.4866090
  H       -3.1496440    -1.1531250     1.1218420
  H       -3.8889120    -1.1460430    -0.4865470
  H       -2.2846070    -1.8662470    -0.2495670
units angstrom
no_reorient  #important for SAPT in psi4, default
symmetry c1  #important for SAPT in psi4, default
}

set PROPERTIES_ORIGIN ["COM"]
properties('MP2/aug-cc-pvtz', properties = ['dipole'])
--------------------------------------------------------------------------

    Molecular point group: c1
  Charge       = 0
  Multiplicity = 1
  Basis Set: AUG-CC-PVTZ
    Blend: AUG-CC-PVTZ
  Basis Set: (AUG-CC-PVTZ AUX)
    Blend: AUG-CC-PVTZ-JKFIT

    Orbital Energies [Eh]
    ---------------------

    Doubly Occupied:

       1A    -20.538359     2A    -11.277785     3A    -11.275589
       4A    -11.228700     5A    -11.220978     6A    -11.218105
       7A    -11.208570     8A    -11.207071     9A     -1.369182
      10A     -1.061230    11A     -1.049715    12A     -0.998754
      13A     -0.915648    14A     -0.848440    15A     -0.806150
      16A     -0.741124    17A     -0.678500    18A     -0.667877
      19A     -0.607668    20A     -0.601496    21A     -0.588334
      22A     -0.560352    23A     -0.548028    24A     -0.525602
      25A     -0.510211    26A     -0.498370    27A     -0.491678
      28A     -0.481238    29A     -0.480681    30A     -0.448227
      31A     -0.432116    32A     -0.396292

  @DF-RHF Final Energy:  -348.16025399830926

   => Energetics <=

    Nuclear Repulsion Energy =            400.3819166004441286
    One-Electron Energy =               -1266.1201949958106070
    Two-Electron Energy =                 517.5780243970572201
    Total Energy =                       -348.1602539983092583
  Basis Set: (AUG-CC-PVTZ AUX)
    Blend: AUG-CC-PVTZ-RI
    Molecular point group: c1

    Geometry (in Angstrom), charge = 0, multiplicity = 1:

       Center              X                  Y                   Z               Mass
    ------------   -----------------  -----------------  -----------------  -----------------
         O            0.002984026449    -0.607320873484     0.015792316176    15.994914619570
         C            0.939336026449     0.417073126516    -0.440798683824    12.000000000000
         C           -0.933350973551     0.417060126516     0.472454316176    12.000000000000
         C           -0.025405973551     1.497197926516    -0.134722383824    12.000000000000
         C            2.274705026449     0.292678126516     0.259199316176    12.000000000000
         C           -2.268746973551     0.292688126516    -0.227492683824    12.000000000000
         C            2.945332026449    -1.045027873484    -0.036390683824    12.000000000000
         C           -2.939357973551    -1.045030873484     0.068072316176    12.000000000000
         H            1.072286026449     0.347632126516    -1.530238683824     1.007825032230
         H           -1.066253973551     0.347585126516     1.561898316176     1.007825032230
         H            0.405258026449     2.178666126516     0.811634316176     1.007825032230
         H           -0.399295973551     2.178654126516    -0.779974683824     1.007825032230
         H            2.105137026449     0.399588126516     1.337445316176     1.007825032230
         H            2.914739026449     1.128605126516    -0.054029683824     1.007825032230
         H           -2.099220973551     0.399640126516    -1.305741683824     1.007825032230
         H           -2.908771973551     1.128600126516     0.085792316176     1.007825032230
         H            2.287577026449    -1.863287873484     0.265338316176     1.007825032230
         H            3.152692026449    -1.150101873484    -1.105988683824     1.007825032230
         H            3.891868026449    -1.143095873484     0.502443316176     1.007825032230
         H           -3.146657973551    -1.150155873484     1.137676316176     1.007825032230
         H           -3.885925973551    -1.143073873484    -0.470712683824     1.007825032230
         H           -2.281620973551    -1.863277873484    -0.233732683824     1.007825032230

  Basis Set: AUG-CC-PVTZ
    Blend: AUG-CC-PVTZ
  Basis Set: (AUG-CC-PVTZ AUX)
    Blend: AUG-CC-PVTZ-JKFIT
	 Reference Energy          =    -348.1602539983092583 [Eh]
	 Singles Energy            =      -0.0000000000000000 [Eh]
	 Same-Spin Energy          =      -0.3616460464127318 [Eh]
	 Opposite-Spin Energy      =      -1.2629455119009450 [Eh]
	 Correlation Energy        =      -1.6245915583136767 [Eh]
	 Total Energy              =    -349.7848455566229404 [Eh]

	 ================> DF-SCS-MP2 Energies <==================
	-----------------------------------------------------------
	 SCS Same-Spin Scale       =       0.3333333333333333 [-]
	 SCS Opposite-Spin Scale   =       1.2000000000000000 [-]
	 SCS Same-Spin Energy      =      -0.1205486821375773 [Eh]
	 SCS Opposite-Spin Energy  =      -1.5155346142811339 [Eh]
	 SCS Correlation Energy    =      -1.6360832964187111 [Eh]
	 SCS Total Energy          =    -349.7963372947279481 [Eh]
	-----------------------------------------------------------

  Dipole Moment: [D]
     X:    -0.0484      Y:     1.6439      Z:    -0.0837     Total:     1.6467

*** Psi4 exiting successfully. Buy a developer a beer!
