                               Psi4 1.4a3.dev225

  ==> Input File <==

--------------------------------------------------------------------------
#psi4
#
memory 32 gb

molecule  {
0 1
  O       -0.0000020    -0.6102900    -0.0000420
  C        0.9363500     0.4141040    -0.4566330
  C       -0.9363370     0.4140910     0.4566200
  C        0.0000010     1.5430250    -0.0000030
  C        2.2717190     0.2897090     0.2433650
  C       -2.2717330     0.2897190    -0.2433270
  C        2.9423460    -1.0479970    -0.0522250
  C       -2.9423440    -1.0480000     0.0522380
  H        1.0693000     0.3446630    -1.5460730
  H       -1.0692400     0.3446160     1.5460640
  H        0.4022720     2.1756970     0.7958000
  H       -0.4022820     2.1756850    -0.7958090
  H        2.1021510     0.3966190     1.3216110
  H        2.9117530     1.1256360    -0.0698640
  H       -2.1022070     0.3966710    -1.3215760
  H       -2.9117580     1.1256310     0.0699580
  H        2.2845910    -1.8662570     0.2495040
  H        3.1497060    -1.1530710    -1.1218230
  H        3.8888820    -1.1460650     0.4866090
  H       -3.0831130    -1.2463678     1.1194360
  H       -3.8889120    -1.1460430    -0.4865470
  H       -2.2846070    -1.8662470    -0.2495670
units angstrom
no_reorient  #important for SAPT in psi4, default
symmetry c1  #important for SAPT in psi4, default
}

set PROPERTIES_ORIGIN ["COM"]
properties('MP2/aug-cc-pvtz', properties = ['dipole'])
--------------------------------------------------------------------------

    Molecular point group: c1
  Charge       = 0
  Multiplicity = 1
  Basis Set: AUG-CC-PVTZ
    Blend: AUG-CC-PVTZ
  Basis Set: (AUG-CC-PVTZ AUX)
    Blend: AUG-CC-PVTZ-JKFIT

    Orbital Energies [Eh]
    ---------------------

    Doubly Occupied:

       1A    -20.538099     2A    -11.277139     3A    -11.277046
       4A    -11.224136     5A    -11.219613     6A    -11.218881
       7A    -11.207403     8A    -11.207048     9A     -1.365051
      10A     -1.059687    11A     -1.047331    12A     -0.994164
      13A     -0.913265    14A     -0.847803    15A     -0.805781
      16A     -0.736324    17A     -0.671692    18A     -0.665054
      19A     -0.607838    20A     -0.599655    21A     -0.583587
      22A     -0.560337    23A     -0.550776    24A     -0.522466
      25A     -0.521499    26A     -0.501892    27A     -0.490757
      28A     -0.481553    29A     -0.476663    30A     -0.446005
      31A     -0.432550    32A     -0.401753

  @DF-RHF Final Energy:  -348.18513795095674

   => Energetics <=

    Nuclear Repulsion Energy =            399.5216274568398944
    One-Electron Energy =               -1264.5078388383092260
    Two-Electron Energy =                 516.8010734305124743
    Total Energy =                       -348.1851379509568005
  Basis Set: (AUG-CC-PVTZ AUX)
    Blend: AUG-CC-PVTZ-RI
    Molecular point group: c1

    Geometry (in Angstrom), charge = 0, multiplicity = 1:

       Center              X                  Y                   Z               Mass
    ------------   -----------------  -----------------  -----------------  -----------------
         O           -0.000589607649    -0.611629048206    -0.000019681820    15.994914619570
         C            0.935762392351     0.412764951794    -0.456610681820    12.000000000000
         C           -0.936924607649     0.412751951794     0.456642318180    12.000000000000
         C           -0.000586607649     1.541685951794     0.000019318180    12.000000000000
         C            2.271131392351     0.288369951794     0.243387318180    12.000000000000
         C           -2.272320607649     0.288379951794    -0.243304681820    12.000000000000
         C            2.941758392351    -1.049336048206    -0.052202681820    12.000000000000
         C           -2.942931607649    -1.049339048206     0.052260318180    12.000000000000
         H            1.068712392351     0.343323951794    -1.546050681820     1.007825032230
         H           -1.069827607649     0.343276951794     1.546086318180     1.007825032230
         H            0.401684392351     2.174357951794     0.795822318180     1.007825032230
         H           -0.402869607649     2.174345951794    -0.795786681820     1.007825032230
         H            2.101563392351     0.395279951794     1.321633318180     1.007825032230
         H            2.911165392351     1.124296951794    -0.069841681820     1.007825032230
         H           -2.102794607649     0.395331951794    -1.321553681820     1.007825032230
         H           -2.912345607649     1.124291951794     0.069980318180     1.007825032230
         H            2.284003392351    -1.867596048206     0.249526318180     1.007825032230
         H            3.149118392351    -1.154410048206    -1.121800681820     1.007825032230
         H            3.888294392351    -1.147404048206     0.486631318180     1.007825032230
         H           -3.083700607649    -1.247706848206     1.119458318180     1.007825032230
         H           -3.889499607649    -1.147382048206    -0.486524681820     1.007825032230
         H           -2.285194607649    -1.867586048206    -0.249544681820     1.007825032230

  Basis Set: AUG-CC-PVTZ
    Blend: AUG-CC-PVTZ
  Basis Set: (AUG-CC-PVTZ AUX)
    Blend: AUG-CC-PVTZ-JKFIT
	 Reference Energy          =    -348.1851379509567437 [Eh]
	 Singles Energy            =      -0.0000000000000000 [Eh]
	 Same-Spin Energy          =      -0.3609706606118339 [Eh]
	 Opposite-Spin Energy      =      -1.2615035524370817 [Eh]
	 Correlation Energy        =      -1.6224742130489156 [Eh]
	 Total Energy              =    -349.8076121640056613 [Eh]

	 ================> DF-SCS-MP2 Energies <==================
	-----------------------------------------------------------
	 SCS Same-Spin Scale       =       0.3333333333333333 [-]
	 SCS Opposite-Spin Scale   =       1.2000000000000000 [-]
	 SCS Same-Spin Energy      =      -0.1203235535372780 [Eh]
	 SCS Opposite-Spin Energy  =      -1.5138042629244979 [Eh]
	 SCS Correlation Energy    =      -1.6341278164617759 [Eh]
	 SCS Total Energy          =    -349.8192657674185284 [Eh]
	-----------------------------------------------------------

  Dipole Moment: [D]
     X:     0.0280      Y:     1.6872      Z:     0.0022     Total:     1.6875

*** Psi4 exiting successfully. Buy a developer a beer!
