                               Psi4 1.4a3.dev225

  ==> Input File <==

--------------------------------------------------------------------------
#psi4
#
memory 32 gb

molecule  {
0 1
  O       -0.0000020    -0.6102900    -0.0000420
  C        0.9363500     0.4141040    -0.4566330
  C       -0.9363370     0.4140910     0.4566200
  C        0.0000010     1.5430250    -0.0000030
  C        2.2717190     0.2897090     0.2433650
  C       -2.2717330     0.2897190    -0.2433270
  C        2.9423460    -1.0479970    -0.0522250
  C       -2.9423440    -1.0480000     0.0522380
  H        1.0693000     0.3446630    -1.5460730
  H       -1.0692400     0.3446160     1.5460640
  H        0.4022720     2.1756970     0.7958000
  H       -0.4022820     2.1756850    -0.7958090
  H        2.1021510     0.3966190     1.3216110
  H        2.9117530     1.1256360    -0.0698640
  H       -2.1022070     0.3966710    -1.3215760
  H       -2.9117580     1.1256310     0.0699580
  H        2.2845910    -1.8662570     0.2495040
  H        3.1497060    -1.1530710    -1.1218230
  H        3.9754369    -1.1550327     0.5358820
  H       -3.1496440    -1.1531250     1.1218420
  H       -3.8889120    -1.1460430    -0.4865470
  H       -2.2846070    -1.8662470    -0.2495670
units angstrom
no_reorient  #important for SAPT in psi4, default
symmetry c1  #important for SAPT in psi4, default
}

set PROPERTIES_ORIGIN ["COM"]
properties('MP2/aug-cc-pvtz', properties = ['dipole'])
--------------------------------------------------------------------------

    Molecular point group: c1
  Charge       = 0
  Multiplicity = 1
  Basis Set: AUG-CC-PVTZ
    Blend: AUG-CC-PVTZ
  Basis Set: (AUG-CC-PVTZ AUX)
    Blend: AUG-CC-PVTZ-JKFIT

    Orbital Energies [Eh]
    ---------------------

    Doubly Occupied:

       1A    -20.538819     2A    -11.277972     3A    -11.277599
       4A    -11.224845     5A    -11.220146     6A    -11.219427
       7A    -11.219275     8A    -11.207722     9A     -1.365772
      10A     -1.059783    11A     -1.047481    12A     -0.993688
      13A     -0.910518    14A     -0.844285    15A     -0.804879
      16A     -0.736684    17A     -0.672421    18A     -0.665140
      19A     -0.608178    20A     -0.601740    21A     -0.581247
      22A     -0.556925    23A     -0.548455    24A     -0.522494
      25A     -0.520013    26A     -0.498212    27A     -0.488812
      28A     -0.481113    29A     -0.478710    30A     -0.447011
      31A     -0.432287    32A     -0.401942

  @DF-RHF Final Energy:  -348.17995135535159

   => Energetics <=

    Nuclear Repulsion Energy =            399.0917888891080452
    One-Electron Energy =               -1263.6362869630077057
    Two-Electron Energy =                 516.3645467185480129
    Total Energy =                       -348.1799513553515908
  Basis Set: (AUG-CC-PVTZ AUX)
    Blend: AUG-CC-PVTZ-RI
    Molecular point group: c1

    Geometry (in Angstrom), charge = 0, multiplicity = 1:

       Center              X                  Y                   Z               Mass
    ------------   -----------------  -----------------  -----------------  -----------------
         O           -0.000766468280    -0.612373406065    -0.000476135385    15.994914619570
         C            0.935585531720     0.412020593935    -0.457067135385    12.000000000000
         C           -0.937101468280     0.412007593935     0.456185864615    12.000000000000
         C           -0.000763468280     1.540941593935    -0.000437135385    12.000000000000
         C            2.270954531720     0.287625593935     0.242930864615    12.000000000000
         C           -2.272497468280     0.287635593935    -0.243761135385    12.000000000000
         C            2.941581531720    -1.050080406065    -0.052659135385    12.000000000000
         C           -2.943108468280    -1.050083406065     0.051803864615    12.000000000000
         H            1.068535531720     0.342579593935    -1.546507135385     1.007825032230
         H           -1.070004468280     0.342532593935     1.545629864615     1.007825032230
         H            0.401507531720     2.173613593935     0.795365864615     1.007825032230
         H           -0.403046468280     2.173601593935    -0.796243135385     1.007825032230
         H            2.101386531720     0.394535593935     1.321176864615     1.007825032230
         H            2.910988531720     1.123552593935    -0.070298135385     1.007825032230
         H           -2.102971468280     0.394587593935    -1.322010135385     1.007825032230
         H           -2.912522468280     1.123547593935     0.069523864615     1.007825032230
         H            2.283826531720    -1.868340406065     0.249069864615     1.007825032230
         H            3.148941531720    -1.155154406065    -1.122257135385     1.007825032230
         H            3.974672431720    -1.157116106065     0.535447864615     1.007825032230
         H           -3.150408468280    -1.155208406065     1.121407864615     1.007825032230
         H           -3.889676468280    -1.148126406065    -0.486981135385     1.007825032230
         H           -2.285371468280    -1.868330406065    -0.250001135385     1.007825032230

  Basis Set: AUG-CC-PVTZ
    Blend: AUG-CC-PVTZ
  Basis Set: (AUG-CC-PVTZ AUX)
    Blend: AUG-CC-PVTZ-JKFIT
	 Reference Energy          =    -348.1799513553515908 [Eh]
	 Singles Energy            =      -0.0000000000000000 [Eh]
	 Same-Spin Energy          =      -0.3608518844497294 [Eh]
	 Opposite-Spin Energy      =      -1.2621181999042284 [Eh]
	 Correlation Energy        =      -1.6229700843539576 [Eh]
	 Total Energy              =    -349.8029214397055284 [Eh]

	 ================> DF-SCS-MP2 Energies <==================
	-----------------------------------------------------------
	 SCS Same-Spin Scale       =       0.3333333333333333 [-]
	 SCS Opposite-Spin Scale   =       1.2000000000000000 [-]
	 SCS Same-Spin Energy      =      -0.1202839614832431 [Eh]
	 SCS Opposite-Spin Energy  =      -1.5145418398850741 [Eh]
	 SCS Correlation Energy    =      -1.6348258013683172 [Eh]
	 SCS Total Energy          =    -349.8147771567199129 [Eh]
	-----------------------------------------------------------

  Dipole Moment: [D]
     X:    -0.0862      Y:     1.7361      Z:    -0.0280     Total:     1.7384

*** Psi4 exiting successfully. Buy a developer a beer!
