                               Psi4 1.4a3.dev225

  ==> Input File <==

--------------------------------------------------------------------------
#psi4
#
memory 32 gb

molecule  {
0 1
  O       -0.0000020    -0.6102900    -0.0000420
  C        0.9363500     0.4141040    -0.4566330
  C       -0.9363370     0.4140910     0.4566200
  C        0.0000010     1.5430250    -0.0000030
  C        2.2717190     0.2897090     0.2433650
  C       -2.2717330     0.2897190    -0.2433270
  C        2.9423460    -1.0479970    -0.0522250
  C       -2.9423440    -1.0480000     0.0522380
  H        1.0693000     0.3446630    -1.5460730
  H       -1.0692400     0.3446160     1.5460640
  H        0.4022720     2.1756970     0.7958000
  H       -0.4022820     2.1756850    -0.7958090
  H        2.1330737     0.3771227     1.1249802
  H        2.9117530     1.1256360    -0.0698640
  H       -2.1022070     0.3966710    -1.3215760
  H       -2.9117580     1.1256310     0.0699580
  H        2.2845910    -1.8662570     0.2495040
  H        3.1497060    -1.1530710    -1.1218230
  H        3.8888820    -1.1460650     0.4866090
  H       -3.1496440    -1.1531250     1.1218420
  H       -3.8889120    -1.1460430    -0.4865470
  H       -2.2846070    -1.8662470    -0.2495670
units angstrom
no_reorient  #important for SAPT in psi4, default
symmetry c1  #important for SAPT in psi4, default
}

set PROPERTIES_ORIGIN ["COM"]
properties('MP2/aug-cc-pvtz', properties = ['dipole'])
--------------------------------------------------------------------------

    Molecular point group: c1
  Charge       = 0
  Multiplicity = 1
  Basis Set: AUG-CC-PVTZ
    Blend: AUG-CC-PVTZ
  Basis Set: (AUG-CC-PVTZ AUX)
    Blend: AUG-CC-PVTZ-JKFIT

    Orbital Energies [Eh]
    ---------------------

    Doubly Occupied:

       1A    -20.537987     2A    -11.277141     3A    -11.275325
       4A    -11.224156     5A    -11.218880     6A    -11.207389
       7A    -11.205599     8A    -11.193289     9A     -1.365019
      10A     -1.067848    11A     -1.050481    12A     -0.995335
      13A     -0.912525    14A     -0.855129    15A     -0.815795
      16A     -0.741960    17A     -0.671216    18A     -0.669388
      19A     -0.615065    20A     -0.602307    21A     -0.587021
      22A     -0.559868    23A     -0.551509    24A     -0.522504
      25A     -0.520762    26A     -0.507137    27A     -0.491465
      28A     -0.488033    29A     -0.479977    30A     -0.446033
      31A     -0.432640    32A     -0.401056

  @DF-RHF Final Energy:  -348.15314521476421

   => Energetics <=

    Nuclear Repulsion Energy =            400.5252395426651333
    One-Electron Energy =               -1266.3770894263773243
    Two-Electron Energy =                 517.6987046689480394
    Total Energy =                       -348.1531452147642085
  Basis Set: (AUG-CC-PVTZ AUX)
    Blend: AUG-CC-PVTZ-RI
    Molecular point group: c1

    Geometry (in Angstrom), charge = 0, multiplicity = 1:

       Center              X                  Y                   Z               Mass
    ------------   -----------------  -----------------  -----------------  -----------------
         O           -0.000275098168    -0.612280412451     0.001695804206    15.994914619570
         C            0.936076901832     0.412113587549    -0.454895195794    12.000000000000
         C           -0.936610098168     0.412100587549     0.458357804206    12.000000000000
         C           -0.000272098168     1.541034587549     0.001734804206    12.000000000000
         C            2.271445901832     0.287718587549     0.245102804206    12.000000000000
         C           -2.272006098168     0.287728587549    -0.241589195794    12.000000000000
         C            2.942072901832    -1.049987412451    -0.050487195794    12.000000000000
         C           -2.942617098168    -1.049990412451     0.053975804206    12.000000000000
         H            1.069026901832     0.342672587549    -1.544335195794     1.007825032230
         H           -1.069513098168     0.342625587549     1.547801804206     1.007825032230
         H            0.401998901832     2.173706587549     0.797537804206     1.007825032230
         H           -0.402555098168     2.173694587549    -0.794071195794     1.007825032230
         H            2.132800601832     0.375132287549     1.126718004206     1.007825032230
         H            2.911479901832     1.123645587549    -0.068126195794     1.007825032230
         H           -2.102480098168     0.394680587549    -1.319838195794     1.007825032230
         H           -2.912031098168     1.123640587549     0.071695804206     1.007825032230
         H            2.284317901832    -1.868247412451     0.251241804206     1.007825032230
         H            3.149432901832    -1.155061412451    -1.120085195794     1.007825032230
         H            3.888608901832    -1.148055412451     0.488346804206     1.007825032230
         H           -3.149917098168    -1.155115412451     1.123579804206     1.007825032230
         H           -3.889185098168    -1.148033412451    -0.484809195794     1.007825032230
         H           -2.284880098168    -1.868237412451    -0.247829195794     1.007825032230

  Basis Set: AUG-CC-PVTZ
    Blend: AUG-CC-PVTZ
  Basis Set: (AUG-CC-PVTZ AUX)
    Blend: AUG-CC-PVTZ-JKFIT
	 Reference Energy          =    -348.1531452147642085 [Eh]
	 Singles Energy            =      -0.0000000000000000 [Eh]
	 Same-Spin Energy          =      -0.3609315693316426 [Eh]
	 Opposite-Spin Energy      =      -1.2607610346614206 [Eh]
	 Correlation Energy        =      -1.6216926039930633 [Eh]
	 Total Energy              =    -349.7748378187572484 [Eh]

	 ================> DF-SCS-MP2 Energies <==================
	-----------------------------------------------------------
	 SCS Same-Spin Scale       =       0.3333333333333333 [-]
	 SCS Opposite-Spin Scale   =       1.2000000000000000 [-]
	 SCS Same-Spin Energy      =      -0.1203105231105475 [Eh]
	 SCS Opposite-Spin Energy  =      -1.5129132415937048 [Eh]
	 SCS Correlation Energy    =      -1.6332237647042522 [Eh]
	 SCS Total Energy          =    -349.7863689794684774 [Eh]
	-----------------------------------------------------------

  Dipole Moment: [D]
     X:    -0.0138      Y:     1.7462      Z:     0.0893     Total:     1.7486

*** Psi4 exiting successfully. Buy a developer a beer!
