                               Psi4 1.4a3.dev225

  ==> Input File <==

--------------------------------------------------------------------------
#psi4
#
memory 32 gb

molecule  {
0 1
  O       -0.0000020    -0.6102900    -0.0000420
  C        0.9363500     0.4141040    -0.4566330
  C       -0.9363370     0.4140910     0.4566200
  C        0.0000010     1.5430250    -0.0000030
  C        2.2717190     0.2897090     0.2433650
  C       -2.2717330     0.2897190    -0.2433270
  C        2.9423460    -1.0479970    -0.0522250
  C       -2.9423440    -1.0480000     0.0522380
  H        1.0693000     0.3446630    -1.5460730
  H       -1.0692400     0.3446160     1.5460640
  H        0.3838756     2.1467641     0.7594069
  H       -0.4022820     2.1756850    -0.7958090
  H        2.1021510     0.3966190     1.3216110
  H        2.9117530     1.1256360    -0.0698640
  H       -2.1022070     0.3966710    -1.3215760
  H       -2.9117580     1.1256310     0.0699580
  H        2.2845910    -1.8662570     0.2495040
  H        3.1497060    -1.1530710    -1.1218230
  H        3.8888820    -1.1460650     0.4866090
  H       -3.1496440    -1.1531250     1.1218420
  H       -3.8889120    -1.1460430    -0.4865470
  H       -2.2846070    -1.8662470    -0.2495670
units angstrom
no_reorient  #important for SAPT in psi4, default
symmetry c1  #important for SAPT in psi4, default
}

set PROPERTIES_ORIGIN ["COM"]
properties('MP2/aug-cc-pvtz', properties = ['dipole'])
--------------------------------------------------------------------------

    Molecular point group: c1
  Charge       = 0
  Multiplicity = 1
  Basis Set: AUG-CC-PVTZ
    Blend: AUG-CC-PVTZ
  Basis Set: (AUG-CC-PVTZ AUX)
    Blend: AUG-CC-PVTZ-JKFIT

    Orbital Energies [Eh]
    ---------------------

    Doubly Occupied:

       1A    -20.537673     2A    -11.276551     3A    -11.276501
       4A    -11.218838     5A    -11.218529     6A    -11.217922
       7A    -11.207360     8A    -11.207119     9A     -1.364597
      10A     -1.059580    11A     -1.048057    12A     -0.996292
      13A     -0.912963    14A     -0.848234    15A     -0.805030
      16A     -0.739000    17A     -0.672733    18A     -0.666199
      19A     -0.608589    20A     -0.601535    21A     -0.583887
      22A     -0.558677    23A     -0.553226    24A     -0.524960
      25A     -0.521040    26A     -0.498620    27A     -0.491811
      28A     -0.480442    29A     -0.480266    30A     -0.446393
      31A     -0.431992    32A     -0.401651

  @DF-RHF Final Energy:  -348.18548533351259

   => Energetics <=

    Nuclear Repulsion Energy =            399.7692292985327640
    One-Electron Energy =               -1264.9968957503633646
    Two-Electron Energy =                 517.0421811183180125
    Total Energy =                       -348.1854853335125881
  Basis Set: (AUG-CC-PVTZ AUX)
    Blend: AUG-CC-PVTZ-RI
    Molecular point group: c1

    Geometry (in Angstrom), charge = 0, multiplicity = 1:

       Center              X                  Y                   Z               Mass
    ------------   -----------------  -----------------  -----------------  -----------------
         O            0.000160511635    -0.612197063901     0.000280508450    15.994914619570
         C            0.936512511635     0.412196936099    -0.456310491550    12.000000000000
         C           -0.936174488365     0.412183936099     0.456942508450    12.000000000000
         C            0.000163511635     1.541117936099     0.000319508450    12.000000000000
         C            2.271881511635     0.287801936099     0.243687508450    12.000000000000
         C           -2.271570488365     0.287811936099    -0.243004491550    12.000000000000
         C            2.942508511635    -1.049904063901    -0.051902491550    12.000000000000
         C           -2.942181488365    -1.049907063901     0.052560508450    12.000000000000
         H            1.069462511635     0.342755936099    -1.545750491550     1.007825032230
         H           -1.069077488365     0.342708936099     1.546386508450     1.007825032230
         H            0.384038111635     2.144857036099     0.759729408450     1.007825032230
         H           -0.402119488365     2.173777936099    -0.795486491550     1.007825032230
         H            2.102313511635     0.394711936099     1.321933508450     1.007825032230
         H            2.911915511635     1.123728936099    -0.069541491550     1.007825032230
         H           -2.102044488365     0.394763936099    -1.321253491550     1.007825032230
         H           -2.911595488365     1.123723936099     0.070280508450     1.007825032230
         H            2.284753511635    -1.868164063901     0.249826508450     1.007825032230
         H            3.149868511635    -1.154978063901    -1.121500491550     1.007825032230
         H            3.889044511635    -1.147972063901     0.486931508450     1.007825032230
         H           -3.149481488365    -1.155032063901     1.122164508450     1.007825032230
         H           -3.888749488365    -1.147950063901    -0.486224491550     1.007825032230
         H           -2.284444488365    -1.868154063901    -0.249244491550     1.007825032230

  Basis Set: AUG-CC-PVTZ
    Blend: AUG-CC-PVTZ
  Basis Set: (AUG-CC-PVTZ AUX)
    Blend: AUG-CC-PVTZ-JKFIT
	 Reference Energy          =    -348.1854853335125881 [Eh]
	 Singles Energy            =      -0.0000000000000000 [Eh]
	 Same-Spin Energy          =      -0.3609043830072887 [Eh]
	 Opposite-Spin Energy      =      -1.2611681588485713 [Eh]
	 Correlation Energy        =      -1.6220725418558599 [Eh]
	 Total Energy              =    -349.8075578753684454 [Eh]

	 ================> DF-SCS-MP2 Energies <==================
	-----------------------------------------------------------
	 SCS Same-Spin Scale       =       0.3333333333333333 [-]
	 SCS Opposite-Spin Scale   =       1.2000000000000000 [-]
	 SCS Same-Spin Energy      =      -0.1203014610024296 [Eh]
	 SCS Opposite-Spin Energy  =      -1.5134017906182855 [Eh]
	 SCS Correlation Energy    =      -1.6337032516207151 [Eh]
	 SCS Total Energy          =    -349.8191885851333041 [Eh]
	-----------------------------------------------------------

  Dipole Moment: [D]
     X:     0.0116      Y:     1.7308      Z:     0.0128     Total:     1.7309

*** Psi4 exiting successfully. Buy a developer a beer!
