                               Psi4 1.4a3.dev225

  ==> Input File <==

--------------------------------------------------------------------------
#psi4
#
memory 32 gb

molecule  {
0 1
  O       -0.0000020    -0.6102900    -0.0000420
  C        0.9363500     0.4141040    -0.4566330
  C       -0.9363370     0.4140910     0.4566200
  C        0.0000010     1.5430250    -0.0000030
  C        2.2696452     0.2617384     0.3460693
  C       -2.2717330     0.2897190    -0.2433270
  C        2.9423460    -1.0479970    -0.0522250
  C       -2.9423440    -1.0480000     0.0522380
  H        1.0693000     0.3446630    -1.5460730
  H       -1.0692400     0.3446160     1.5460640
  H        0.4022720     2.1756970     0.7958000
  H       -0.4022820     2.1756850    -0.7958090
  H        2.1021510     0.3966190     1.3216110
  H        2.9117530     1.1256360    -0.0698640
  H       -2.1022070     0.3966710    -1.3215760
  H       -2.9117580     1.1256310     0.0699580
  H        2.2845910    -1.8662570     0.2495040
  H        3.1497060    -1.1530710    -1.1218230
  H        3.8888820    -1.1460650     0.4866090
  H       -3.1496440    -1.1531250     1.1218420
  H       -3.8889120    -1.1460430    -0.4865470
  H       -2.2846070    -1.8662470    -0.2495670
units angstrom
no_reorient  #important for SAPT in psi4, default
symmetry c1  #important for SAPT in psi4, default
}

set PROPERTIES_ORIGIN ["COM"]
properties('MP2/aug-cc-pvtz', properties = ['dipole'])
--------------------------------------------------------------------------

    Molecular point group: c1
  Charge       = 0
  Multiplicity = 1
  Basis Set: AUG-CC-PVTZ
    Blend: AUG-CC-PVTZ
  Basis Set: (AUG-CC-PVTZ AUX)
    Blend: AUG-CC-PVTZ-JKFIT

    Orbital Energies [Eh]
    ---------------------

    Doubly Occupied:

       1A    -20.536262     2A    -11.279173     3A    -11.276645
       4A    -11.223572     5A    -11.218710     6A    -11.218405
       7A    -11.207585     8A    -11.207238     9A     -1.363984
      10A     -1.057309    11A     -1.044818    12A     -0.994272
      13A     -0.910772    14A     -0.846198    15A     -0.810178
      16A     -0.737929    17A     -0.667583    18A     -0.665168
      19A     -0.610774    20A     -0.596439    21A     -0.585492
      22A     -0.561168    23A     -0.550404    24A     -0.525465
      25A     -0.521890    26A     -0.508304    27A     -0.486833
      28A     -0.486475    29A     -0.471220    30A     -0.444294
      31A     -0.430373    32A     -0.396036

  @DF-RHF Final Energy:  -348.17305122820665

   => Energetics <=

    Nuclear Repulsion Energy =            399.1289889410578553
    One-Electron Energy =               -1263.7221426578801129
    Two-Electron Energy =                 516.4201024886156119
    Total Energy =                       -348.1730512282066456
  Basis Set: (AUG-CC-PVTZ AUX)
    Blend: AUG-CC-PVTZ-RI
    Molecular point group: c1

    Geometry (in Angstrom), charge = 0, multiplicity = 1:

       Center              X                  Y                   Z               Mass
    ------------   -----------------  -----------------  -----------------  -----------------
         O            0.000216120743    -0.609511034928    -0.010842014024    15.994914619570
         C            0.936568120743     0.414882965072    -0.467433014024    12.000000000000
         C           -0.936118879257     0.414869965072     0.445819985976    12.000000000000
         C            0.000219120743     1.543803965072    -0.010803014024    12.000000000000
         C            2.269863320743     0.262517365072     0.335269285976    12.000000000000
         C           -2.271514879257     0.290497965072    -0.254127014024    12.000000000000
         C            2.942564120743    -1.047218034928    -0.063025014024    12.000000000000
         C           -2.942125879257    -1.047221034928     0.041437985976    12.000000000000
         H            1.069518120743     0.345441965072    -1.556873014024     1.007825032230
         H           -1.069021879257     0.345394965072     1.535263985976     1.007825032230
         H            0.402490120743     2.176475965072     0.784999985976     1.007825032230
         H           -0.402063879257     2.176463965072    -0.806609014024     1.007825032230
         H            2.102369120743     0.397397965072     1.310810985976     1.007825032230
         H            2.911971120743     1.126414965072    -0.080664014024     1.007825032230
         H           -2.101988879257     0.397449965072    -1.332376014024     1.007825032230
         H           -2.911539879257     1.126409965072     0.059157985976     1.007825032230
         H            2.284809120743    -1.865478034928     0.238703985976     1.007825032230
         H            3.149924120743    -1.152292034928    -1.132623014024     1.007825032230
         H            3.889100120743    -1.145286034928     0.475808985976     1.007825032230
         H           -3.149425879257    -1.152346034928     1.111041985976     1.007825032230
         H           -3.888693879257    -1.145264034928    -0.497347014024     1.007825032230
         H           -2.284388879257    -1.865468034928    -0.260367014024     1.007825032230

  Basis Set: AUG-CC-PVTZ
    Blend: AUG-CC-PVTZ
  Basis Set: (AUG-CC-PVTZ AUX)
    Blend: AUG-CC-PVTZ-JKFIT
	 Reference Energy          =    -348.1730512282066456 [Eh]
	 Singles Energy            =      -0.0000000000000000 [Eh]
	 Same-Spin Energy          =      -0.3608744484727670 [Eh]
	 Opposite-Spin Energy      =      -1.2618997805703551 [Eh]
	 Correlation Energy        =      -1.6227742290431220 [Eh]
	 Total Energy              =    -349.7958254572497481 [Eh]

	 ================> DF-SCS-MP2 Energies <==================
	-----------------------------------------------------------
	 SCS Same-Spin Scale       =       0.3333333333333333 [-]
	 SCS Opposite-Spin Scale   =       1.2000000000000000 [-]
	 SCS Same-Spin Energy      =      -0.1202914828242556 [Eh]
	 SCS Opposite-Spin Energy  =      -1.5142797366844261 [Eh]
	 SCS Correlation Energy    =      -1.6345712195086817 [Eh]
	 SCS Total Energy          =    -349.8076224477153460 [Eh]
	-----------------------------------------------------------

  Dipole Moment: [D]
     X:    -0.0440      Y:     1.6701      Z:     0.0125     Total:     1.6707

*** Psi4 exiting successfully. Buy a developer a beer!
