                               Psi4 1.4a3.dev225

  ==> Input File <==

--------------------------------------------------------------------------
#psi4
#
memory 32 gb

molecule  {
0 1
  O       -0.0000020    -0.6102900    -0.0000420
  C        0.9363500     0.4141040    -0.4566330
  C       -0.9363370     0.4140910     0.4566200
  C        0.0000010     1.5430250    -0.0000030
  C        2.2717190     0.2897090     0.2433650
  C       -2.2717330     0.2897190    -0.2433270
  C        3.0647896    -0.9640915    -0.1110284
  C       -2.9423440    -1.0480000     0.0522380
  H        1.0693000     0.3446630    -1.5460730
  H       -1.0692400     0.3446160     1.5460640
  H        0.4022720     2.1756970     0.7958000
  H       -0.4022820     2.1756850    -0.7958090
  H        2.1021510     0.3966190     1.3216110
  H        2.9117530     1.1256360    -0.0698640
  H       -2.1022070     0.3966710    -1.3215760
  H       -2.9117580     1.1256310     0.0699580
  H        2.2845910    -1.8662570     0.2495040
  H        3.1497060    -1.1530710    -1.1218230
  H        3.8888820    -1.1460650     0.4866090
  H       -3.1496440    -1.1531250     1.1218420
  H       -3.8889120    -1.1460430    -0.4865470
  H       -2.2846070    -1.8662470    -0.2495670
units angstrom
no_reorient  #important for SAPT in psi4, default
symmetry c1  #important for SAPT in psi4, default
}

set PROPERTIES_ORIGIN ["COM"]
properties('MP2/aug-cc-pvtz', properties = ['dipole'])
--------------------------------------------------------------------------

    Molecular point group: c1
  Charge       = 0
  Multiplicity = 1
  Basis Set: AUG-CC-PVTZ
    Blend: AUG-CC-PVTZ
  Basis Set: (AUG-CC-PVTZ AUX)
    Blend: AUG-CC-PVTZ-JKFIT

    Orbital Energies [Eh]
    ---------------------

    Doubly Occupied:

       1A    -20.538007     2A    -11.278808     3A    -11.277113
       4A    -11.225242     5A    -11.220680     6A    -11.218935
       7A    -11.211175     8A    -11.207293     9A     -1.364976
      10A     -1.059851    11A     -1.048171    12A     -0.994915
      13A     -0.915578    14A     -0.848910    15A     -0.805791
      16A     -0.737028    17A     -0.670683    18A     -0.666460
      19A     -0.612148    20A     -0.597851    21A     -0.595197
      22A     -0.568903    23A     -0.546687    24A     -0.526564
      25A     -0.517973    26A     -0.509427    27A     -0.490851
      28A     -0.482875    29A     -0.456268    30A     -0.436162
      31A     -0.432093    32A     -0.402175

  @DF-RHF Final Energy:  -348.16320821158217

   => Energetics <=

    Nuclear Repulsion Energy =            398.7341790281893736
    One-Electron Energy =               -1262.8651920708496164
    Two-Electron Energy =                 515.9678048310780696
    Total Energy =                       -348.1632082115821731
  Basis Set: (AUG-CC-PVTZ AUX)
    Blend: AUG-CC-PVTZ-RI
    Molecular point group: c1

    Geometry (in Angstrom), charge = 0, multiplicity = 1:

       Center              X                  Y                   Z               Mass
    ------------   -----------------  -----------------  -----------------  -----------------
         O           -0.012878974169    -0.621276684933     0.006143231897    15.994914619570
         C            0.923473025831     0.403117315067    -0.450447768103    12.000000000000
         C           -0.949213974169     0.403104315067     0.462805231897    12.000000000000
         C           -0.012875974169     1.532038315067     0.006182231897    12.000000000000
         C            2.258842025831     0.278722315067     0.249550231897    12.000000000000
         C           -2.284609974169     0.278732315067    -0.237141768103    12.000000000000
         C            3.051912625831    -0.975078184933    -0.104843168103    12.000000000000
         C           -2.955220974169    -1.058986684933     0.058423231897    12.000000000000
         H            1.056423025831     0.333676315067    -1.539887768103     1.007825032230
         H           -1.082116974169     0.333629315067     1.552249231897     1.007825032230
         H            0.389395025831     2.164710315067     0.801985231897     1.007825032230
         H           -0.415158974169     2.164698315067    -0.789623768103     1.007825032230
         H            2.089274025831     0.385632315067     1.327796231897     1.007825032230
         H            2.898876025831     1.114649315067    -0.063678768103     1.007825032230
         H           -2.115083974169     0.385684315067    -1.315390768103     1.007825032230
         H           -2.924634974169     1.114644315067     0.076143231897     1.007825032230
         H            2.271714025831    -1.877243684933     0.255689231897     1.007825032230
         H            3.136829025831    -1.164057684933    -1.115637768103     1.007825032230
         H            3.876005025831    -1.157051684933     0.492794231897     1.007825032230
         H           -3.162520974169    -1.164111684933     1.128027231897     1.007825032230
         H           -3.901788974169    -1.157029684933    -0.480361768103     1.007825032230
         H           -2.297483974169    -1.877233684933    -0.243381768103     1.007825032230

  Basis Set: AUG-CC-PVTZ
    Blend: AUG-CC-PVTZ
  Basis Set: (AUG-CC-PVTZ AUX)
    Blend: AUG-CC-PVTZ-JKFIT
	 Reference Energy          =    -348.1632082115821731 [Eh]
	 Singles Energy            =      -0.0000000000000000 [Eh]
	 Same-Spin Energy          =      -0.3613347683958253 [Eh]
	 Opposite-Spin Energy      =      -1.2626161256551660 [Eh]
	 Correlation Energy        =      -1.6239508940509912 [Eh]
	 Total Energy              =    -349.7871591056331795 [Eh]

	 ================> DF-SCS-MP2 Energies <==================
	-----------------------------------------------------------
	 SCS Same-Spin Scale       =       0.3333333333333333 [-]
	 SCS Opposite-Spin Scale   =       1.2000000000000000 [-]
	 SCS Same-Spin Energy      =      -0.1204449227986084 [Eh]
	 SCS Opposite-Spin Energy  =      -1.5151393507861992 [Eh]
	 SCS Correlation Energy    =      -1.6355842735848076 [Eh]
	 SCS Total Energy          =    -349.7987924851669845 [Eh]
	-----------------------------------------------------------

  Dipole Moment: [D]
     X:     0.0002      Y:     1.7545      Z:    -0.0219     Total:     1.7546

*** Psi4 exiting successfully. Buy a developer a beer!
