                               Psi4 1.4a3.dev225

  ==> Input File <==

--------------------------------------------------------------------------
#psi4
#
memory 32 gb

molecule  {
0 1
  O       -0.0000020    -0.6102900    -0.0000420
  C        0.9363500     0.4141040    -0.4566330
  C       -0.9363370     0.4140910     0.4566200
  C        0.0000010     1.5430250    -0.0000030
  C        2.2717190     0.2897090     0.2433650
  C       -2.2717330     0.2897190    -0.2433270
  C        2.9423460    -1.0479970    -0.0522250
  C       -2.9423440    -1.0480000     0.0522380
  H        1.0693000     0.3446630    -1.5460730
  H       -1.0692400     0.3446160     1.5460640
  H        0.4022720     2.1756970     0.7958000
  H       -0.4022820     2.1756850    -0.7958090
  H        2.1021510     0.3966190     1.3216110
  H        2.9117530     1.1256360    -0.0698640
  H       -2.1022070     0.3966710    -1.3215760
  H       -2.9117580     1.1256310     0.0699580
  H        2.2845910    -1.8662570     0.2495040
  H        3.1497060    -1.1530710    -1.1218230
  H        3.8888820    -1.1460650     0.4866090
  H       -3.1496440    -1.1531250     1.1218420
  H       -3.8889120    -1.1460430    -0.4865470
  H       -2.3448199    -1.7913401    -0.2219381
units angstrom
no_reorient  #important for SAPT in psi4, default
symmetry c1  #important for SAPT in psi4, default
}

set PROPERTIES_ORIGIN ["COM"]
properties('MP2/aug-cc-pvtz', properties = ['dipole'])
--------------------------------------------------------------------------

    Molecular point group: c1
  Charge       = 0
  Multiplicity = 1
  Basis Set: AUG-CC-PVTZ
    Blend: AUG-CC-PVTZ
  Basis Set: (AUG-CC-PVTZ AUX)
    Blend: AUG-CC-PVTZ-JKFIT

    Orbital Energies [Eh]
    ---------------------

    Doubly Occupied:

       1A    -20.538148     2A    -11.277039     3A    -11.276796
       4A    -11.223954     5A    -11.218848     6A    -11.217932
       7A    -11.207382     8A    -11.195320     9A     -1.365053
      10A     -1.061068    11A     -1.048189    12A     -0.995948
      13A     -0.917068    14A     -0.851032    15A     -0.806538
      16A     -0.736111    17A     -0.673025    18A     -0.664827
      19A     -0.607437    20A     -0.606706    21A     -0.584379
      22A     -0.558530    23A     -0.555918    24A     -0.525538
      25A     -0.520982    26A     -0.498867    27A     -0.495929
      28A     -0.482184    29A     -0.480341    30A     -0.446876
      31A     -0.432190    32A     -0.401554

  @DF-RHF Final Energy:  -348.18021018180451

   => Energetics <=

    Nuclear Repulsion Energy =            399.9003425897728903
    One-Electron Energy =               -1265.2176868861881758
    Two-Electron Energy =                 517.1371341146108307
    Total Energy =                       -348.1802101818044548
  Basis Set: (AUG-CC-PVTZ AUX)
    Blend: AUG-CC-PVTZ-RI
    Molecular point group: c1

    Geometry (in Angstrom), charge = 0, multiplicity = 1:

       Center              X                  Y                   Z               Mass
    ------------   -----------------  -----------------  -----------------  -----------------
         O            0.000529854898    -0.613114226518    -0.000284964375    15.994914619570
         C            0.936881854898     0.411279773482    -0.456875964375    12.000000000000
         C           -0.935805145102     0.411266773482     0.456377035625    12.000000000000
         C            0.000532854898     1.540200773482    -0.000245964375    12.000000000000
         C            2.272250854898     0.286884773482     0.243122035625    12.000000000000
         C           -2.271201145102     0.286894773482    -0.243569964375    12.000000000000
         C            2.942877854898    -1.050821226518    -0.052467964375    12.000000000000
         C           -2.941812145102    -1.050824226518     0.051995035625    12.000000000000
         H            1.069831854898     0.341838773482    -1.546315964375     1.007825032230
         H           -1.068708145102     0.341791773482     1.545821035625     1.007825032230
         H            0.402803854898     2.172872773482     0.795557035625     1.007825032230
         H           -0.401750145102     2.172860773482    -0.796051964375     1.007825032230
         H            2.102682854898     0.393794773482     1.321368035625     1.007825032230
         H            2.912284854898     1.122811773482    -0.070106964375     1.007825032230
         H           -2.101675145102     0.393846773482    -1.321818964375     1.007825032230
         H           -2.911226145102     1.122806773482     0.069715035625     1.007825032230
         H            2.285122854898    -1.869081226518     0.249261035625     1.007825032230
         H            3.150237854898    -1.155895226518    -1.122065964375     1.007825032230
         H            3.889413854898    -1.148889226518     0.486366035625     1.007825032230
         H           -3.149112145102    -1.155949226518     1.121599035625     1.007825032230
         H           -3.888380145102    -1.148867226518    -0.486789964375     1.007825032230
         H           -2.344288045102    -1.794164326518    -0.222181064375     1.007825032230

  Basis Set: AUG-CC-PVTZ
    Blend: AUG-CC-PVTZ
  Basis Set: (AUG-CC-PVTZ AUX)
    Blend: AUG-CC-PVTZ-JKFIT
	 Reference Energy          =    -348.1802101818045116 [Eh]
	 Singles Energy            =      -0.0000000000000000 [Eh]
	 Same-Spin Energy          =      -0.3609109096004470 [Eh]
	 Opposite-Spin Energy      =      -1.2609715958742367 [Eh]
	 Correlation Energy        =      -1.6218825054746837 [Eh]
	 Total Energy              =    -349.8020926872791847 [Eh]

	 ================> DF-SCS-MP2 Energies <==================
	-----------------------------------------------------------
	 SCS Same-Spin Scale       =       0.3333333333333333 [-]
	 SCS Opposite-Spin Scale   =       1.2000000000000000 [-]
	 SCS Same-Spin Energy      =      -0.1203036365334823 [Eh]
	 SCS Opposite-Spin Energy  =      -1.5131659150490839 [Eh]
	 SCS Correlation Energy    =      -1.6334695515825663 [Eh]
	 SCS Total Energy          =    -349.8136797333870618 [Eh]
	-----------------------------------------------------------

  Dipole Moment: [D]
     X:     0.0030      Y:     1.6703      Z:    -0.0067     Total:     1.6703

*** Psi4 exiting successfully. Buy a developer a beer!
