                               Psi4 1.4a3.dev225

  ==> Input File <==

--------------------------------------------------------------------------
#psi4
#
memory 32 gb

molecule  {
0 1
  O       -0.0000020    -0.6102900    -0.0000420
  C        0.9363500     0.4141040    -0.4566330
  C       -0.9363370     0.4140910     0.4566200
  C        0.0000010     1.5430250    -0.0000030
  C        2.4482572     0.2732638     0.3359060
  C       -2.2717330     0.2897190    -0.2433270
  C        2.9423460    -1.0479970    -0.0522250
  C       -2.9423440    -1.0480000     0.0522380
  H        1.0693000     0.3446630    -1.5460730
  H       -1.0692400     0.3446160     1.5460640
  H        0.4022720     2.1756970     0.7958000
  H       -0.4022820     2.1756850    -0.7958090
  H        2.1021510     0.3966190     1.3216110
  H        2.9117530     1.1256360    -0.0698640
  H       -2.1022070     0.3966710    -1.3215760
  H       -2.9117580     1.1256310     0.0699580
  H        2.2845910    -1.8662570     0.2495040
  H        3.1497060    -1.1530710    -1.1218230
  H        3.8888820    -1.1460650     0.4866090
  H       -3.1496440    -1.1531250     1.1218420
  H       -3.8889120    -1.1460430    -0.4865470
  H       -2.2846070    -1.8662470    -0.2495670
units angstrom
no_reorient  #important for SAPT in psi4, default
symmetry c1  #important for SAPT in psi4, default
}

set PROPERTIES_ORIGIN ["COM"]
properties('MP2/aug-cc-pvtz', properties = ['dipole'])
--------------------------------------------------------------------------

    Molecular point group: c1
  Charge       = 0
  Multiplicity = 1
  Basis Set: AUG-CC-PVTZ
    Blend: AUG-CC-PVTZ
  Basis Set: (AUG-CC-PVTZ AUX)
    Blend: AUG-CC-PVTZ-JKFIT

    Orbital Energies [Eh]
    ---------------------

    Doubly Occupied:

       1A    -20.538374     2A    -11.280777     3A    -11.276501
       4A    -11.223037     5A    -11.219701     6A    -11.218519
       7A    -11.207148     8A    -11.205595     9A     -1.362192
      10A     -1.055639    11A     -1.044922    12A     -0.996262
      13A     -0.907149    14A     -0.841807    15A     -0.809094
      16A     -0.733749    17A     -0.668118    18A     -0.661223
      19A     -0.615118    20A     -0.601363    21A     -0.580598
      22A     -0.559911    23A     -0.552589    24A     -0.538951
      25A     -0.520276    26A     -0.503060    27A     -0.496649
      28A     -0.483746    29A     -0.470541    30A     -0.447378
      31A     -0.427607    32A     -0.371901

  @DF-RHF Final Energy:  -348.15615412434556

   => Energetics <=

    Nuclear Repulsion Energy =            396.9251092193968589
    One-Electron Energy =               -1259.3235393385596126
    Two-Electron Energy =                 514.2422759948171915
    Total Energy =                       -348.1561541243455622
  Basis Set: (AUG-CC-PVTZ AUX)
    Blend: AUG-CC-PVTZ-RI
    Molecular point group: c1

    Geometry (in Angstrom), charge = 0, multiplicity = 1:

       Center              X                  Y                   Z               Mass
    ------------   -----------------  -----------------  -----------------  -----------------
         O           -0.018567929458    -0.610723124218    -0.009773172416    15.994914619570
         C            0.917784070542     0.413670875782    -0.466364172416    12.000000000000
         C           -0.954902929458     0.413657875782     0.446888827584    12.000000000000
         C           -0.018564929458     1.542591875782    -0.009734172416    12.000000000000
         C            2.429691270542     0.272830675782     0.326174827584    12.000000000000
         C           -2.290298929458     0.289285875782    -0.253058172416    12.000000000000
         C            2.923780070542    -1.048430124218    -0.061956172416    12.000000000000
         C           -2.960909929458    -1.048433124218     0.042506827584    12.000000000000
         H            1.050734070542     0.344229875782    -1.555804172416     1.007825032230
         H           -1.087805929458     0.344182875782     1.536332827584     1.007825032230
         H            0.383706070542     2.175263875782     0.786068827584     1.007825032230
         H           -0.420847929458     2.175251875782    -0.805540172416     1.007825032230
         H            2.083585070542     0.396185875782     1.311879827584     1.007825032230
         H            2.893187070542     1.125202875782    -0.079595172416     1.007825032230
         H           -2.120772929458     0.396237875782    -1.331307172416     1.007825032230
         H           -2.930323929458     1.125197875782     0.060226827584     1.007825032230
         H            2.266025070542    -1.866690124218     0.239772827584     1.007825032230
         H            3.131140070542    -1.153504124218    -1.131554172416     1.007825032230
         H            3.870316070542    -1.146498124218     0.476877827584     1.007825032230
         H           -3.168209929458    -1.153558124218     1.112110827584     1.007825032230
         H           -3.907477929458    -1.146476124218    -0.496278172416     1.007825032230
         H           -2.303172929458    -1.866680124218    -0.259298172416     1.007825032230

  Basis Set: AUG-CC-PVTZ
    Blend: AUG-CC-PVTZ
  Basis Set: (AUG-CC-PVTZ AUX)
    Blend: AUG-CC-PVTZ-JKFIT
	 Reference Energy          =    -348.1561541243455622 [Eh]
	 Singles Energy            =      -0.0000000000000000 [Eh]
	 Same-Spin Energy          =      -0.3617662815473871 [Eh]
	 Opposite-Spin Energy      =      -1.2637458732471989 [Eh]
	 Correlation Energy        =      -1.6255121547945861 [Eh]
	 Total Energy              =    -349.7816662791401541 [Eh]

	 ================> DF-SCS-MP2 Energies <==================
	-----------------------------------------------------------
	 SCS Same-Spin Scale       =       0.3333333333333333 [-]
	 SCS Opposite-Spin Scale   =       1.2000000000000000 [-]
	 SCS Same-Spin Energy      =      -0.1205887605157957 [Eh]
	 SCS Opposite-Spin Energy  =      -1.5164950478966386 [Eh]
	 SCS Correlation Energy    =      -1.6370838084124342 [Eh]
	 SCS Total Energy          =    -349.7932379327580179 [Eh]
	-----------------------------------------------------------

  Dipole Moment: [D]
     X:    -0.0900      Y:     1.6819      Z:    -0.0389     Total:     1.6848

*** Psi4 exiting successfully. Buy a developer a beer!
