                               Psi4 1.4a3.dev225

  ==> Input File <==

--------------------------------------------------------------------------
#psi4
#
memory 32 gb

molecule  {
0 1
  O       -0.0000020    -0.6102900    -0.0000420
  C        0.9363500     0.4141040    -0.4566330
  C       -0.9363370     0.4140910     0.4566200
  C        0.0000010     1.5430250    -0.0000030
  C        2.2717190     0.2897090     0.2433650
  C       -2.2717330     0.2897190    -0.2433270
  C        2.9840450    -1.0216148    -0.0722186
  C       -2.9423440    -1.0480000     0.0522380
  H        1.0693000     0.3446630    -1.5460730
  H       -1.0692400     0.3446160     1.5460640
  H        0.4022720     2.1756970     0.7958000
  H       -0.4022820     2.1756850    -0.7958090
  H        2.1021510     0.3966190     1.3216110
  H        2.9117530     1.1256360    -0.0698640
  H       -2.1022070     0.3966710    -1.3215760
  H       -2.9117580     1.1256310     0.0699580
  H        2.2845910    -1.8662570     0.2495040
  H        3.1497060    -1.1530710    -1.1218230
  H        3.8888820    -1.1460650     0.4866090
  H       -3.1496440    -1.1531250     1.1218420
  H       -3.8889120    -1.1460430    -0.4865470
  H       -2.2846070    -1.8662470    -0.2495670
units angstrom
no_reorient  #important for SAPT in psi4, default
symmetry c1  #important for SAPT in psi4, default
}

set PROPERTIES_ORIGIN ["COM"]
properties('MP2/aug-cc-pvtz', properties = ['dipole'])
--------------------------------------------------------------------------

    Molecular point group: c1
  Charge       = 0
  Multiplicity = 1
  Basis Set: AUG-CC-PVTZ
    Blend: AUG-CC-PVTZ
  Basis Set: (AUG-CC-PVTZ AUX)
    Blend: AUG-CC-PVTZ-JKFIT

    Orbital Energies [Eh]
    ---------------------

    Doubly Occupied:

       1A    -20.537983     2A    -11.277497     3A    -11.276985
       4A    -11.224402     5A    -11.219021     6A    -11.218835
       7A    -11.207645     8A    -11.207318     9A     -1.364914
      10A     -1.059597    11A     -1.047514    12A     -0.994282
      13A     -0.913775    14A     -0.847420    15A     -0.805068
      16A     -0.736217    17A     -0.671044    18A     -0.665275
      19A     -0.608433    20A     -0.598995    21A     -0.587412
      22A     -0.563052    23A     -0.549764    24A     -0.523234
      25A     -0.519266    26A     -0.502170    27A     -0.490104
      28A     -0.482283    29A     -0.472999    30A     -0.444652
      31A     -0.433715    32A     -0.401849

  @DF-RHF Final Energy:  -348.18344282567318

   => Energetics <=

    Nuclear Repulsion Energy =            399.2445909300592461
    One-Electron Energy =               -1263.9506263633602430
    Two-Electron Energy =                 516.5225926076277574
    Total Energy =                       -348.1834428256731826
  Basis Set: (AUG-CC-PVTZ AUX)
    Blend: AUG-CC-PVTZ-RI
    Molecular point group: c1

    Geometry (in Angstrom), charge = 0, multiplicity = 1:

       Center              X                  Y                   Z               Mass
    ------------   -----------------  -----------------  -----------------  -----------------
         O           -0.004387324001    -0.615227144281     0.002061729918    15.994914619570
         C            0.931964675999     0.409166855719    -0.454529270082    12.000000000000
         C           -0.940722324001     0.409153855719     0.458723729918    12.000000000000
         C           -0.004384324001     1.538087855719     0.002100729918    12.000000000000
         C            2.267333675999     0.284771855719     0.245468729918    12.000000000000
         C           -2.276118324001     0.284781855719    -0.241223270082    12.000000000000
         C            2.979659675999    -1.026551944281    -0.070114870082    12.000000000000
         C           -2.946729324001    -1.052937144281     0.054341729918    12.000000000000
         H            1.064914675999     0.339725855719    -1.543969270082     1.007825032230
         H           -1.073625324001     0.339678855719     1.548167729918     1.007825032230
         H            0.397886675999     2.170759855719     0.797903729918     1.007825032230
         H           -0.406667324001     2.170747855719    -0.793705270082     1.007825032230
         H            2.097765675999     0.391681855719     1.323714729918     1.007825032230
         H            2.907367675999     1.120698855719    -0.067760270082     1.007825032230
         H           -2.106592324001     0.391733855719    -1.319472270082     1.007825032230
         H           -2.916143324001     1.120693855719     0.072061729918     1.007825032230
         H            2.280205675999    -1.871194144281     0.251607729918     1.007825032230
         H            3.145320675999    -1.158008144281    -1.119719270082     1.007825032230
         H            3.884496675999    -1.151002144281     0.488712729918     1.007825032230
         H           -3.154029324001    -1.158062144281     1.123945729918     1.007825032230
         H           -3.893297324001    -1.150980144281    -0.484443270082     1.007825032230
         H           -2.288992324001    -1.871184144281    -0.247463270082     1.007825032230

  Basis Set: AUG-CC-PVTZ
    Blend: AUG-CC-PVTZ
  Basis Set: (AUG-CC-PVTZ AUX)
    Blend: AUG-CC-PVTZ-JKFIT
	 Reference Energy          =    -348.1834428256731826 [Eh]
	 Singles Energy            =      -0.0000000000000000 [Eh]
	 Same-Spin Energy          =      -0.3609741179191637 [Eh]
	 Opposite-Spin Energy      =      -1.2615964997663294 [Eh]
	 Correlation Energy        =      -1.6225706176854930 [Eh]
	 Total Energy              =    -349.8060134433586654 [Eh]

	 ================> DF-SCS-MP2 Energies <==================
	-----------------------------------------------------------
	 SCS Same-Spin Scale       =       0.3333333333333333 [-]
	 SCS Opposite-Spin Scale   =       1.2000000000000000 [-]
	 SCS Same-Spin Energy      =      -0.1203247059730546 [Eh]
	 SCS Opposite-Spin Energy  =      -1.5139157997195951 [Eh]
	 SCS Correlation Energy    =      -1.6342405056926497 [Eh]
	 SCS Total Energy          =    -349.8176833313658562 [Eh]
	-----------------------------------------------------------

  Dipole Moment: [D]
     X:     0.0032      Y:     1.7151      Z:    -0.0079     Total:     1.7151

*** Psi4 exiting successfully. Buy a developer a beer!
