                               Psi4 1.4a3.dev225

  ==> Input File <==

--------------------------------------------------------------------------
#psi4
#
memory 32 gb

molecule  {
0 1
  O        0.0665066    -0.6804630    -0.0324761
  C        0.9363500     0.4141040    -0.4566330
  C       -0.9363370     0.4140910     0.4566200
  C        0.0000010     1.5430250    -0.0000030
  C        2.2717190     0.2897090     0.2433650
  C       -2.2717330     0.2897190    -0.2433270
  C        2.9423460    -1.0479970    -0.0522250
  C       -2.9423440    -1.0480000     0.0522380
  H        1.0693000     0.3446630    -1.5460730
  H       -1.0692400     0.3446160     1.5460640
  H        0.4022720     2.1756970     0.7958000
  H       -0.4022820     2.1756850    -0.7958090
  H        2.1021510     0.3966190     1.3216110
  H        2.9117530     1.1256360    -0.0698640
  H       -2.1022070     0.3966710    -1.3215760
  H       -2.9117580     1.1256310     0.0699580
  H        2.2845910    -1.8662570     0.2495040
  H        3.1497060    -1.1530710    -1.1218230
  H        3.8888820    -1.1460650     0.4866090
  H       -3.1496440    -1.1531250     1.1218420
  H       -3.8889120    -1.1460430    -0.4865470
  H       -2.2846070    -1.8662470    -0.2495670
units angstrom
no_reorient  #important for SAPT in psi4, default
symmetry c1  #important for SAPT in psi4, default
}

set PROPERTIES_ORIGIN ["COM"]
properties('MP2/aug-cc-pvtz', properties = ['dipole'])
--------------------------------------------------------------------------

    Molecular point group: c1
  Charge       = 0
  Multiplicity = 1
  Basis Set: AUG-CC-PVTZ
    Blend: AUG-CC-PVTZ
  Basis Set: (AUG-CC-PVTZ AUX)
    Blend: AUG-CC-PVTZ-JKFIT

    Orbital Energies [Eh]
    ---------------------

    Doubly Occupied:

       1A    -20.536959     2A    -11.289200     3A    -11.274393
       4A    -11.227759     5A    -11.224818     6A    -11.215433
       7A    -11.209678     8A    -11.203912     9A     -1.337482
      10A     -1.062291    11A     -1.047216    12A     -0.997369
      13A     -0.909290    14A     -0.847510    15A     -0.800522
      16A     -0.740425    17A     -0.664494    18A     -0.659874
      19A     -0.604202    20A     -0.600610    21A     -0.584658
      22A     -0.558535    23A     -0.543543    24A     -0.521821
      25A     -0.516942    26A     -0.495710    27A     -0.492915
      28A     -0.481411    29A     -0.477895    30A     -0.450076
      31A     -0.427557    32A     -0.403766

  @DF-RHF Final Energy:  -348.17568953814106

   => Energetics <=

    Nuclear Repulsion Energy =            397.7235840064483341
    One-Electron Energy =               -1260.9820075309346521
    Two-Electron Energy =                 515.0827339863452607
    Total Energy =                       -348.1756895381410004
  Basis Set: (AUG-CC-PVTZ AUX)
    Blend: AUG-CC-PVTZ-RI
    Molecular point group: c1

    Geometry (in Angstrom), charge = 0, multiplicity = 1:

       Center              X                  Y                   Z               Mass
    ------------   -----------------  -----------------  -----------------  -----------------
         O            0.057183595619    -0.672788915240    -0.027928491482    15.994914619570
         C            0.927026995619     0.421778084760    -0.452085391482    12.000000000000
         C           -0.945660004381     0.421765084760     0.461167608518    12.000000000000
         C           -0.009322004381     1.550699084760     0.004544608518    12.000000000000
         C            2.262395995619     0.297383084760     0.247912608518    12.000000000000
         C           -2.281056004381     0.297393084760    -0.238779391482    12.000000000000
         C            2.933022995619    -1.040322915240    -0.047677391482    12.000000000000
         C           -2.951667004381    -1.040325915240     0.056785608518    12.000000000000
         H            1.059976995619     0.352337084760    -1.541525391482     1.007825032230
         H           -1.078563004381     0.352290084760     1.550611608518     1.007825032230
         H            0.392948995619     2.183371084760     0.800347608518     1.007825032230
         H           -0.411605004381     2.183359084760    -0.791261391482     1.007825032230
         H            2.092827995619     0.404293084760     1.326158608518     1.007825032230
         H            2.902429995619     1.133310084760    -0.065316391482     1.007825032230
         H           -2.111530004381     0.404345084760    -1.317028391482     1.007825032230
         H           -2.921081004381     1.133305084760     0.074505608518     1.007825032230
         H            2.275267995619    -1.858582915240     0.254051608518     1.007825032230
         H            3.140382995619    -1.145396915240    -1.117275391482     1.007825032230
         H            3.879558995619    -1.138390915240     0.491156608518     1.007825032230
         H           -3.158967004381    -1.145450915240     1.126389608518     1.007825032230
         H           -3.898235004381    -1.138368915240    -0.481999391482     1.007825032230
         H           -2.293930004381    -1.858572915240    -0.245019391482     1.007825032230

  Basis Set: AUG-CC-PVTZ
    Blend: AUG-CC-PVTZ
  Basis Set: (AUG-CC-PVTZ AUX)
    Blend: AUG-CC-PVTZ-JKFIT
	 Reference Energy          =    -348.1756895381410573 [Eh]
	 Singles Energy            =      -0.0000000000000000 [Eh]
	 Same-Spin Energy          =      -0.3620697925524591 [Eh]
	 Opposite-Spin Energy      =      -1.2649186549924858 [Eh]
	 Correlation Energy        =      -1.6269884475449450 [Eh]
	 Total Energy              =    -349.8026779856859889 [Eh]

	 ================> DF-SCS-MP2 Energies <==================
	-----------------------------------------------------------
	 SCS Same-Spin Scale       =       0.3333333333333333 [-]
	 SCS Opposite-Spin Scale   =       1.2000000000000000 [-]
	 SCS Same-Spin Energy      =      -0.1206899308508197 [Eh]
	 SCS Opposite-Spin Energy  =      -1.5179023859909828 [Eh]
	 SCS Correlation Energy    =      -1.6385923168418024 [Eh]
	 SCS Total Energy          =    -349.8142818549828803 [Eh]
	-----------------------------------------------------------

  Dipole Moment: [D]
     X:    -0.3713      Y:     1.9030      Z:     0.1016     Total:     1.9415

*** Psi4 exiting successfully. Buy a developer a beer!
