                               Psi4 1.4a3.dev225

  ==> Input File <==

--------------------------------------------------------------------------
#psi4
#
memory 32 gb

molecule  {
0 1
  O       -0.0000020    -0.6102900    -0.0000420
  C        0.9363500     0.4141040    -0.4566330
  C       -0.9363370     0.4140910     0.4566200
  C        0.0000010     1.5430250    -0.0000030
  C        2.2717190     0.2897090     0.2433650
  C       -2.2717330     0.2897190    -0.2433270
  C        3.0248761    -0.9936349    -0.0918277
  C       -2.9423440    -1.0480000     0.0522380
  H        1.0693000     0.3446630    -1.5460730
  H       -1.0692400     0.3446160     1.5460640
  H        0.4022720     2.1756970     0.7958000
  H       -0.4022820     2.1756850    -0.7958090
  H        2.1021510     0.3966190     1.3216110
  H        2.9117530     1.1256360    -0.0698640
  H       -2.1022070     0.3966710    -1.3215760
  H       -2.9117580     1.1256310     0.0699580
  H        2.2845910    -1.8662570     0.2495040
  H        3.1497060    -1.1530710    -1.1218230
  H        3.8888820    -1.1460650     0.4866090
  H       -3.1496440    -1.1531250     1.1218420
  H       -3.8889120    -1.1460430    -0.4865470
  H       -2.2846070    -1.8662470    -0.2495670
units angstrom
no_reorient  #important for SAPT in psi4, default
symmetry c1  #important for SAPT in psi4, default
}

set PROPERTIES_ORIGIN ["COM"]
properties('MP2/aug-cc-pvtz', properties = ['dipole'])
--------------------------------------------------------------------------

    Molecular point group: c1
  Charge       = 0
  Multiplicity = 1
  Basis Set: AUG-CC-PVTZ
    Blend: AUG-CC-PVTZ
  Basis Set: (AUG-CC-PVTZ AUX)
    Blend: AUG-CC-PVTZ-JKFIT

    Orbital Energies [Eh]
    ---------------------

    Doubly Occupied:

       1A    -20.537960     2A    -11.278107     3A    -11.277027
       4A    -11.224797     5A    -11.219652     6A    -11.218871
       7A    -11.208917     8A    -11.207297     9A     -1.364909
      10A     -1.059627    11A     -1.047776    12A     -0.994525
      13A     -0.914595    14A     -0.848057    15A     -0.805331
      16A     -0.736570    17A     -0.670706    18A     -0.665786
      19A     -0.609849    20A     -0.596862    21A     -0.592355
      22A     -0.566462    23A     -0.548057    24A     -0.524870
      25A     -0.518236    26A     -0.506151    27A     -0.490365
      28A     -0.482728    29A     -0.462990    30A     -0.440847
      31A     -0.434941    32A     -0.402045

  @DF-RHF Final Energy:  -348.17538245966011

   => Energetics <=

    Nuclear Repulsion Energy =            398.9855338808284841
    One-Electron Energy =               -1263.4072983501282579
    Two-Electron Energy =                 516.2463820096396603
    Total Energy =                       -348.1753824596601135
  Basis Set: (AUG-CC-PVTZ AUX)
    Blend: AUG-CC-PVTZ-RI
    Molecular point group: c1

    Geometry (in Angstrom), charge = 0, multiplicity = 1:

       Center              X                  Y                   Z               Mass
    ------------   -----------------  -----------------  -----------------  -----------------
         O           -0.008681399607    -0.618169700471     0.004123955966    15.994914619570
         C            0.927670600393     0.406224299529    -0.452467044034    12.000000000000
         C           -0.945016399607     0.406211299529     0.460785955966    12.000000000000
         C           -0.008678399607     1.535145299529     0.004162955966    12.000000000000
         C            2.263039600393     0.281829299529     0.247530955966    12.000000000000
         C           -2.280412399607     0.281839299529    -0.239161044034    12.000000000000
         C            3.016196700393    -1.001514600471    -0.087661744034    12.000000000000
         C           -2.951023399607    -1.055879700471     0.056403955966    12.000000000000
         H            1.060620600393     0.336783299529    -1.541907044034     1.007825032230
         H           -1.077919399607     0.336736299529     1.550229955966     1.007825032230
         H            0.393592600393     2.167817299529     0.799965955966     1.007825032230
         H           -0.410961399607     2.167805299529    -0.791643044034     1.007825032230
         H            2.093471600393     0.388739299529     1.325776955966     1.007825032230
         H            2.903073600393     1.117756299529    -0.065698044034     1.007825032230
         H           -2.110886399607     0.388791299529    -1.317410044034     1.007825032230
         H           -2.920437399607     1.117751299529     0.074123955966     1.007825032230
         H            2.275911600393    -1.874136700471     0.253669955966     1.007825032230
         H            3.141026600393    -1.160950700471    -1.117657044034     1.007825032230
         H            3.880202600393    -1.153944700471     0.490774955966     1.007825032230
         H           -3.158323399607    -1.161004700471     1.126007955966     1.007825032230
         H           -3.897591399607    -1.153922700471    -0.482381044034     1.007825032230
         H           -2.293286399607    -1.874126700471    -0.245401044034     1.007825032230

  Basis Set: AUG-CC-PVTZ
    Blend: AUG-CC-PVTZ
  Basis Set: (AUG-CC-PVTZ AUX)
    Blend: AUG-CC-PVTZ-JKFIT
	 Reference Energy          =    -348.1753824596601135 [Eh]
	 Singles Energy            =      -0.0000000000000000 [Eh]
	 Same-Spin Energy          =      -0.3611128562203140 [Eh]
	 Opposite-Spin Energy      =      -1.2619816871338467 [Eh]
	 Correlation Energy        =      -1.6230945433541608 [Eh]
	 Total Energy              =    -349.7984770030142840 [Eh]

	 ================> DF-SCS-MP2 Energies <==================
	-----------------------------------------------------------
	 SCS Same-Spin Scale       =       0.3333333333333333 [-]
	 SCS Opposite-Spin Scale   =       1.2000000000000000 [-]
	 SCS Same-Spin Energy      =      -0.1203709520734380 [Eh]
	 SCS Opposite-Spin Energy  =      -1.5143780245606160 [Eh]
	 SCS Correlation Energy    =      -1.6347489766340539 [Eh]
	 SCS Total Energy          =    -349.8101314362941707 [Eh]
	-----------------------------------------------------------

  Dipole Moment: [D]
     X:     0.0035      Y:     1.7314      Z:    -0.0154     Total:     1.7314

*** Psi4 exiting successfully. Buy a developer a beer!
