                               Psi4 1.4a3.dev225

  ==> Input File <==

--------------------------------------------------------------------------
#psi4
#
memory 32 gb

molecule  {
0 1
  O       -0.0000020    -0.6102900    -0.0000420
  C        0.9363500     0.4141040    -0.4566330
  C       -0.9363370     0.4140910     0.4566200
  C        0.0132450     1.5687117     0.1032498
  C        2.2717190     0.2897090     0.2433650
  C       -2.2717330     0.2897190    -0.2433270
  C        2.9423460    -1.0479970    -0.0522250
  C       -2.9423440    -1.0480000     0.0522380
  H        1.0693000     0.3446630    -1.5460730
  H       -1.0692400     0.3446160     1.5460640
  H        0.4022720     2.1756970     0.7958000
  H       -0.4022820     2.1756850    -0.7958090
  H        2.1021510     0.3966190     1.3216110
  H        2.9117530     1.1256360    -0.0698640
  H       -2.1022070     0.3966710    -1.3215760
  H       -2.9117580     1.1256310     0.0699580
  H        2.2845910    -1.8662570     0.2495040
  H        3.1497060    -1.1530710    -1.1218230
  H        3.8888820    -1.1460650     0.4866090
  H       -3.1496440    -1.1531250     1.1218420
  H       -3.8889120    -1.1460430    -0.4865470
  H       -2.2846070    -1.8662470    -0.2495670
units angstrom
no_reorient  #important for SAPT in psi4, default
symmetry c1  #important for SAPT in psi4, default
}

set PROPERTIES_ORIGIN ["COM"]
properties('MP2/aug-cc-pvtz', properties = ['dipole'])
--------------------------------------------------------------------------

    Molecular point group: c1
  Charge       = 0
  Multiplicity = 1
  Basis Set: AUG-CC-PVTZ
    Blend: AUG-CC-PVTZ
  Basis Set: (AUG-CC-PVTZ AUX)
    Blend: AUG-CC-PVTZ-JKFIT

    Orbital Energies [Eh]
    ---------------------

    Doubly Occupied:

       1A    -20.539091     2A    -11.280110     3A    -11.278646
       4A    -11.224557     5A    -11.219984     6A    -11.218076
       7A    -11.207960     8A    -11.206908     9A     -1.363665
      10A     -1.059576    11A     -1.046895    12A     -0.993144
      13A     -0.912305    14A     -0.848742    15A     -0.804285
      16A     -0.742410    17A     -0.673630    18A     -0.664382
      19A     -0.606778    20A     -0.601214    21A     -0.582262
      22A     -0.559509    23A     -0.552262    24A     -0.528763
      25A     -0.518228    26A     -0.498891    27A     -0.491547
      28A     -0.480600    29A     -0.480357    30A     -0.446918
      31A     -0.423696    32A     -0.401352

  @DF-RHF Final Energy:  -348.17276629996616

   => Energetics <=

    Nuclear Repulsion Energy =            398.9400694040564304
    One-Electron Energy =               -1263.3121853496454605
    Two-Electron Energy =                 516.1993496456228740
    Total Energy =                       -348.1727662999661561
  Basis Set: (AUG-CC-PVTZ AUX)
    Blend: AUG-CC-PVTZ-RI
    Molecular point group: c1

    Geometry (in Angstrom), charge = 0, multiplicity = 1:

       Center              X                  Y                   Z               Mass
    ------------   -----------------  -----------------  -----------------  -----------------
         O           -0.001394803070    -0.615154000780    -0.010899698007    15.994914619570
         C            0.934957196930     0.409239999220    -0.467490698007    12.000000000000
         C           -0.937729803070     0.409226999220     0.445762301993    12.000000000000
         C            0.011852196930     1.563847699220     0.092392101993    12.000000000000
         C            2.270326196930     0.284844999220     0.232507301993    12.000000000000
         C           -2.273125803070     0.284854999220    -0.254184698007    12.000000000000
         C            2.940953196930    -1.052861000780    -0.063082698007    12.000000000000
         C           -2.943736803070    -1.052864000780     0.041380301993    12.000000000000
         H            1.067907196930     0.339798999220    -1.556930698007     1.007825032230
         H           -1.070632803070     0.339751999220     1.535206301993     1.007825032230
         H            0.400879196930     2.170832999220     0.784942301993     1.007825032230
         H           -0.403674803070     2.170820999220    -0.806666698007     1.007825032230
         H            2.100758196930     0.391754999220     1.310753301993     1.007825032230
         H            2.910360196930     1.120771999220    -0.080721698007     1.007825032230
         H           -2.103599803070     0.391806999220    -1.332433698007     1.007825032230
         H           -2.913150803070     1.120766999220     0.059100301993     1.007825032230
         H            2.283198196930    -1.871121000780     0.238646301993     1.007825032230
         H            3.148313196930    -1.157935000780    -1.132680698007     1.007825032230
         H            3.887489196930    -1.150929000780     0.475751301993     1.007825032230
         H           -3.151036803070    -1.157989000780     1.110984301993     1.007825032230
         H           -3.890304803070    -1.150907000780    -0.497404698007     1.007825032230
         H           -2.285999803070    -1.871111000780    -0.260424698007     1.007825032230

  Basis Set: AUG-CC-PVTZ
    Blend: AUG-CC-PVTZ
  Basis Set: (AUG-CC-PVTZ AUX)
    Blend: AUG-CC-PVTZ-JKFIT
	 Reference Energy          =    -348.1727662999661561 [Eh]
	 Singles Energy            =      -0.0000000000000000 [Eh]
	 Same-Spin Energy          =      -0.3610602668065761 [Eh]
	 Opposite-Spin Energy      =      -1.2622019072934685 [Eh]
	 Correlation Energy        =      -1.6232621741000446 [Eh]
	 Total Energy              =    -349.7960284740661905 [Eh]

	 ================> DF-SCS-MP2 Energies <==================
	-----------------------------------------------------------
	 SCS Same-Spin Scale       =       0.3333333333333333 [-]
	 SCS Opposite-Spin Scale   =       1.2000000000000000 [-]
	 SCS Same-Spin Energy      =      -0.1203534222688587 [Eh]
	 SCS Opposite-Spin Energy  =      -1.5146422887521622 [Eh]
	 SCS Correlation Energy    =      -1.6349957110210209 [Eh]
	 SCS Total Energy          =    -349.8077620109871759 [Eh]
	-----------------------------------------------------------

  Dipole Moment: [D]
     X:     0.0314      Y:     1.6756      Z:     0.0410     Total:     1.6764

*** Psi4 exiting successfully. Buy a developer a beer!
