                               Psi4 1.4a3.dev225

  ==> Input File <==

--------------------------------------------------------------------------
#psi4
#
memory 32 gb

molecule  {
0 1
  O       -0.0000020    -0.6102900    -0.0000420
  C        0.9730606     0.5014927    -0.5031708
  C       -0.9363370     0.4140910     0.4566200
  C        0.0000010     1.5430250    -0.0000030
  C        2.2717190     0.2897090     0.2433650
  C       -2.2717330     0.2897190    -0.2433270
  C        2.9423460    -1.0479970    -0.0522250
  C       -2.9423440    -1.0480000     0.0522380
  H        1.0693000     0.3446630    -1.5460730
  H       -1.0692400     0.3446160     1.5460640
  H        0.4022720     2.1756970     0.7958000
  H       -0.4022820     2.1756850    -0.7958090
  H        2.1021510     0.3966190     1.3216110
  H        2.9117530     1.1256360    -0.0698640
  H       -2.1022070     0.3966710    -1.3215760
  H       -2.9117580     1.1256310     0.0699580
  H        2.2845910    -1.8662570     0.2495040
  H        3.1497060    -1.1530710    -1.1218230
  H        3.8888820    -1.1460650     0.4866090
  H       -3.1496440    -1.1531250     1.1218420
  H       -3.8889120    -1.1460430    -0.4865470
  H       -2.2846070    -1.8662470    -0.2495670
units angstrom
no_reorient  #important for SAPT in psi4, default
symmetry c1  #important for SAPT in psi4, default
}

set PROPERTIES_ORIGIN ["COM"]
properties('MP2/aug-cc-pvtz', properties = ['dipole'])
--------------------------------------------------------------------------

    Molecular point group: c1
  Charge       = 0
  Multiplicity = 1
  Basis Set: AUG-CC-PVTZ
    Blend: AUG-CC-PVTZ
  Basis Set: (AUG-CC-PVTZ AUX)
    Blend: AUG-CC-PVTZ-JKFIT

    Orbital Energies [Eh]
    ---------------------

    Doubly Occupied:

       1A    -20.528111     2A    -11.279984     3A    -11.272355
       4A    -11.226998     5A    -11.222943     6A    -11.216136
       7A    -11.209495     8A    -11.205084     9A     -1.335146
      10A     -1.060965    11A     -1.045675    12A     -0.996780
      13A     -0.913476    14A     -0.848714    15A     -0.804898
      16A     -0.740004    17A     -0.663816    18A     -0.658397
      19A     -0.605571    20A     -0.598168    21A     -0.587265
      22A     -0.563072    23A     -0.542009    24A     -0.521615
      25A     -0.517007    26A     -0.495580    27A     -0.489925
      28A     -0.484706    29A     -0.476577    30A     -0.451106
      31A     -0.424380    32A     -0.400239

  @DF-RHF Final Energy:  -348.17564897183701

   => Energetics <=

    Nuclear Repulsion Energy =            398.1962650792908676
    One-Electron Energy =               -1261.9714324304468391
    Two-Electron Energy =                 515.5995183793188517
    Total Energy =                       -348.1756489718370631
  Basis Set: (AUG-CC-PVTZ AUX)
    Blend: AUG-CC-PVTZ-RI
    Molecular point group: c1

    Geometry (in Angstrom), charge = 0, multiplicity = 1:

       Center              X                  Y                   Z               Mass
    ------------   -----------------  -----------------  -----------------  -----------------
         O           -0.003862710000    -0.621643001886     0.004853298152    15.994914619570
         C            0.969199890000     0.490139698114    -0.498275501848    12.000000000000
         C           -0.940197710000     0.402737998114     0.461515298152    12.000000000000
         C           -0.003859710000     1.531671998114     0.004892298152    12.000000000000
         C            2.267858290000     0.278355998114     0.248260298152    12.000000000000
         C           -2.275593710000     0.278365998114    -0.238431701848    12.000000000000
         C            2.938485290000    -1.059350001886    -0.047329701848    12.000000000000
         C           -2.946204710000    -1.059353001886     0.057133298152    12.000000000000
         H            1.065439290000     0.333309998114    -1.541177701848     1.007825032230
         H           -1.073100710000     0.333262998114     1.550959298152     1.007825032230
         H            0.398411290000     2.164343998114     0.800695298152     1.007825032230
         H           -0.406142710000     2.164331998114    -0.790913701848     1.007825032230
         H            2.098290290000     0.385265998114     1.326506298152     1.007825032230
         H            2.907892290000     1.114282998114    -0.064968701848     1.007825032230
         H           -2.106067710000     0.385317998114    -1.316680701848     1.007825032230
         H           -2.915618710000     1.114277998114     0.074853298152     1.007825032230
         H            2.280730290000    -1.877610001886     0.254399298152     1.007825032230
         H            3.145845290000    -1.164424001886    -1.116927701848     1.007825032230
         H            3.885021290000    -1.157418001886     0.491504298152     1.007825032230
         H           -3.153504710000    -1.164478001886     1.126737298152     1.007825032230
         H           -3.892772710000    -1.157396001886    -0.481651701848     1.007825032230
         H           -2.288467710000    -1.877600001886    -0.244671701848     1.007825032230

  Basis Set: AUG-CC-PVTZ
    Blend: AUG-CC-PVTZ
  Basis Set: (AUG-CC-PVTZ AUX)
    Blend: AUG-CC-PVTZ-JKFIT
	 Reference Energy          =    -348.1756489718370062 [Eh]
	 Singles Energy            =      -0.0000000000000000 [Eh]
	 Same-Spin Energy          =      -0.3617096361075887 [Eh]
	 Opposite-Spin Energy      =      -1.2640336620331112 [Eh]
	 Correlation Energy        =      -1.6257432981406998 [Eh]
	 Total Energy              =    -349.8013922699777254 [Eh]

	 ================> DF-SCS-MP2 Energies <==================
	-----------------------------------------------------------
	 SCS Same-Spin Scale       =       0.3333333333333333 [-]
	 SCS Opposite-Spin Scale   =       1.2000000000000000 [-]
	 SCS Same-Spin Energy      =      -0.1205698787025296 [Eh]
	 SCS Opposite-Spin Energy  =      -1.5168403944397333 [Eh]
	 SCS Correlation Energy    =      -1.6374102731422628 [Eh]
	 SCS Total Energy          =    -349.8130592449792857 [Eh]
	-----------------------------------------------------------

  Dipole Moment: [D]
     X:     0.2480      Y:     1.8186      Z:    -0.1107     Total:     1.8388

*** Psi4 exiting successfully. Buy a developer a beer!
