                               Psi4 1.4a3.dev225

  ==> Input File <==

--------------------------------------------------------------------------
#psi4
#
memory 32 gb

molecule  {
0 1
  O       -0.0000020    -0.6102900    -0.0000420
  C        0.9363500     0.4141040    -0.4566330
  C       -0.9363370     0.4140910     0.4566200
  C        0.0000010     1.5430250    -0.0000030
  C        2.2717190     0.2897090     0.2433650
  C       -2.2717330     0.2897190    -0.2433270
  C        2.9423460    -1.0479970    -0.0522250
  C       -2.9423440    -1.0480000     0.0522380
  H        1.0693000     0.3446630    -1.5460730
  H       -1.0692400     0.3446160     1.5460640
  H        0.4022720     2.1756970     0.7958000
  H       -0.4022820     2.1756850    -0.7958090
  H        2.1021510     0.3966190     1.3216110
  H        2.9117530     1.1256360    -0.0698640
  H       -2.1022070     0.3966710    -1.3215760
  H       -2.9117580     1.1256310     0.0699580
  H        2.2845910    -1.8662570     0.2495040
  H        3.1497060    -1.1530710    -1.1218230
  H        3.8888820    -1.1460650     0.4866090
  H       -3.2139038    -1.0587304     1.1125292
  H       -3.8889120    -1.1460430    -0.4865470
  H       -2.2846070    -1.8662470    -0.2495670
units angstrom
no_reorient  #important for SAPT in psi4, default
symmetry c1  #important for SAPT in psi4, default
}

set PROPERTIES_ORIGIN ["COM"]
properties('MP2/aug-cc-pvtz', properties = ['dipole'])
--------------------------------------------------------------------------

    Molecular point group: c1
  Charge       = 0
  Multiplicity = 1
  Basis Set: AUG-CC-PVTZ
    Blend: AUG-CC-PVTZ
  Basis Set: (AUG-CC-PVTZ AUX)
    Blend: AUG-CC-PVTZ-JKFIT

    Orbital Energies [Eh]
    ---------------------

    Doubly Occupied:

       1A    -20.538099     2A    -11.276963     3A    -11.276869
       4A    -11.224007     5A    -11.218796     6A    -11.218125
       7A    -11.207700     8A    -11.207331     9A     -1.364980
      10A     -1.059950    11A     -1.047549    12A     -0.994350
      13A     -0.913297    14A     -0.846639    15A     -0.804437
      16A     -0.735668    17A     -0.671965    18A     -0.664788
      19A     -0.608114    20A     -0.603533    21A     -0.584452
      22A     -0.558385    23A     -0.552023    24A     -0.523041
      25A     -0.520384    26A     -0.495615    27A     -0.493052
      28A     -0.481997    29A     -0.478218    30A     -0.446317
      31A     -0.432261    32A     -0.401541

  @DF-RHF Final Energy:  -348.18505253932801

   => Energetics <=

    Nuclear Repulsion Energy =            399.5187124858319976
    One-Electron Energy =               -1264.5066359952779749
    Two-Electron Energy =                 516.8028709701179650
    Total Energy =                       -348.1850525393280122
  Basis Set: (AUG-CC-PVTZ AUX)
    Blend: AUG-CC-PVTZ-RI
    Molecular point group: c1

    Geometry (in Angstrom), charge = 0, multiplicity = 1:

       Center              X                  Y                   Z               Mass
    ------------   -----------------  -----------------  -----------------  -----------------
         O            0.000565599048    -0.613286351175     0.000041322330    15.994914619570
         C            0.936917599048     0.411107648825    -0.456549677670    12.000000000000
         C           -0.935769400952     0.411094648825     0.456703322330    12.000000000000
         C            0.000568599048     1.540028648825     0.000080322330    12.000000000000
         C            2.272286599048     0.286712648825     0.243448322330    12.000000000000
         C           -2.271165400952     0.286722648825    -0.243243677670    12.000000000000
         C            2.942913599048    -1.050993351175    -0.052141677670    12.000000000000
         C           -2.941776400952    -1.050996351175     0.052321322330    12.000000000000
         H            1.069867599048     0.341666648825    -1.545989677670     1.007825032230
         H           -1.068672400952     0.341619648825     1.546147322330     1.007825032230
         H            0.402839599048     2.172700648825     0.795883322330     1.007825032230
         H           -0.401714400952     2.172688648825    -0.795725677670     1.007825032230
         H            2.102718599048     0.393622648825     1.321694322330     1.007825032230
         H            2.912320599048     1.122639648825    -0.069780677670     1.007825032230
         H           -2.101639400952     0.393674648825    -1.321492677670     1.007825032230
         H           -2.911190400952     1.122634648825     0.070041322330     1.007825032230
         H            2.285158599048    -1.869253351175     0.249587322330     1.007825032230
         H            3.150273599048    -1.156067351175    -1.121739677670     1.007825032230
         H            3.889449599048    -1.149061351175     0.486692322330     1.007825032230
         H           -3.213336200952    -1.061726751175     1.112612522330     1.007825032230
         H           -3.888344400952    -1.149039351175    -0.486463677670     1.007825032230
         H           -2.284039400952    -1.869243351175    -0.249483677670     1.007825032230

  Basis Set: AUG-CC-PVTZ
    Blend: AUG-CC-PVTZ
  Basis Set: (AUG-CC-PVTZ AUX)
    Blend: AUG-CC-PVTZ-JKFIT
	 Reference Energy          =    -348.1850525393280122 [Eh]
	 Singles Energy            =      -0.0000000000000000 [Eh]
	 Same-Spin Energy          =      -0.3609883104536981 [Eh]
	 Opposite-Spin Energy      =      -1.2616086200383092 [Eh]
	 Correlation Energy        =      -1.6225969304920072 [Eh]
	 Total Energy              =    -349.8076494698200349 [Eh]

	 ================> DF-SCS-MP2 Energies <==================
	-----------------------------------------------------------
	 SCS Same-Spin Scale       =       0.3333333333333333 [-]
	 SCS Opposite-Spin Scale   =       1.2000000000000000 [-]
	 SCS Same-Spin Energy      =      -0.1203294368178993 [Eh]
	 SCS Opposite-Spin Energy  =      -1.5139303440459710 [Eh]
	 SCS Correlation Energy    =      -1.6342597808638704 [Eh]
	 SCS Total Energy          =    -349.8193123201918979 [Eh]
	-----------------------------------------------------------

  Dipole Moment: [D]
     X:    -0.0233      Y:     1.7249      Z:    -0.0071     Total:     1.7251

*** Psi4 exiting successfully. Buy a developer a beer!
