                               Psi4 1.4a3.dev225

  ==> Input File <==

--------------------------------------------------------------------------
#psi4
#
memory 32 gb

molecule  {
0 1
  O       -0.0000020    -0.6102900    -0.0000420
  C        0.9363500     0.4141040    -0.4566330
  C       -0.9363370     0.4140910     0.4566200
  C        0.0000010     1.5430250    -0.0000030
  C        2.2717190     0.2897090     0.2433650
  C       -2.2717330     0.2897190    -0.2433270
  C        2.9423460    -1.0479970    -0.0522250
  C       -2.9423440    -1.0480000     0.0522380
  H        1.0693000     0.3446630    -1.5460730
  H       -1.0692400     0.3446160     1.5460640
  H        0.3949134     2.1641238     0.7812428
  H       -0.4022820     2.1756850    -0.7958090
  H        2.1021510     0.3966190     1.3216110
  H        2.9117530     1.1256360    -0.0698640
  H       -2.1022070     0.3966710    -1.3215760
  H       -2.9117580     1.1256310     0.0699580
  H        2.2845910    -1.8662570     0.2495040
  H        3.1497060    -1.1530710    -1.1218230
  H        3.8888820    -1.1460650     0.4866090
  H       -3.1496440    -1.1531250     1.1218420
  H       -3.8889120    -1.1460430    -0.4865470
  H       -2.2846070    -1.8662470    -0.2495670
units angstrom
no_reorient  #important for SAPT in psi4, default
symmetry c1  #important for SAPT in psi4, default
}

set PROPERTIES_ORIGIN ["COM"]
properties('MP2/aug-cc-pvtz', properties = ['dipole'])
--------------------------------------------------------------------------

    Molecular point group: c1
  Charge       = 0
  Multiplicity = 1
  Basis Set: AUG-CC-PVTZ
    Blend: AUG-CC-PVTZ
  Basis Set: (AUG-CC-PVTZ AUX)
    Blend: AUG-CC-PVTZ-JKFIT

    Orbital Energies [Eh]
    ---------------------

    Doubly Occupied:

       1A    -20.537910     2A    -11.276807     3A    -11.276787
       4A    -11.221624     5A    -11.218831     6A    -11.218704
       7A    -11.207357     8A    -11.207258     9A     -1.364830
      10A     -1.059687    11A     -1.047633    12A     -0.994990
      13A     -0.913098    14A     -0.847544    15A     -0.805056
      16A     -0.737123    17A     -0.672034    18A     -0.665492
      19A     -0.607888    20A     -0.601599    21A     -0.584012
      22A     -0.558781    23A     -0.552306    24A     -0.523327
      25A     -0.521134    26A     -0.498535    27A     -0.491857
      28A     -0.480518    29A     -0.480327    30A     -0.446303
      31A     -0.432238    32A     -0.401642

  @DF-RHF Final Energy:  -348.18642388548113

   => Energetics <=

    Nuclear Repulsion Energy =            399.6149513529284150
    One-Electron Energy =               -1264.6962879096470260
    Two-Electron Energy =                 516.8949126712375346
    Total Energy =                       -348.1864238854810765
  Basis Set: (AUG-CC-PVTZ AUX)
    Blend: AUG-CC-PVTZ-RI
    Molecular point group: c1

    Geometry (in Angstrom), charge = 0, multiplicity = 1:

       Center              X                  Y                   Z               Mass
    ------------   -----------------  -----------------  -----------------  -----------------
         O            0.000063020523    -0.612350393047     0.000087643371    15.994914619570
         C            0.936415020523     0.412043606953    -0.456503356629    12.000000000000
         C           -0.936271979477     0.412030606953     0.456749643371    12.000000000000
         C            0.000066020523     1.540964606953     0.000126643371    12.000000000000
         C            2.271784020523     0.287648606953     0.243494643371    12.000000000000
         C           -2.271667979477     0.287658606953    -0.243197356629    12.000000000000
         C            2.942411020523    -1.050057393047    -0.052095356629    12.000000000000
         C           -2.942278979477    -1.050060393047     0.052367643371    12.000000000000
         H            1.069365020523     0.342602606953    -1.545943356629     1.007825032230
         H           -1.069174979477     0.342555606953     1.546193643371     1.007825032230
         H            0.394978420523     2.162063406953     0.781372443371     1.007825032230
         H           -0.402216979477     2.173624606953    -0.795679356629     1.007825032230
         H            2.102216020523     0.394558606953     1.321740643371     1.007825032230
         H            2.911818020523     1.123575606953    -0.069734356629     1.007825032230
         H           -2.102141979477     0.394610606953    -1.321446356629     1.007825032230
         H           -2.911692979477     1.123570606953     0.070087643371     1.007825032230
         H            2.284656020523    -1.868317393047     0.249633643371     1.007825032230
         H            3.149771020523    -1.155131393047    -1.121693356629     1.007825032230
         H            3.888947020523    -1.148125393047     0.486738643371     1.007825032230
         H           -3.149578979477    -1.155185393047     1.121971643371     1.007825032230
         H           -3.888846979477    -1.148103393047    -0.486417356629     1.007825032230
         H           -2.284541979477    -1.868307393047    -0.249437356629     1.007825032230

  Basis Set: AUG-CC-PVTZ
    Blend: AUG-CC-PVTZ
  Basis Set: (AUG-CC-PVTZ AUX)
    Blend: AUG-CC-PVTZ-JKFIT
	 Reference Energy          =    -348.1864238854811333 [Eh]
	 Singles Energy            =      -0.0000000000000000 [Eh]
	 Same-Spin Energy          =      -0.3609140861166403 [Eh]
	 Opposite-Spin Energy      =      -1.2613422397387903 [Eh]
	 Correlation Energy        =      -1.6222563258554308 [Eh]
	 Total Energy              =    -349.8086802113365366 [Eh]

	 ================> DF-SCS-MP2 Energies <==================
	-----------------------------------------------------------
	 SCS Same-Spin Scale       =       0.3333333333333333 [-]
	 SCS Opposite-Spin Scale   =       1.2000000000000000 [-]
	 SCS Same-Spin Energy      =      -0.1203046953722134 [Eh]
	 SCS Opposite-Spin Energy  =      -1.5136106876865483 [Eh]
	 SCS Correlation Energy    =      -1.6339153830587616 [Eh]
	 SCS Total Energy          =    -349.8203392685398967 [Eh]
	-----------------------------------------------------------

  Dipole Moment: [D]
     X:     0.0048      Y:     1.7172      Z:     0.0055     Total:     1.7172

*** Psi4 exiting successfully. Buy a developer a beer!
