                               Psi4 1.4a3.dev225

  ==> Input File <==

--------------------------------------------------------------------------
#psi4
#
memory 32 gb

molecule  {
0 1
  O       -0.0000020    -0.6102900    -0.0000420
  C        0.9363500     0.4141040    -0.4566330
  C       -0.9363370     0.4140910     0.4566200
  C        0.0000010     1.5430250    -0.0000030
  C        2.2717190     0.2897090     0.2433650
  C       -2.2717330     0.2897190    -0.2433270
  C        2.9423460    -1.0479970    -0.0522250
  C       -2.9423440    -1.0480000     0.0522380
  H        1.0753447     0.3415058    -1.5956057
  H       -1.0692400     0.3446160     1.5460640
  H        0.4022720     2.1756970     0.7958000
  H       -0.4022820     2.1756850    -0.7958090
  H        2.1021510     0.3966190     1.3216110
  H        2.9117530     1.1256360    -0.0698640
  H       -2.1022070     0.3966710    -1.3215760
  H       -2.9117580     1.1256310     0.0699580
  H        2.2845910    -1.8662570     0.2495040
  H        3.1497060    -1.1530710    -1.1218230
  H        3.8888820    -1.1460650     0.4866090
  H       -3.1496440    -1.1531250     1.1218420
  H       -3.8889120    -1.1460430    -0.4865470
  H       -2.2846070    -1.8662470    -0.2495670
units angstrom
no_reorient  #important for SAPT in psi4, default
symmetry c1  #important for SAPT in psi4, default
}

set PROPERTIES_ORIGIN ["COM"]
properties('MP2/aug-cc-pvtz', properties = ['dipole'])
--------------------------------------------------------------------------

    Molecular point group: c1
  Charge       = 0
  Multiplicity = 1
  Basis Set: AUG-CC-PVTZ
    Blend: AUG-CC-PVTZ
  Basis Set: (AUG-CC-PVTZ AUX)
    Blend: AUG-CC-PVTZ-JKFIT

    Orbital Energies [Eh]
    ---------------------

    Doubly Occupied:

       1A    -20.539143     2A    -11.283136     3A    -11.277445
       4A    -11.224714     5A    -11.219455     6A    -11.219030
       7A    -11.207532     8A    -11.207359     9A     -1.365648
      10A     -1.059507    11A     -1.047431    12A     -0.994501
      13A     -0.911953    14A     -0.847235    15A     -0.803115
      16A     -0.732957    17A     -0.671232    18A     -0.663349
      19A     -0.607795    20A     -0.601858    21A     -0.584258
      22A     -0.556441    23A     -0.551979    24A     -0.522165
      25A     -0.521352    26A     -0.498409    27A     -0.492095
      28A     -0.480645    29A     -0.479901    30A     -0.446887
      31A     -0.431755    32A     -0.400832

  @DF-RHF Final Energy:  -348.18404996525004

   => Energetics <=

    Nuclear Repulsion Energy =            399.2548989078722457
    One-Electron Energy =               -1263.9756660192899744
    Two-Electron Energy =                 516.5367171461676890
    Total Energy =                       -348.1840499652499830
  Basis Set: (AUG-CC-PVTZ AUX)
    Blend: AUG-CC-PVTZ-RI
    Molecular point group: c1

    Geometry (in Angstrom), charge = 0, multiplicity = 1:

       Center              X                  Y                   Z               Mass
    ------------   -----------------  -----------------  -----------------  -----------------
         O           -0.000055363812    -0.612424727171     0.000396563661    15.994914619570
         C            0.936296636188     0.411969272829    -0.456194436339    12.000000000000
         C           -0.936390363812     0.411956272829     0.457058563661    12.000000000000
         C           -0.000052363812     1.540890272829     0.000435563661    12.000000000000
         C            2.271665636188     0.287574272829     0.243803563661    12.000000000000
         C           -2.271786363812     0.287584272829    -0.242888436339    12.000000000000
         C            2.942292636188    -1.050131727171    -0.051786436339    12.000000000000
         C           -2.942397363812    -1.050134727171     0.052676563661    12.000000000000
         H            1.075291336188     0.339371072829    -1.595167136339     1.007825032230
         H           -1.069293363812     0.342481272829     1.546502563661     1.007825032230
         H            0.402218636188     2.173562272829     0.796238563661     1.007825032230
         H           -0.402335363812     2.173550272829    -0.795370436339     1.007825032230
         H            2.102097636188     0.394484272829     1.322049563661     1.007825032230
         H            2.911699636188     1.123501272829    -0.069425436339     1.007825032230
         H           -2.102260363812     0.394536272829    -1.321137436339     1.007825032230
         H           -2.911811363812     1.123496272829     0.070396563661     1.007825032230
         H            2.284537636188    -1.868391727171     0.249942563661     1.007825032230
         H            3.149652636188    -1.155205727171    -1.121384436339     1.007825032230
         H            3.888828636188    -1.148199727171     0.487047563661     1.007825032230
         H           -3.149697363812    -1.155259727171     1.122280563661     1.007825032230
         H           -3.888965363812    -1.148177727171    -0.486108436339     1.007825032230
         H           -2.284660363812    -1.868381727171    -0.249128436339     1.007825032230

  Basis Set: AUG-CC-PVTZ
    Blend: AUG-CC-PVTZ
  Basis Set: (AUG-CC-PVTZ AUX)
    Blend: AUG-CC-PVTZ-JKFIT
	 Reference Energy          =    -348.1840499652500398 [Eh]
	 Singles Energy            =      -0.0000000000000000 [Eh]
	 Same-Spin Energy          =      -0.3610194755545150 [Eh]
	 Opposite-Spin Energy      =      -1.2619241420540876 [Eh]
	 Correlation Energy        =      -1.6229436176086027 [Eh]
	 Total Energy              =    -349.8069935828586381 [Eh]

	 ================> DF-SCS-MP2 Energies <==================
	-----------------------------------------------------------
	 SCS Same-Spin Scale       =       0.3333333333333333 [-]
	 SCS Opposite-Spin Scale   =       1.2000000000000000 [-]
	 SCS Same-Spin Energy      =      -0.1203398251848383 [Eh]
	 SCS Opposite-Spin Energy  =      -1.5143089704649051 [Eh]
	 SCS Correlation Energy    =      -1.6346487956497433 [Eh]
	 SCS Total Energy          =    -349.8186987608997924 [Eh]
	-----------------------------------------------------------

  Dipole Moment: [D]
     X:    -0.0203      Y:     1.7056      Z:     0.0455     Total:     1.7064

*** Psi4 exiting successfully. Buy a developer a beer!
