                               Psi4 1.4a3.dev225

  ==> Input File <==

--------------------------------------------------------------------------
#psi4
#
memory 32 gb

molecule  {
0 1
  O       -0.0000020    -0.6102900    -0.0000420
  C        0.9363500     0.4141040    -0.4566330
  C       -0.9363370     0.4140910     0.4566200
  C        0.0000010     1.5430250    -0.0000030
  C        2.2717190     0.2897090     0.2433650
  C       -2.2717330     0.2897190    -0.2433270
  C        2.9423460    -1.0479970    -0.0522250
  C       -2.9423440    -1.0480000     0.0522380
  H        1.0693000     0.3446630    -1.5460730
  H       -1.0692400     0.3446160     1.5460640
  H        0.4022720     2.1756970     0.7958000
  H       -0.4022820     2.1756850    -0.7958090
  H        2.0807394     0.3648991     1.3207093
  H        2.9117530     1.1256360    -0.0698640
  H       -2.1022070     0.3966710    -1.3215760
  H       -2.9117580     1.1256310     0.0699580
  H        2.2845910    -1.8662570     0.2495040
  H        3.1497060    -1.1530710    -1.1218230
  H        3.8888820    -1.1460650     0.4866090
  H       -3.1496440    -1.1531250     1.1218420
  H       -3.8889120    -1.1460430    -0.4865470
  H       -2.2846070    -1.8662470    -0.2495670
units angstrom
no_reorient  #important for SAPT in psi4, default
symmetry c1  #important for SAPT in psi4, default
}

set PROPERTIES_ORIGIN ["COM"]
properties('MP2/aug-cc-pvtz', properties = ['dipole'])
--------------------------------------------------------------------------

    Molecular point group: c1
  Charge       = 0
  Multiplicity = 1
  Basis Set: AUG-CC-PVTZ
    Blend: AUG-CC-PVTZ
  Basis Set: (AUG-CC-PVTZ AUX)
    Blend: AUG-CC-PVTZ-JKFIT

    Orbital Energies [Eh]
    ---------------------

    Doubly Occupied:

       1A    -20.538197     2A    -11.277047     3A    -11.276816
       4A    -11.224037     5A    -11.218861     6A    -11.218861
       7A    -11.207387     8A    -11.207136     9A     -1.365101
      10A     -1.059931    11A     -1.047477    12A     -0.994264
      13A     -0.913195    14A     -0.846991    15A     -0.804730
      16A     -0.735709    17A     -0.672002    18A     -0.664932
      19A     -0.607881    20A     -0.602459    21A     -0.583888
      22A     -0.558761    23A     -0.551820    24A     -0.522200
      25A     -0.520967    26A     -0.497619    27A     -0.492199
      28A     -0.481484    29A     -0.479857    30A     -0.446279
      31A     -0.432416    32A     -0.401525

  @DF-RHF Final Energy:  -348.18615448065981

   => Energetics <=

    Nuclear Repulsion Energy =            399.5665505292978992
    One-Electron Energy =               -1264.6013540205171921
    Two-Electron Energy =                 516.8486490105594839
    Total Energy =                       -348.1861544806597522
  Basis Set: (AUG-CC-PVTZ AUX)
    Blend: AUG-CC-PVTZ-RI
    Molecular point group: c1

    Geometry (in Angstrom), charge = 0, multiplicity = 1:

       Center              X                  Y                   Z               Mass
    ------------   -----------------  -----------------  -----------------  -----------------
         O            0.000187143318    -0.612172447788    -0.000032968515    15.994914619570
         C            0.936539143318     0.412221552212    -0.456623968515    12.000000000000
         C           -0.936147856682     0.412208552212     0.456629031485    12.000000000000
         C            0.000190143318     1.541142552212     0.000006031485    12.000000000000
         C            2.271908143318     0.287826552212     0.243374031485    12.000000000000
         C           -2.271543856682     0.287836552212    -0.243317968515    12.000000000000
         C            2.942535143318    -1.049879447788    -0.052215968515    12.000000000000
         C           -2.942154856682    -1.049882447788     0.052247031485    12.000000000000
         H            1.069489143318     0.342780552212    -1.546063968515     1.007825032230
         H           -1.069050856682     0.342733552212     1.546073031485     1.007825032230
         H            0.402461143318     2.173814552212     0.795809031485     1.007825032230
         H           -0.402092856682     2.173802552212    -0.795799968515     1.007825032230
         H            2.080928543318     0.363016652212     1.320718331485     1.007825032230
         H            2.911942143318     1.123753552212    -0.069854968515     1.007825032230
         H           -2.102017856682     0.394788552212    -1.321566968515     1.007825032230
         H           -2.911568856682     1.123748552212     0.069967031485     1.007825032230
         H            2.284780143318    -1.868139447788     0.249513031485     1.007825032230
         H            3.149895143318    -1.154953447788    -1.121813968515     1.007825032230
         H            3.889071143318    -1.147947447788     0.486618031485     1.007825032230
         H           -3.149454856682    -1.155007447788     1.121851031485     1.007825032230
         H           -3.888722856682    -1.147925447788    -0.486537968515     1.007825032230
         H           -2.284417856682    -1.868129447788    -0.249557968515     1.007825032230

  Basis Set: AUG-CC-PVTZ
    Blend: AUG-CC-PVTZ
  Basis Set: (AUG-CC-PVTZ AUX)
    Blend: AUG-CC-PVTZ-JKFIT
	 Reference Energy          =    -348.1861544806598090 [Eh]
	 Singles Energy            =      -0.0000000000000000 [Eh]
	 Same-Spin Energy          =      -0.3609535453184788 [Eh]
	 Opposite-Spin Energy      =      -1.2615363140856575 [Eh]
	 Correlation Energy        =      -1.6224898594041361 [Eh]
	 Total Energy              =    -349.8086443400639496 [Eh]

	 ================> DF-SCS-MP2 Energies <==================
	-----------------------------------------------------------
	 SCS Same-Spin Scale       =       0.3333333333333333 [-]
	 SCS Opposite-Spin Scale   =       1.2000000000000000 [-]
	 SCS Same-Spin Energy      =      -0.1203178484394929 [Eh]
	 SCS Opposite-Spin Energy  =      -1.5138435769027889 [Eh]
	 SCS Correlation Energy    =      -1.6341614253422818 [Eh]
	 SCS Total Energy          =    -349.8203159060020653 [Eh]
	-----------------------------------------------------------

  Dipole Moment: [D]
     X:    -0.0071      Y:     1.7022      Z:    -0.0021     Total:     1.7022

*** Psi4 exiting successfully. Buy a developer a beer!
