                               Psi4 1.4a3.dev225

  ==> Input File <==

--------------------------------------------------------------------------
#psi4
#
memory 32 gb

molecule  {
0 1
  O       -0.0000020    -0.6102900    -0.0000420
  C        0.9363500     0.4141040    -0.4566330
  C       -0.9363370     0.4140910     0.4566200
  C        0.0000010     1.5430250    -0.0000030
  C        2.2717190     0.2897090     0.2433650
  C       -2.2717330     0.2897190    -0.2433270
  C        2.9423460    -1.0479970    -0.0522250
  C       -2.9423440    -1.0480000     0.0522380
  H        1.0693000     0.3446630    -1.5460730
  H       -1.0692400     0.3446160     1.5460640
  H        0.3286865     2.0599653     0.6502275
  H       -0.4022820     2.1756850    -0.7958090
  H        2.1021510     0.3966190     1.3216110
  H        2.9117530     1.1256360    -0.0698640
  H       -2.1022070     0.3966710    -1.3215760
  H       -2.9117580     1.1256310     0.0699580
  H        2.2845910    -1.8662570     0.2495040
  H        3.1497060    -1.1530710    -1.1218230
  H        3.8888820    -1.1460650     0.4866090
  H       -3.1496440    -1.1531250     1.1218420
  H       -3.8889120    -1.1460430    -0.4865470
  H       -2.2846070    -1.8662470    -0.2495670
units angstrom
no_reorient  #important for SAPT in psi4, default
symmetry c1  #important for SAPT in psi4, default
}

set PROPERTIES_ORIGIN ["COM"]
properties('MP2/aug-cc-pvtz', properties = ['dipole'])
--------------------------------------------------------------------------

    Molecular point group: c1
  Charge       = 0
  Multiplicity = 1
  Basis Set: AUG-CC-PVTZ
    Blend: AUG-CC-PVTZ
  Basis Set: (AUG-CC-PVTZ AUX)
    Blend: AUG-CC-PVTZ-JKFIT

    Orbital Energies [Eh]
    ---------------------

    Doubly Occupied:

       1A    -20.536781     2A    -11.275654     3A    -11.275476
       4A    -11.218936     5A    -11.217890     6A    -11.207437
       7A    -11.206599     8A    -11.199379     9A     -1.363777
      10A     -1.059276    11A     -1.052191    12A     -1.005093
      13A     -0.912478    14A     -0.853422    15A     -0.805213
      16A     -0.751560    17A     -0.678924    18A     -0.667481
      19A     -0.612117    20A     -0.601310    21A     -0.583474
      22A     -0.558449    23A     -0.558304    24A     -0.530756
      25A     -0.520650    26A     -0.498849    27A     -0.491620
      28A     -0.480254    29A     -0.479959    30A     -0.446743
      31A     -0.431191    32A     -0.401763

  @DF-RHF Final Energy:  -348.15278594305471

   => Energetics <=

    Nuclear Repulsion Energy =            400.6350258467068102
    One-Electron Energy =               -1266.6096108247563734
    Two-Electron Energy =                 517.8217990349947968
    Total Energy =                       -348.1527859430547096
  Basis Set: (AUG-CC-PVTZ AUX)
    Blend: AUG-CC-PVTZ-RI
    Molecular point group: c1

    Geometry (in Angstrom), charge = 0, multiplicity = 1:

       Center              X                  Y                   Z               Mass
    ------------   -----------------  -----------------  -----------------  -----------------
         O            0.000647968076    -0.611430415520     0.001244832960    15.994914619570
         C            0.936999968076     0.412963584480    -0.455346167040    12.000000000000
         C           -0.935687031924     0.412950584480     0.457906832960    12.000000000000
         C            0.000650968076     1.541884584480     0.001283832960    12.000000000000
         C            2.272368968076     0.288568584480     0.244651832960    12.000000000000
         C           -2.271083031924     0.288578584480    -0.242040167040    12.000000000000
         C            2.942995968076    -1.049137415520    -0.050938167040    12.000000000000
         C           -2.941694031924    -1.049140415520     0.053524832960    12.000000000000
         H            1.069949968076     0.343522584480    -1.544786167040     1.007825032230
         H           -1.068590031924     0.343475584480     1.547350832960     1.007825032230
         H            0.329336468076     2.058824884480     0.651514332960     1.007825032230
         H           -0.401632031924     2.174544584480    -0.794522167040     1.007825032230
         H            2.102800968076     0.395478584480     1.322897832960     1.007825032230
         H            2.912402968076     1.124495584480    -0.068577167040     1.007825032230
         H           -2.101557031924     0.395530584480    -1.320289167040     1.007825032230
         H           -2.911108031924     1.124490584480     0.071244832960     1.007825032230
         H            2.285240968076    -1.867397415520     0.250790832960     1.007825032230
         H            3.150355968076    -1.154211415520    -1.120536167040     1.007825032230
         H            3.889531968076    -1.147205415520     0.487895832960     1.007825032230
         H           -3.148994031924    -1.154265415520     1.123128832960     1.007825032230
         H           -3.888262031924    -1.147183415520    -0.485260167040     1.007825032230
         H           -2.283957031924    -1.867387415520    -0.248280167040     1.007825032230

  Basis Set: AUG-CC-PVTZ
    Blend: AUG-CC-PVTZ
  Basis Set: (AUG-CC-PVTZ AUX)
    Blend: AUG-CC-PVTZ-JKFIT
	 Reference Energy          =    -348.1527859430547096 [Eh]
	 Singles Energy            =      -0.0000000000000000 [Eh]
	 Same-Spin Energy          =      -0.3609382697336636 [Eh]
	 Opposite-Spin Energy      =      -1.2607850218087222 [Eh]
	 Correlation Energy        =      -1.6217232915423858 [Eh]
	 Total Energy              =    -349.7745092345970761 [Eh]

	 ================> DF-SCS-MP2 Energies <==================
	-----------------------------------------------------------
	 SCS Same-Spin Scale       =       0.3333333333333333 [-]
	 SCS Opposite-Spin Scale   =       1.2000000000000000 [-]
	 SCS Same-Spin Energy      =      -0.1203127565778878 [Eh]
	 SCS Opposite-Spin Energy  =      -1.5129420261704667 [Eh]
	 SCS Correlation Energy    =      -1.6332547827483546 [Eh]
	 SCS Total Energy          =    -349.7860407258030477 [Eh]
	-----------------------------------------------------------

  Dipole Moment: [D]
     X:     0.0371      Y:     1.7795      Z:     0.0361     Total:     1.7802

*** Psi4 exiting successfully. Buy a developer a beer!
