                               Psi4 1.4a3.dev225

  ==> Input File <==

--------------------------------------------------------------------------
#psi4
#
memory 32 gb

molecule  {
0 1
  O       -0.0000020    -0.6102900    -0.0000420
  C        0.9281826     0.3921454    -0.4444565
  C       -0.9363370     0.4140910     0.4566200
  C        0.0000010     1.5430250    -0.0000030
  C        2.2717190     0.2897090     0.2433650
  C       -2.2717330     0.2897190    -0.2433270
  C        2.9423460    -1.0479970    -0.0522250
  C       -2.9423440    -1.0480000     0.0522380
  H        1.0693000     0.3446630    -1.5460730
  H       -1.0692400     0.3446160     1.5460640
  H        0.4022720     2.1756970     0.7958000
  H       -0.4022820     2.1756850    -0.7958090
  H        2.1021510     0.3966190     1.3216110
  H        2.9117530     1.1256360    -0.0698640
  H       -2.1022070     0.3966710    -1.3215760
  H       -2.9117580     1.1256310     0.0699580
  H        2.2845910    -1.8662570     0.2495040
  H        3.1497060    -1.1530710    -1.1218230
  H        3.8888820    -1.1460650     0.4866090
  H       -3.1496440    -1.1531250     1.1218420
  H       -3.8889120    -1.1460430    -0.4865470
  H       -2.2846070    -1.8662470    -0.2495670
units angstrom
no_reorient  #important for SAPT in psi4, default
symmetry c1  #important for SAPT in psi4, default
}

set PROPERTIES_ORIGIN ["COM"]
properties('MP2/aug-cc-pvtz', properties = ['dipole'])
--------------------------------------------------------------------------

    Molecular point group: c1
  Charge       = 0
  Multiplicity = 1
  Basis Set: AUG-CC-PVTZ
    Blend: AUG-CC-PVTZ
  Basis Set: (AUG-CC-PVTZ AUX)
    Blend: AUG-CC-PVTZ-JKFIT

    Orbital Energies [Eh]
    ---------------------

    Doubly Occupied:

       1A    -20.540293     2A    -11.278261     3A    -11.276989
       4A    -11.223407     5A    -11.219519     6A    -11.218009
       7A    -11.207924     8A    -11.206874     9A     -1.373379
      10A     -1.060259    11A     -1.047362    12A     -0.993580
      13A     -0.913162    14A     -0.846822    15A     -0.805542
      16A     -0.735060    17A     -0.674118    18A     -0.666411
      19A     -0.608646    20A     -0.602550    21A     -0.583493
      22A     -0.557881    23A     -0.554526    24A     -0.523695
      25A     -0.521358    26A     -0.499118    27A     -0.492346
      28A     -0.481347    29A     -0.479478    30A     -0.449127
      31A     -0.428542    32A     -0.401093

  @DF-RHF Final Energy:  -348.18641705300894

   => Energetics <=

    Nuclear Repulsion Energy =            399.8409813137259334
    One-Electron Energy =               -1265.1144592960342834
    Two-Electron Energy =                 517.0870609292994686
    Total Energy =                       -348.1864170530088813
  Basis Set: (AUG-CC-PVTZ AUX)
    Blend: AUG-CC-PVTZ-RI
    Molecular point group: c1

    Geometry (in Angstrom), charge = 0, multiplicity = 1:

       Center              X                  Y                   Z               Mass
    ------------   -----------------  -----------------  -----------------  -----------------
         O            0.000856965078    -0.610143297653    -0.001321496144    15.994914619570
         C            0.929041565078     0.392292102347    -0.445735996144    12.000000000000
         C           -0.935478034922     0.414237702347     0.455340503856    12.000000000000
         C            0.000859965078     1.543171702347    -0.001282496144    12.000000000000
         C            2.272577965078     0.289855702347     0.242085503856    12.000000000000
         C           -2.270874034922     0.289865702347    -0.244606496144    12.000000000000
         C            2.943204965078    -1.047850297653    -0.053504496144    12.000000000000
         C           -2.941485034922    -1.047853297653     0.050958503856    12.000000000000
         H            1.070158965078     0.344809702347    -1.547352496144     1.007825032230
         H           -1.068381034922     0.344762702347     1.544784503856     1.007825032230
         H            0.403130965078     2.175843702347     0.794520503856     1.007825032230
         H           -0.401423034922     2.175831702347    -0.797088496144     1.007825032230
         H            2.103009965078     0.396765702347     1.320331503856     1.007825032230
         H            2.912611965078     1.125782702347    -0.071143496144     1.007825032230
         H           -2.101348034922     0.396817702347    -1.322855496144     1.007825032230
         H           -2.910899034922     1.125777702347     0.068678503856     1.007825032230
         H            2.285449965078    -1.866110297653     0.248224503856     1.007825032230
         H            3.150564965078    -1.152924297653    -1.123102496144     1.007825032230
         H            3.889740965078    -1.145918297653     0.485329503856     1.007825032230
         H           -3.148785034922    -1.152978297653     1.120562503856     1.007825032230
         H           -3.888053034922    -1.145896297653    -0.487826496144     1.007825032230
         H           -2.283748034922    -1.866100297653    -0.250846496144     1.007825032230

  Basis Set: AUG-CC-PVTZ
    Blend: AUG-CC-PVTZ
  Basis Set: (AUG-CC-PVTZ AUX)
    Blend: AUG-CC-PVTZ-JKFIT
	 Reference Energy          =    -348.1864170530089382 [Eh]
	 Singles Energy            =      -0.0000000000000000 [Eh]
	 Same-Spin Energy          =      -0.3608221486002006 [Eh]
	 Opposite-Spin Energy      =      -1.2610111045085095 [Eh]
	 Correlation Energy        =      -1.6218332531087101 [Eh]
	 Total Energy              =    -349.8082503061176567 [Eh]

	 ================> DF-SCS-MP2 Energies <==================
	-----------------------------------------------------------
	 SCS Same-Spin Scale       =       0.3333333333333333 [-]
	 SCS Opposite-Spin Scale   =       1.2000000000000000 [-]
	 SCS Same-Spin Energy      =      -0.1202740495334002 [Eh]
	 SCS Opposite-Spin Energy  =      -1.5132133254102114 [Eh]
	 SCS Correlation Energy    =      -1.6334873749436116 [Eh]
	 SCS Total Energy          =    -349.8199044279525651 [Eh]
	-----------------------------------------------------------

  Dipole Moment: [D]
     X:    -0.0671      Y:     1.6760      Z:     0.0346     Total:     1.6777

*** Psi4 exiting successfully. Buy a developer a beer!
