                               Psi4 1.4a3.dev225

  ==> Input File <==

--------------------------------------------------------------------------
#psi4
#
memory 32 gb

molecule  {
0 1
  O       -0.0000020    -0.6102900    -0.0000420
  C        0.9363500     0.4141040    -0.4566330
  C       -0.9363370     0.4140910     0.4566200
  C        0.0000010     1.5430250    -0.0000030
  C        2.2717190     0.2897090     0.2433650
  C       -2.2717330     0.2897190    -0.2433270
  C        2.9423460    -1.0479970    -0.0522250
  C       -2.9423440    -1.0480000     0.0522380
  H        1.0693000     0.3446630    -1.5460730
  H       -1.0692400     0.3446160     1.5460640
  H        0.4022720     2.1756970     0.7958000
  H       -0.4022820     2.1756850    -0.7958090
  H        2.1021510     0.3966190     1.3216110
  H        2.9117530     1.1256360    -0.0698640
  H       -2.1022070     0.3966710    -1.3215760
  H       -2.9117580     1.1256310     0.0699580
  H        2.2845910    -1.8662570     0.2495040
  H        3.1497060    -1.1530710    -1.1218230
  H        3.8888820    -1.1460650     0.4866090
  H       -3.1386938    -1.1687733     1.1222557
  H       -3.8889120    -1.1460430    -0.4865470
  H       -2.2846070    -1.8662470    -0.2495670
units angstrom
no_reorient  #important for SAPT in psi4, default
symmetry c1  #important for SAPT in psi4, default
}

set PROPERTIES_ORIGIN ["COM"]
properties('MP2/aug-cc-pvtz', properties = ['dipole'])
--------------------------------------------------------------------------

    Molecular point group: c1
  Charge       = 0
  Multiplicity = 1
  Basis Set: AUG-CC-PVTZ
    Blend: AUG-CC-PVTZ
  Basis Set: (AUG-CC-PVTZ AUX)
    Blend: AUG-CC-PVTZ-JKFIT

    Orbital Energies [Eh]
    ---------------------

    Doubly Occupied:

       1A    -20.538080     2A    -11.277015     3A    -11.276999
       4A    -11.224075     5A    -11.218956     6A    -11.218837
       7A    -11.207363     8A    -11.207303     9A     -1.365004
      10A     -1.059747    11A     -1.047385    12A     -0.994193
      13A     -0.913195    14A     -0.847236    15A     -0.805197
      16A     -0.736048    17A     -0.671696    18A     -0.664944
      19A     -0.607453    20A     -0.601289    21A     -0.584030
      22A     -0.559040    23A     -0.551611    24A     -0.522066
      25A     -0.521336    26A     -0.499052    27A     -0.491656
      28A     -0.480790    29A     -0.479929    30A     -0.446206
      31A     -0.432440    32A     -0.401654

  @DF-RHF Final Energy:  -348.18632234247474

   => Energetics <=

    Nuclear Repulsion Energy =            399.5154088587383967
    One-Electron Energy =               -1264.4998107828666889
    Two-Electron Energy =                 516.7980795816534965
    Total Energy =                       -348.1863223424747957
  Basis Set: (AUG-CC-PVTZ AUX)
    Blend: AUG-CC-PVTZ-RI
    Molecular point group: c1

    Geometry (in Angstrom), charge = 0, multiplicity = 1:

       Center              X                  Y                   Z               Mass
    ------------   -----------------  -----------------  -----------------  -----------------
         O           -0.000098691527    -0.612314399821    -0.000044586754    15.994914619570
         C            0.936253308473     0.412079600179    -0.456635586754    12.000000000000
         C           -0.936433691527     0.412066600179     0.456617413246    12.000000000000
         C           -0.000095691527     1.541000600179    -0.000005586754    12.000000000000
         C            2.271622308473     0.287684600179     0.243362413246    12.000000000000
         C           -2.271829691527     0.287694600179    -0.243329586754    12.000000000000
         C            2.942249308473    -1.050021399821    -0.052227586754    12.000000000000
         C           -2.942440691527    -1.050024399821     0.052235413246    12.000000000000
         H            1.069203308473     0.342638600179    -1.546075586754     1.007825032230
         H           -1.069336691527     0.342591600179     1.546061413246     1.007825032230
         H            0.402175308473     2.173672600179     0.795797413246     1.007825032230
         H           -0.402378691527     2.173660600179    -0.795811586754     1.007825032230
         H            2.102054308473     0.394594600179     1.321608413246     1.007825032230
         H            2.911656308473     1.123611600179    -0.069866586754     1.007825032230
         H           -2.102303691527     0.394646600179    -1.321578586754     1.007825032230
         H           -2.911854691527     1.123606600179     0.069955413246     1.007825032230
         H            2.284494308473    -1.868281399821     0.249501413246     1.007825032230
         H            3.149609308473    -1.155095399821    -1.121825586754     1.007825032230
         H            3.888785308473    -1.148089399821     0.486606413246     1.007825032230
         H           -3.138790491527    -1.170797699821     1.122253113246     1.007825032230
         H           -3.889008691527    -1.148067399821    -0.486549586754     1.007825032230
         H           -2.284703691527    -1.868271399821    -0.249569586754     1.007825032230

  Basis Set: AUG-CC-PVTZ
    Blend: AUG-CC-PVTZ
  Basis Set: (AUG-CC-PVTZ AUX)
    Blend: AUG-CC-PVTZ-JKFIT
	 Reference Energy          =    -348.1863223424747389 [Eh]
	 Singles Energy            =      -0.0000000000000000 [Eh]
	 Same-Spin Energy          =      -0.3609225525916436 [Eh]
	 Opposite-Spin Energy      =      -1.2614652128265658 [Eh]
	 Correlation Energy        =      -1.6223877654182095 [Eh]
	 Total Energy              =    -349.8087101078929209 [Eh]

	 ================> DF-SCS-MP2 Energies <==================
	-----------------------------------------------------------
	 SCS Same-Spin Scale       =       0.3333333333333333 [-]
	 SCS Opposite-Spin Scale   =       1.2000000000000000 [-]
	 SCS Same-Spin Energy      =      -0.1203075175305479 [Eh]
	 SCS Opposite-Spin Energy  =      -1.5137582553918789 [Eh]
	 SCS Correlation Energy    =      -1.6340657729224268 [Eh]
	 SCS Total Energy          =    -349.8203881153971793 [Eh]
	-----------------------------------------------------------

  Dipole Moment: [D]
     X:     0.0043      Y:     1.7042      Z:     0.0008     Total:     1.7042

*** Psi4 exiting successfully. Buy a developer a beer!
