                               Psi4 1.4a3.dev225

  ==> Input File <==

--------------------------------------------------------------------------
#psi4
#
memory 32 gb

molecule  {
0 1
  O       -0.0000020    -0.6102900    -0.0000420
  C        0.9061452     0.3261092    -0.4066849
  C       -0.9363370     0.4140910     0.4566200
  C        0.0000010     1.5430250    -0.0000030
  C        2.2717190     0.2897090     0.2433650
  C       -2.2717330     0.2897190    -0.2433270
  C        2.9423460    -1.0479970    -0.0522250
  C       -2.9423440    -1.0480000     0.0522380
  H        1.0693000     0.3446630    -1.5460730
  H       -1.0692400     0.3446160     1.5460640
  H        0.4022720     2.1756970     0.7958000
  H       -0.4022820     2.1756850    -0.7958090
  H        2.1021510     0.3966190     1.3216110
  H        2.9117530     1.1256360    -0.0698640
  H       -2.1022070     0.3966710    -1.3215760
  H       -2.9117580     1.1256310     0.0699580
  H        2.2845910    -1.8662570     0.2495040
  H        3.1497060    -1.1530710    -1.1218230
  H        3.8888820    -1.1460650     0.4866090
  H       -3.1496440    -1.1531250     1.1218420
  H       -3.8889120    -1.1460430    -0.4865470
  H       -2.2846070    -1.8662470    -0.2495670
units angstrom
no_reorient  #important for SAPT in psi4, default
symmetry c1  #important for SAPT in psi4, default
}

set PROPERTIES_ORIGIN ["COM"]
properties('MP2/aug-cc-pvtz', properties = ['dipole'])
--------------------------------------------------------------------------

    Molecular point group: c1
  Charge       = 0
  Multiplicity = 1
  Basis Set: AUG-CC-PVTZ
    Blend: AUG-CC-PVTZ
  Basis Set: (AUG-CC-PVTZ AUX)
    Blend: AUG-CC-PVTZ-JKFIT

    Orbital Energies [Eh]
    ---------------------

    Doubly Occupied:

       1A    -20.546539     2A    -11.282441     3A    -11.278793
       4A    -11.221684     5A    -11.221472     6A    -11.216086
       7A    -11.209680     8A    -11.205559     9A     -1.401097
      10A     -1.063324    11A     -1.046614    12A     -0.991886
      13A     -0.913137    14A     -0.846114    15A     -0.808064
      16A     -0.732799    17A     -0.682441    18A     -0.670680
      19A     -0.614654    20A     -0.605120    21A     -0.582267
      22A     -0.563180    23A     -0.555138    24A     -0.528633
      25A     -0.522543    26A     -0.500640    27A     -0.493704
      28A     -0.484055    29A     -0.476895    30A     -0.457803
      31A     -0.413628    32A     -0.396409

  @DF-RHF Final Energy:  -348.17899700050987

   => Energetics <=

    Nuclear Repulsion Energy =            400.8128280411094693
    One-Electron Energy =               -1266.9174920359694170
    Two-Electron Energy =                 517.9256669943500810
    Total Energy =                       -348.1789970005098667
  Basis Set: (AUG-CC-PVTZ AUX)
    Blend: AUG-CC-PVTZ-RI
    Molecular point group: c1

    Geometry (in Angstrom), charge = 0, multiplicity = 1:

       Center              X                  Y                   Z               Mass
    ------------   -----------------  -----------------  -----------------  -----------------
         O            0.003174567635    -0.603198482658    -0.005293813964    15.994914619570
         C            0.909321767635     0.333200717342    -0.411936713964    12.000000000000
         C           -0.933160432365     0.421182517342     0.451368186036    12.000000000000
         C            0.003177567635     1.550116517342    -0.005254813964    12.000000000000
         C            2.274895567635     0.296800517342     0.238113186036    12.000000000000
         C           -2.268556432365     0.296810517342    -0.248578813964    12.000000000000
         C            2.945522567635    -1.040905482658    -0.057476813964    12.000000000000
         C           -2.939167432365    -1.040908482658     0.046986186036    12.000000000000
         H            1.072476567635     0.351754517342    -1.551324813964     1.007825032230
         H           -1.066063432365     0.351707517342     1.540812186036     1.007825032230
         H            0.405448567635     2.182788517342     0.790548186036     1.007825032230
         H           -0.399105432365     2.182776517342    -0.801060813964     1.007825032230
         H            2.105327567635     0.403710517342     1.316359186036     1.007825032230
         H            2.914929567635     1.132727517342    -0.075115813964     1.007825032230
         H           -2.099030432365     0.403762517342    -1.326827813964     1.007825032230
         H           -2.908581432365     1.132722517342     0.064706186036     1.007825032230
         H            2.287767567635    -1.859165482658     0.244252186036     1.007825032230
         H            3.152882567635    -1.145979482658    -1.127074813964     1.007825032230
         H            3.892058567635    -1.138973482658     0.481357186036     1.007825032230
         H           -3.146467432365    -1.146033482658     1.116590186036     1.007825032230
         H           -3.885735432365    -1.138951482658    -0.491798813964     1.007825032230
         H           -2.281430432365    -1.859155482658    -0.254818813964     1.007825032230

  Basis Set: AUG-CC-PVTZ
    Blend: AUG-CC-PVTZ
  Basis Set: (AUG-CC-PVTZ AUX)
    Blend: AUG-CC-PVTZ-JKFIT
	 Reference Energy          =    -348.1789970005098667 [Eh]
	 Singles Energy            =      -0.0000000000000000 [Eh]
	 Same-Spin Energy          =      -0.3607842361988612 [Eh]
	 Opposite-Spin Energy      =      -1.2601355434020798 [Eh]
	 Correlation Energy        =      -1.6209197796009409 [Eh]
	 Total Energy              =    -349.7999167801108342 [Eh]

	 ================> DF-SCS-MP2 Energies <==================
	-----------------------------------------------------------
	 SCS Same-Spin Scale       =       0.3333333333333333 [-]
	 SCS Opposite-Spin Scale   =       1.2000000000000000 [-]
	 SCS Same-Spin Energy      =      -0.1202614120662871 [Eh]
	 SCS Opposite-Spin Energy  =      -1.5121626520824958 [Eh]
	 SCS Correlation Energy    =      -1.6324240641487828 [Eh]
	 SCS Total Energy          =    -349.8114210646586457 [Eh]
	-----------------------------------------------------------

  Dipole Moment: [D]
     X:    -0.2811      Y:     1.5704      Z:     0.1587     Total:     1.6032

*** Psi4 exiting successfully. Buy a developer a beer!
