                               Psi4 1.4a3.dev225

  ==> Input File <==

--------------------------------------------------------------------------
#psi4
#
memory 32 gb

molecule  {
0 1
  O       -0.0000020    -0.6102900    -0.0000420
  C        0.9363500     0.4141040    -0.4566330
  C       -0.9363370     0.4140910     0.4566200
  C        0.0000010     1.5430250    -0.0000030
  C        2.2717190     0.2897090     0.2433650
  C       -2.2717330     0.2897190    -0.2433270
  C        2.9423460    -1.0479970    -0.0522250
  C       -2.9423440    -1.0480000     0.0522380
  H        1.0693000     0.3446630    -1.5460730
  H       -1.0692400     0.3446160     1.5460640
  H        0.4022720     2.1756970     0.7958000
  H       -0.4022820     2.1756850    -0.7958090
  H        2.1021510     0.3966190     1.3216110
  H        2.9117530     1.1256360    -0.0698640
  H       -2.1022070     0.3966710    -1.3215760
  H       -2.9117580     1.1256310     0.0699580
  H        2.2845910    -1.8662570     0.2495040
  H        3.1497060    -1.1530710    -1.1218230
  H        3.8023271    -1.1370973     0.4373360
  H       -3.1496440    -1.1531250     1.1218420
  H       -3.8889120    -1.1460430    -0.4865470
  H       -2.2846070    -1.8662470    -0.2495670
units angstrom
no_reorient  #important for SAPT in psi4, default
symmetry c1  #important for SAPT in psi4, default
}

set PROPERTIES_ORIGIN ["COM"]
properties('MP2/aug-cc-pvtz', properties = ['dipole'])
--------------------------------------------------------------------------

    Molecular point group: c1
  Charge       = 0
  Multiplicity = 1
  Basis Set: AUG-CC-PVTZ
    Blend: AUG-CC-PVTZ
  Basis Set: (AUG-CC-PVTZ AUX)
    Blend: AUG-CC-PVTZ-JKFIT

    Orbital Energies [Eh]
    ---------------------

    Doubly Occupied:

       1A    -20.537509     2A    -11.276520     3A    -11.276260
       4A    -11.223451     5A    -11.218485     6A    -11.217947
       7A    -11.207075     8A    -11.194612     9A     -1.364397
      10A     -1.060477    11A     -1.047808    12A     -0.995523
      13A     -0.917568    14A     -0.850991    15A     -0.805553
      16A     -0.735470    17A     -0.671209    18A     -0.665066
      19A     -0.607024    20A     -0.603064    21A     -0.589361
      22A     -0.563113    23A     -0.552614    24A     -0.523562
      25A     -0.520763    26A     -0.499511    27A     -0.493499
      28A     -0.480830    29A     -0.479782    30A     -0.445630
      31A     -0.432398    32A     -0.401374

  @DF-RHF Final Energy:  -348.18021341494580

   => Energetics <=

    Nuclear Repulsion Energy =            399.9945902148873529
    One-Electron Energy =               -1265.4327193340423037
    Two-Electron Energy =                 517.2579157042091538
    Total Energy =                       -348.1802134149457970
  Basis Set: (AUG-CC-PVTZ AUX)
    Blend: AUG-CC-PVTZ-RI
    Molecular point group: c1

    Geometry (in Angstrom), charge = 0, multiplicity = 1:

       Center              X                  Y                   Z               Mass
    ------------   -----------------  -----------------  -----------------  -----------------
         O            0.000762520000    -0.612531820068     0.000394269867    15.994914619570
         C            0.937114520000     0.411862179932    -0.456196730133    12.000000000000
         C           -0.935572480000     0.411849179932     0.457056269867    12.000000000000
         C            0.000765520000     1.540783179932     0.000433269867    12.000000000000
         C            2.272483520000     0.287467179932     0.243801269867    12.000000000000
         C           -2.270968480000     0.287477179932    -0.242890730133    12.000000000000
         C            2.943110520000    -1.050238820068    -0.051788730133    12.000000000000
         C           -2.941579480000    -1.050241820068     0.052674269867    12.000000000000
         H            1.070064520000     0.342421179932    -1.545636730133     1.007825032230
         H           -1.068475480000     0.342374179932     1.546500269867     1.007825032230
         H            0.403036520000     2.173455179932     0.796236269867     1.007825032230
         H           -0.401517480000     2.173443179932    -0.795372730133     1.007825032230
         H            2.102915520000     0.394377179932     1.322047269867     1.007825032230
         H            2.912517520000     1.123394179932    -0.069427730133     1.007825032230
         H           -2.101442480000     0.394429179932    -1.321139730133     1.007825032230
         H           -2.910993480000     1.123389179932     0.070394269867     1.007825032230
         H            2.285355520000    -1.868498820068     0.249940269867     1.007825032230
         H            3.150470520000    -1.155312820068    -1.121386730133     1.007825032230
         H            3.803091620000    -1.139339120068     0.437772269867     1.007825032230
         H           -3.148879480000    -1.155366820068     1.122278269867     1.007825032230
         H           -3.888147480000    -1.148284820068    -0.486110730133     1.007825032230
         H           -2.283842480000    -1.868488820068    -0.249130730133     1.007825032230

  Basis Set: AUG-CC-PVTZ
    Blend: AUG-CC-PVTZ
  Basis Set: (AUG-CC-PVTZ AUX)
    Blend: AUG-CC-PVTZ-JKFIT
	 Reference Energy          =    -348.1802134149457970 [Eh]
	 Singles Energy            =      -0.0000000000000000 [Eh]
	 Same-Spin Energy          =      -0.3610093315608146 [Eh]
	 Opposite-Spin Energy      =      -1.2610493107284446 [Eh]
	 Correlation Energy        =      -1.6220586422892591 [Eh]
	 Total Energy              =    -349.8022720572350295 [Eh]

	 ================> DF-SCS-MP2 Energies <==================
	-----------------------------------------------------------
	 SCS Same-Spin Scale       =       0.3333333333333333 [-]
	 SCS Opposite-Spin Scale   =       1.2000000000000000 [-]
	 SCS Same-Spin Energy      =      -0.1203364438536049 [Eh]
	 SCS Opposite-Spin Energy  =      -1.5132591728741336 [Eh]
	 SCS Correlation Energy    =      -1.6335956167277383 [Eh]
	 SCS Total Energy          =    -349.8138090316735429 [Eh]
	-----------------------------------------------------------

  Dipole Moment: [D]
     X:     0.0672      Y:     1.6839      Z:     0.0208     Total:     1.6854

*** Psi4 exiting successfully. Buy a developer a beer!
