                               Psi4 1.4a3.dev225

  ==> Input File <==

--------------------------------------------------------------------------
#psi4
#
memory 32 gb

molecule  {
0 1
  O       -0.0000020    -0.6102900    -0.0000420
  C        0.9363500     0.4141040    -0.4566330
  C       -0.9363370     0.4140910     0.4566200
  C        0.0000010     1.5430250    -0.0000030
  C        2.2717190     0.2897090     0.2433650
  C       -2.2717330     0.2897190    -0.2433270
  C        2.9423460    -1.0479970    -0.0522250
  C       -2.9423440    -1.0480000     0.0522380
  H        1.0693000     0.3446630    -1.5460730
  H       -1.0692400     0.3446160     1.5460640
  H        0.4022720     2.1756970     0.7958000
  H       -0.4022820     2.1756850    -0.7958090
  H        2.1455677     0.4596296     1.3194739
  H        2.9117530     1.1256360    -0.0698640
  H       -2.1022070     0.3966710    -1.3215760
  H       -2.9117580     1.1256310     0.0699580
  H        2.2845910    -1.8662570     0.2495040
  H        3.1497060    -1.1530710    -1.1218230
  H        3.8888820    -1.1460650     0.4866090
  H       -3.1496440    -1.1531250     1.1218420
  H       -3.8889120    -1.1460430    -0.4865470
  H       -2.2846070    -1.8662470    -0.2495670
units angstrom
no_reorient  #important for SAPT in psi4, default
symmetry c1  #important for SAPT in psi4, default
}

set PROPERTIES_ORIGIN ["COM"]
properties('MP2/aug-cc-pvtz', properties = ['dipole'])
--------------------------------------------------------------------------

    Molecular point group: c1
  Charge       = 0
  Multiplicity = 1
  Basis Set: AUG-CC-PVTZ
    Blend: AUG-CC-PVTZ
  Basis Set: (AUG-CC-PVTZ AUX)
    Blend: AUG-CC-PVTZ-JKFIT

    Orbital Energies [Eh]
    ---------------------

    Doubly Occupied:

       1A    -20.537859     2A    -11.277368     3A    -11.276889
       4A    -11.224124     5A    -11.218770     6A    -11.218763
       7A    -11.207828     8A    -11.207299     9A     -1.364816
      10A     -1.059495    11A     -1.047285    12A     -0.994115
      13A     -0.913207    14A     -0.847478    15A     -0.805843
      16A     -0.736582    17A     -0.671411    18A     -0.664783
      19A     -0.606959    20A     -0.599874    21A     -0.584390
      22A     -0.559041    23A     -0.551573    24A     -0.522283
      25A     -0.521608    26A     -0.500295    27A     -0.491518
      28A     -0.481521    29A     -0.477517    30A     -0.446124
      31A     -0.432333    32A     -0.401855

  @DF-RHF Final Energy:  -348.18586820291949

   => Energetics <=

    Nuclear Repulsion Energy =            399.4169740516536535
    One-Electron Energy =               -1264.3040678195968667
    Two-Electron Energy =                 516.7012255650238330
    Total Energy =                       -348.1858682029194370
  Basis Set: (AUG-CC-PVTZ AUX)
    Blend: AUG-CC-PVTZ-RI
    Molecular point group: c1

    Geometry (in Angstrom), charge = 0, multiplicity = 1:

       Center              X                  Y                   Z               Mass
    ------------   -----------------  -----------------  -----------------  -----------------
         O           -0.000385451133    -0.613009152725    -0.000022056873    15.994914619570
         C            0.935966548867     0.411384847275    -0.456613056873    12.000000000000
         C           -0.936720451133     0.411371847275     0.456639943127    12.000000000000
         C           -0.000382451133     1.540305847275     0.000016943127    12.000000000000
         C            2.271335548867     0.286989847275     0.243384943127    12.000000000000
         C           -2.272116451133     0.286999847275    -0.243307056873    12.000000000000
         C            2.941962548867    -1.050716152725    -0.052205056873    12.000000000000
         C           -2.942727451133    -1.050719152725     0.052257943127    12.000000000000
         H            1.068916548867     0.341943847275    -1.546053056873     1.007825032230
         H           -1.069623451133     0.341896847275     1.546083943127     1.007825032230
         H            0.401888548867     2.172977847275     0.795819943127     1.007825032230
         H           -0.402665451133     2.172965847275    -0.795789056873     1.007825032230
         H            2.145184248867     0.456910447275     1.319493843127     1.007825032230
         H            2.911369548867     1.122916847275    -0.069844056873     1.007825032230
         H           -2.102590451133     0.393951847275    -1.321556056873     1.007825032230
         H           -2.912141451133     1.122911847275     0.069977943127     1.007825032230
         H            2.284207548867    -1.868976152725     0.249523943127     1.007825032230
         H            3.149322548867    -1.155790152725    -1.121803056873     1.007825032230
         H            3.888498548867    -1.148784152725     0.486628943127     1.007825032230
         H           -3.150027451133    -1.155844152725     1.121861943127     1.007825032230
         H           -3.889295451133    -1.148762152725    -0.486527056873     1.007825032230
         H           -2.284990451133    -1.868966152725    -0.249547056873     1.007825032230

  Basis Set: AUG-CC-PVTZ
    Blend: AUG-CC-PVTZ
  Basis Set: (AUG-CC-PVTZ AUX)
    Blend: AUG-CC-PVTZ-JKFIT
	 Reference Energy          =    -348.1858682029194938 [Eh]
	 Singles Energy            =      -0.0000000000000000 [Eh]
	 Same-Spin Energy          =      -0.3609045478362812 [Eh]
	 Opposite-Spin Energy      =      -1.2614100268377382 [Eh]
	 Correlation Energy        =      -1.6223145746740193 [Eh]
	 Total Energy              =    -349.8081827775935153 [Eh]

	 ================> DF-SCS-MP2 Energies <==================
	-----------------------------------------------------------
	 SCS Same-Spin Scale       =       0.3333333333333333 [-]
	 SCS Opposite-Spin Scale   =       1.2000000000000000 [-]
	 SCS Same-Spin Energy      =      -0.1203015159454271 [Eh]
	 SCS Opposite-Spin Energy  =      -1.5136920322052858 [Eh]
	 SCS Correlation Energy    =      -1.6339935481507128 [Eh]
	 SCS Total Energy          =    -349.8198617510702206 [Eh]
	-----------------------------------------------------------

  Dipole Moment: [D]
     X:     0.0151      Y:     1.7190      Z:     0.0032     Total:     1.7190

*** Psi4 exiting successfully. Buy a developer a beer!
