                               Psi4 1.4a3.dev225

  ==> Input File <==

--------------------------------------------------------------------------
#psi4
#
memory 32 gb

molecule  {
0 1
  O       -0.0000020    -0.6102900    -0.0000420
  C        0.9363500     0.4141040    -0.4566330
  C       -0.9871687     0.4001289     0.5481153
  C        0.0000010     1.5430250    -0.0000030
  C        2.2717190     0.2897090     0.2433650
  C       -2.2717330     0.2897190    -0.2433270
  C        2.9423460    -1.0479970    -0.0522250
  C       -2.9423440    -1.0480000     0.0522380
  H        1.0693000     0.3446630    -1.5460730
  H       -1.0692400     0.3446160     1.5460640
  H        0.4022720     2.1756970     0.7958000
  H       -0.4022820     2.1756850    -0.7958090
  H        2.1021510     0.3966190     1.3216110
  H        2.9117530     1.1256360    -0.0698640
  H       -2.1022070     0.3966710    -1.3215760
  H       -2.9117580     1.1256310     0.0699580
  H        2.2845910    -1.8662570     0.2495040
  H        3.1497060    -1.1530710    -1.1218230
  H        3.8888820    -1.1460650     0.4866090
  H       -3.1496440    -1.1531250     1.1218420
  H       -3.8889120    -1.1460430    -0.4865470
  H       -2.2846070    -1.8662470    -0.2495670
units angstrom
no_reorient  #important for SAPT in psi4, default
symmetry c1  #important for SAPT in psi4, default
}

set PROPERTIES_ORIGIN ["COM"]
properties('MP2/aug-cc-pvtz', properties = ['dipole'])
--------------------------------------------------------------------------

    Molecular point group: c1
  Charge       = 0
  Multiplicity = 1
  Basis Set: AUG-CC-PVTZ
    Blend: AUG-CC-PVTZ
  Basis Set: (AUG-CC-PVTZ AUX)
    Blend: AUG-CC-PVTZ-JKFIT

    Orbital Energies [Eh]
    ---------------------

    Doubly Occupied:

       1A    -20.533822     2A    -11.276079     3A    -11.272969
       4A    -11.227305     5A    -11.221241     6A    -11.216835
       7A    -11.207235     8A    -11.205681     9A     -1.344044
      10A     -1.060645    11A     -1.043766    12A     -0.984510
      13A     -0.915122    14A     -0.845457    15A     -0.811101
      16A     -0.746049    17A     -0.667106    18A     -0.656891
      19A     -0.602995    20A     -0.598994    21A     -0.582545
      22A     -0.568342    23A     -0.546384    24A     -0.521636
      25A     -0.517746    26A     -0.498789    27A     -0.491086
      28A     -0.485932    29A     -0.477440    30A     -0.435273
      31A     -0.425322    32A     -0.403805

  @DF-RHF Final Energy:  -348.17225725254673

   => Energetics <=

    Nuclear Repulsion Energy =            398.0704575329744443
    One-Electron Energy =               -1261.7011429799852067
    Two-Electron Energy =                 515.4584281944640907
    Total Energy =                       -348.1722572525467285
  Basis Set: (AUG-CC-PVTZ AUX)
    Blend: AUG-CC-PVTZ-RI
    Molecular point group: c1

    Geometry (in Angstrom), charge = 0, multiplicity = 1:

       Center              X                  Y                   Z               Mass
    ------------   -----------------  -----------------  -----------------  -----------------
         O            0.005343832438    -0.610984263867    -0.009663199506    15.994914619570
         C            0.941695832438     0.413409736133    -0.466254199506    12.000000000000
         C           -0.981822867562     0.399434636133     0.538494100494    12.000000000000
         C            0.005346832438     1.542330736133    -0.009624199506    12.000000000000
         C            2.277064832438     0.289014736133     0.233743800494    12.000000000000
         C           -2.266387167562     0.289024736133    -0.252948199506    12.000000000000
         C            2.947691832438    -1.048691263867    -0.061846199506    12.000000000000
         C           -2.936998167562    -1.048694263867     0.042616800494    12.000000000000
         H            1.074645832438     0.343968736133    -1.555694199506     1.007825032230
         H           -1.063894167562     0.343921736133     1.536442800494     1.007825032230
         H            0.407617832438     2.175002736133     0.786178800494     1.007825032230
         H           -0.396936167562     2.174990736133    -0.805430199506     1.007825032230
         H            2.107496832438     0.395924736133     1.311989800494     1.007825032230
         H            2.917098832438     1.124941736133    -0.079485199506     1.007825032230
         H           -2.096861167562     0.395976736133    -1.331197199506     1.007825032230
         H           -2.906412167562     1.124936736133     0.060336800494     1.007825032230
         H            2.289936832438    -1.866951263867     0.239882800494     1.007825032230
         H            3.155051832438    -1.153765263867    -1.131444199506     1.007825032230
         H            3.894227832438    -1.146759263867     0.476987800494     1.007825032230
         H           -3.144298167562    -1.153819263867     1.112220800494     1.007825032230
         H           -3.883566167562    -1.146737263867    -0.496168199506     1.007825032230
         H           -2.279261167562    -1.866941263867    -0.259188199506     1.007825032230

  Basis Set: AUG-CC-PVTZ
    Blend: AUG-CC-PVTZ
  Basis Set: (AUG-CC-PVTZ AUX)
    Blend: AUG-CC-PVTZ-JKFIT
	 Reference Energy          =    -348.1722572525467285 [Eh]
	 Singles Energy            =      -0.0000000000000000 [Eh]
	 Same-Spin Energy          =      -0.3608641497636664 [Eh]
	 Opposite-Spin Energy      =      -1.2629213955726657 [Eh]
	 Correlation Energy        =      -1.6237855453363321 [Eh]
	 Total Energy              =    -349.7960427978830467 [Eh]

	 ================> DF-SCS-MP2 Energies <==================
	-----------------------------------------------------------
	 SCS Same-Spin Scale       =       0.3333333333333333 [-]
	 SCS Opposite-Spin Scale   =       1.2000000000000000 [-]
	 SCS Same-Spin Energy      =      -0.1202880499212221 [Eh]
	 SCS Opposite-Spin Energy  =      -1.5155056746871989 [Eh]
	 SCS Correlation Energy    =      -1.6357937246084211 [Eh]
	 SCS Total Energy          =    -349.8080509771551760 [Eh]
	-----------------------------------------------------------

  Dipole Moment: [D]
     X:    -0.2069      Y:     1.7284      Z:     0.1378     Total:     1.7462

*** Psi4 exiting successfully. Buy a developer a beer!
