                               Psi4 1.4a3.dev225

  ==> Input File <==

--------------------------------------------------------------------------
#psi4
#
memory 32 gb

molecule  {
0 1
  O       -0.0000020    -0.6102900    -0.0000420
  C        0.9363500     0.4141040    -0.4566330
  C       -0.9363370     0.4140910     0.4566200
  C        0.0000010     1.5430250    -0.0000030
  C        2.2717190     0.2897090     0.2433650
  C       -2.2717330     0.2897190    -0.2433270
  C        2.9423460    -1.0479970    -0.0522250
  C       -2.9423440    -1.0480000     0.0522380
  H        1.0693000     0.3446630    -1.5460730
  H       -1.0692400     0.3446160     1.5460640
  H        0.4022720     2.1756970     0.7958000
  H       -0.4022820     2.1756850    -0.7958090
  H        2.1021510     0.3966190     1.3216110
  H        2.9117530     1.1256360    -0.0698640
  H       -2.1022070     0.3966710    -1.3215760
  H       -2.9117580     1.1256310     0.0699580
  H        2.2845910    -1.8662570     0.2495040
  H        3.1497060    -1.1530710    -1.1218230
  H        3.8888820    -1.1460650     0.4866090
  H       -3.1605311    -1.1374447     1.1211025
  H       -3.8889120    -1.1460430    -0.4865470
  H       -2.2846070    -1.8662470    -0.2495670
units angstrom
no_reorient  #important for SAPT in psi4, default
symmetry c1  #important for SAPT in psi4, default
}

set PROPERTIES_ORIGIN ["COM"]
properties('MP2/aug-cc-pvtz', properties = ['dipole'])
--------------------------------------------------------------------------

    Molecular point group: c1
  Charge       = 0
  Multiplicity = 1
  Basis Set: AUG-CC-PVTZ
    Blend: AUG-CC-PVTZ
  Basis Set: (AUG-CC-PVTZ AUX)
    Blend: AUG-CC-PVTZ-JKFIT

    Orbital Energies [Eh]
    ---------------------

    Doubly Occupied:

       1A    -20.538080     2A    -11.276985     3A    -11.276969
       4A    -11.224054     5A    -11.218823     6A    -11.218706
       7A    -11.207412     8A    -11.207351     9A     -1.364992
      10A     -1.059790    11A     -1.047421    12A     -0.994224
      13A     -0.913201    14A     -0.847044    15A     -0.804973
      16A     -0.735939    17A     -0.671740    18A     -0.664900
      19A     -0.607438    20A     -0.602002    21A     -0.584174
      22A     -0.558700    23A     -0.551839    24A     -0.522315
      25A     -0.521007    26A     -0.497883    27A     -0.492123
      28A     -0.480791    29A     -0.480281    30A     -0.446255
      31A     -0.432393    32A     -0.401619

  @DF-RHF Final Energy:  -348.18630900246239

   => Energetics <=

    Nuclear Repulsion Energy =            399.5149175069579428
    One-Electron Energy =               -1264.4996055193307711
    Two-Electron Energy =                 516.7983790099103771
    Total Energy =                       -348.1863090024623943
  Basis Set: (AUG-CC-PVTZ AUX)
    Blend: AUG-CC-PVTZ-RI
    Molecular point group: c1

    Geometry (in Angstrom), charge = 0, multiplicity = 1:

       Center              X                  Y                   Z               Mass
    ------------   -----------------  -----------------  -----------------  -----------------
         O            0.000094185917    -0.612591108952    -0.000034401142    15.994914619570
         C            0.936446185917     0.411802891048    -0.456625401142    12.000000000000
         C           -0.936240814083     0.411789891048     0.456627598858    12.000000000000
         C            0.000097185917     1.540723891048     0.000004598858    12.000000000000
         C            2.271815185917     0.287407891048     0.243372598858    12.000000000000
         C           -2.271636814083     0.287417891048    -0.243319401142    12.000000000000
         C            2.942442185917    -1.050298108952    -0.052217401142    12.000000000000
         C           -2.942247814083    -1.050301108952     0.052245598858    12.000000000000
         H            1.069396185917     0.342361891048    -1.546065401142     1.007825032230
         H           -1.069143814083     0.342314891048     1.546071598858     1.007825032230
         H            0.402368185917     2.173395891048     0.795807598858     1.007825032230
         H           -0.402185814083     2.173383891048    -0.795801401142     1.007825032230
         H            2.102247185917     0.394317891048     1.321618598858     1.007825032230
         H            2.911849185917     1.123334891048    -0.069856401142     1.007825032230
         H           -2.102110814083     0.394369891048    -1.321568401142     1.007825032230
         H           -2.911661814083     1.123329891048     0.069965598858     1.007825032230
         H            2.284687185917    -1.868558108952     0.249511598858     1.007825032230
         H            3.149802185917    -1.155372108952    -1.121815401142     1.007825032230
         H            3.888978185917    -1.148366108952     0.486616598858     1.007825032230
         H           -3.160434914083    -1.139745808952     1.121110098858     1.007825032230
         H           -3.888815814083    -1.148344108952    -0.486539401142     1.007825032230
         H           -2.284510814083    -1.868548108952    -0.249559401142     1.007825032230

  Basis Set: AUG-CC-PVTZ
    Blend: AUG-CC-PVTZ
  Basis Set: (AUG-CC-PVTZ AUX)
    Blend: AUG-CC-PVTZ-JKFIT
	 Reference Energy          =    -348.1863090024623943 [Eh]
	 Singles Energy            =      -0.0000000000000000 [Eh]
	 Same-Spin Energy          =      -0.3609256489051178 [Eh]
	 Opposite-Spin Energy      =      -1.2614835312870485 [Eh]
	 Correlation Energy        =      -1.6224091801921663 [Eh]
	 Total Energy              =    -349.8087181826545589 [Eh]

	 ================> DF-SCS-MP2 Energies <==================
	-----------------------------------------------------------
	 SCS Same-Spin Scale       =       0.3333333333333333 [-]
	 SCS Opposite-Spin Scale   =       1.2000000000000000 [-]
	 SCS Same-Spin Energy      =      -0.1203085496350393 [Eh]
	 SCS Opposite-Spin Energy  =      -1.5137802375444582 [Eh]
	 SCS Correlation Energy    =      -1.6340887871794976 [Eh]
	 SCS Total Energy          =    -349.8203977896419019 [Eh]
	-----------------------------------------------------------

  Dipole Moment: [D]
     X:    -0.0042      Y:     1.7104      Z:    -0.0008     Total:     1.7104

*** Psi4 exiting successfully. Buy a developer a beer!
