                               Psi4 1.4a3.dev225

  ==> Input File <==

--------------------------------------------------------------------------
#psi4
#
memory 32 gb

molecule  {
0 1
  O       -0.0000020    -0.6102900    -0.0000420
  C        0.9363500     0.4141040    -0.4566330
  C       -0.9363370     0.4140910     0.4566200
  C        0.0000010     1.5430250    -0.0000030
  C        2.2717190     0.2897090     0.2433650
  C       -2.2717330     0.2897190    -0.2433270
  C        2.9423460    -1.0479970    -0.0522250
  C       -2.9423440    -1.0480000     0.0522380
  H        1.0693000     0.3446630    -1.5460730
  H       -1.0571548     0.3509335     1.4469982
  H        0.4022720     2.1756970     0.7958000
  H       -0.4022820     2.1756850    -0.7958090
  H        2.1021510     0.3966190     1.3216110
  H        2.9117530     1.1256360    -0.0698640
  H       -2.1022070     0.3966710    -1.3215760
  H       -2.9117580     1.1256310     0.0699580
  H        2.2845910    -1.8662570     0.2495040
  H        3.1497060    -1.1530710    -1.1218230
  H        3.8888820    -1.1460650     0.4866090
  H       -3.1496440    -1.1531250     1.1218420
  H       -3.8889120    -1.1460430    -0.4865470
  H       -2.2846070    -1.8662470    -0.2495670
units angstrom
no_reorient  #important for SAPT in psi4, default
symmetry c1  #important for SAPT in psi4, default
}

set PROPERTIES_ORIGIN ["COM"]
properties('MP2/aug-cc-pvtz', properties = ['dipole'])
--------------------------------------------------------------------------

    Molecular point group: c1
  Charge       = 0
  Multiplicity = 1
  Basis Set: AUG-CC-PVTZ
    Blend: AUG-CC-PVTZ
  Basis Set: (AUG-CC-PVTZ AUX)
    Blend: AUG-CC-PVTZ-JKFIT

    Orbital Energies [Eh]
    ---------------------

    Doubly Occupied:

       1A    -20.536351     2A    -11.276281     3A    -11.264298
       4A    -11.223034     5A    -11.218510     6A    -11.217819
       7A    -11.207398     8A    -11.207075     9A     -1.364100
      10A     -1.060978    11A     -1.047622    12A     -0.993890
      13A     -0.917014    14A     -0.847253    15A     -0.810800
      16A     -0.743321    17A     -0.674184    18A     -0.666299
      19A     -0.606891    20A     -0.601318    21A     -0.584001
      22A     -0.563645    23A     -0.551336    24A     -0.522373
      25A     -0.520757    26A     -0.498658    27A     -0.491556
      28A     -0.481661    29A     -0.480016    30A     -0.445175
      31A     -0.433744    32A     -0.402795

  @DF-RHF Final Energy:  -348.18118472950846

   => Energetics <=

    Nuclear Repulsion Energy =            400.0786582163332241
    One-Electron Energy =               -1265.5993730616146422
    Two-Electron Energy =                 517.3395301157729591
    Total Energy =                       -348.1811847295084590
  Basis Set: (AUG-CC-PVTZ AUX)
    Blend: AUG-CC-PVTZ-RI
    Molecular point group: c1

    Geometry (in Angstrom), charge = 0, multiplicity = 1:

       Center              X                  Y                   Z               Mass
    ------------   -----------------  -----------------  -----------------  -----------------
         O           -0.000108716388    -0.612508412239     0.000834063614    15.994914619570
         C            0.936243283612     0.411885587761    -0.455756936386    12.000000000000
         C           -0.936443716388     0.411872587761     0.457496063614    12.000000000000
         C           -0.000105716388     1.540806587761     0.000873063614    12.000000000000
         C            2.271612283612     0.287490587761     0.244241063614    12.000000000000
         C           -2.271839716388     0.287500587761    -0.242450936386    12.000000000000
         C            2.942239283612    -1.050215412239    -0.051348936386    12.000000000000
         C           -2.942450716388    -1.050218412239     0.053114063614    12.000000000000
         H            1.069193283612     0.342444587761    -1.545196936386     1.007825032230
         H           -1.057261516388     0.348715087761     1.447874263614     1.007825032230
         H            0.402165283612     2.173478587761     0.796676063614     1.007825032230
         H           -0.402388716388     2.173466587761    -0.794932936386     1.007825032230
         H            2.102044283612     0.394400587761     1.322487063614     1.007825032230
         H            2.911646283612     1.123417587761    -0.068987936386     1.007825032230
         H           -2.102313716388     0.394452587761    -1.320699936386     1.007825032230
         H           -2.911864716388     1.123412587761     0.070834063614     1.007825032230
         H            2.284484283612    -1.868475412239     0.250380063614     1.007825032230
         H            3.149599283612    -1.155289412239    -1.120946936386     1.007825032230
         H            3.888775283612    -1.148283412239     0.487485063614     1.007825032230
         H           -3.149750716388    -1.155343412239     1.122718063614     1.007825032230
         H           -3.889018716388    -1.148261412239    -0.485670936386     1.007825032230
         H           -2.284713716388    -1.868465412239    -0.248690936386     1.007825032230

  Basis Set: AUG-CC-PVTZ
    Blend: AUG-CC-PVTZ
  Basis Set: (AUG-CC-PVTZ AUX)
    Blend: AUG-CC-PVTZ-JKFIT
	 Reference Energy          =    -348.1811847295084590 [Eh]
	 Singles Energy            =      -0.0000000000000000 [Eh]
	 Same-Spin Energy          =      -0.3607721827770780 [Eh]
	 Opposite-Spin Energy      =      -1.2607996538815722 [Eh]
	 Correlation Energy        =      -1.6215718366586502 [Eh]
	 Total Energy              =    -349.8027565661670906 [Eh]

	 ================> DF-SCS-MP2 Energies <==================
	-----------------------------------------------------------
	 SCS Same-Spin Scale       =       0.3333333333333333 [-]
	 SCS Opposite-Spin Scale   =       1.2000000000000000 [-]
	 SCS Same-Spin Energy      =      -0.1202573942590260 [Eh]
	 SCS Opposite-Spin Energy  =      -1.5129595846578867 [Eh]
	 SCS Correlation Energy    =      -1.6332169789169126 [Eh]
	 SCS Total Energy          =    -349.8144017084253505 [Eh]
	-----------------------------------------------------------

  Dipole Moment: [D]
     X:    -0.0341      Y:     1.7108      Z:     0.0698     Total:     1.7126

*** Psi4 exiting successfully. Buy a developer a beer!
