                               Psi4 1.4a3.dev225

  ==> Input File <==

--------------------------------------------------------------------------
#psi4
#
memory 32 gb

molecule  {
0 1
  O       -0.0000020    -0.6102900    -0.0000420
  C        0.9363500     0.4141040    -0.4566330
  C       -0.9363370     0.4140910     0.4566200
  C        0.0000010     1.5430250    -0.0000030
  C        2.2717190     0.2897090     0.2433650
  C       -2.2717330     0.2897190    -0.2433270
  C        2.9423460    -1.0479970    -0.0522250
  C       -2.9423440    -1.0480000     0.0522380
  H        1.0693000     0.3446630    -1.5460730
  H       -1.0692400     0.3446160     1.5460640
  H        0.4022720     2.1756970     0.7958000
  H       -0.4022820     2.1756850    -0.7958090
  H        2.1021510     0.3966190     1.3216110
  H        2.9117530     1.1256360    -0.0698640
  H       -2.1022070     0.3966710    -1.3215760
  H       -2.9117580     1.1256310     0.0699580
  H        2.2845910    -1.8662570     0.2495040
  H        3.1307615    -1.1434714    -1.0241042
  H        3.8888820    -1.1460650     0.4866090
  H       -3.1496440    -1.1531250     1.1218420
  H       -3.8889120    -1.1460430    -0.4865470
  H       -2.2846070    -1.8662470    -0.2495670
units angstrom
no_reorient  #important for SAPT in psi4, default
symmetry c1  #important for SAPT in psi4, default
}

set PROPERTIES_ORIGIN ["COM"]
properties('MP2/aug-cc-pvtz', properties = ['dipole'])
--------------------------------------------------------------------------

    Molecular point group: c1
  Charge       = 0
  Multiplicity = 1
  Basis Set: AUG-CC-PVTZ
    Blend: AUG-CC-PVTZ
  Basis Set: (AUG-CC-PVTZ AUX)
    Blend: AUG-CC-PVTZ-JKFIT

    Orbital Energies [Eh]
    ---------------------

    Doubly Occupied:

       1A    -20.537869     2A    -11.276831     3A    -11.276818
       4A    -11.223898     5A    -11.218724     6A    -11.217713
       7A    -11.207274     8A    -11.194474     9A     -1.364794
      10A     -1.060852    11A     -1.048082    12A     -0.995721
      13A     -0.916947    14A     -0.850863    15A     -0.806572
      16A     -0.736398    17A     -0.671415    18A     -0.664933
      19A     -0.611533    20A     -0.602046    21A     -0.585409
      22A     -0.563409    23A     -0.551304    24A     -0.522231
      25A     -0.520879    26A     -0.502964    27A     -0.491546
      28A     -0.483654    29A     -0.480084    30A     -0.445964
      31A     -0.432050    32A     -0.401389

  @DF-RHF Final Energy:  -348.18019159673912

   => Energetics <=

    Nuclear Repulsion Energy =            399.9601567264496111
    One-Electron Energy =               -1265.3514187970340572
    Two-Electron Energy =                 517.2110704738452114
    Total Energy =                       -348.1801915967391778
  Basis Set: (AUG-CC-PVTZ AUX)
    Blend: AUG-CC-PVTZ-RI
    Molecular point group: c1

    Geometry (in Angstrom), charge = 0, multiplicity = 1:

       Center              X                  Y                   Z               Mass
    ------------   -----------------  -----------------  -----------------  -----------------
         O            0.000165352715    -0.612537401311    -0.000904031786    15.994914619570
         C            0.936517352715     0.411856598689    -0.457495031786    12.000000000000
         C           -0.936169647285     0.411843598689     0.455757968214    12.000000000000
         C            0.000168352715     1.540777598689    -0.000865031786    12.000000000000
         C            2.271886352715     0.287461598689     0.242502968214    12.000000000000
         C           -2.271565647285     0.287471598689    -0.244189031786    12.000000000000
         C            2.942513352715    -1.050244401311    -0.053087031786    12.000000000000
         C           -2.942176647285    -1.050247401311     0.051375968214    12.000000000000
         H            1.069467352715     0.342415598689    -1.546935031786     1.007825032230
         H           -1.069072647285     0.342368598689     1.545201968214     1.007825032230
         H            0.402439352715     2.173449598689     0.794937968214     1.007825032230
         H           -0.402114647285     2.173437598689    -0.796671031786     1.007825032230
         H            2.102318352715     0.394371598689     1.320748968214     1.007825032230
         H            2.911920352715     1.123388598689    -0.070726031786     1.007825032230
         H           -2.102039647285     0.394423598689    -1.322438031786     1.007825032230
         H           -2.911590647285     1.123383598689     0.069095968214     1.007825032230
         H            2.284758352715    -1.868504401311     0.248641968214     1.007825032230
         H            3.130928852715    -1.145718801311    -1.024966231786     1.007825032230
         H            3.889049352715    -1.148312401311     0.485746968214     1.007825032230
         H           -3.149476647285    -1.155372401311     1.120979968214     1.007825032230
         H           -3.888744647285    -1.148290401311    -0.487409031786     1.007825032230
         H           -2.284439647285    -1.868494401311    -0.250429031786     1.007825032230

  Basis Set: AUG-CC-PVTZ
    Blend: AUG-CC-PVTZ
  Basis Set: (AUG-CC-PVTZ AUX)
    Blend: AUG-CC-PVTZ-JKFIT
	 Reference Energy          =    -348.1801915967391210 [Eh]
	 Singles Energy            =      -0.0000000000000000 [Eh]
	 Same-Spin Energy          =      -0.3610020111192197 [Eh]
	 Opposite-Spin Energy      =      -1.2610652410981613 [Eh]
	 Correlation Energy        =      -1.6220672522173811 [Eh]
	 Total Energy              =    -349.8022588489565123 [Eh]

	 ================> DF-SCS-MP2 Energies <==================
	-----------------------------------------------------------
	 SCS Same-Spin Scale       =       0.3333333333333333 [-]
	 SCS Opposite-Spin Scale   =       1.2000000000000000 [-]
	 SCS Same-Spin Energy      =      -0.1203340037064066 [Eh]
	 SCS Opposite-Spin Energy  =      -1.5132782893177936 [Eh]
	 SCS Correlation Energy    =      -1.6336122930242001 [Eh]
	 SCS Total Energy          =    -349.8138038897633351 [Eh]
	-----------------------------------------------------------

  Dipole Moment: [D]
     X:     0.0211      Y:     1.6891      Z:    -0.0539     Total:     1.6901

*** Psi4 exiting successfully. Buy a developer a beer!
