                               Psi4 1.4a3.dev225

  ==> Input File <==

--------------------------------------------------------------------------
#psi4
#
memory 32 gb

molecule  {
0 1
  O       -0.0000020    -0.6102900    -0.0000420
  C        0.9363500     0.4141040    -0.4566330
  C       -0.9363370     0.4140910     0.4566200
  C       -0.0304764     1.5797704     0.0148599
  C        2.2717190     0.2897090     0.2433650
  C       -2.2717330     0.2897190    -0.2433270
  C        2.9423460    -1.0479970    -0.0522250
  C       -2.9423440    -1.0480000     0.0522380
  H        1.0693000     0.3446630    -1.5460730
  H       -1.0692400     0.3446160     1.5460640
  H        0.4022720     2.1756970     0.7958000
  H       -0.4022820     2.1756850    -0.7958090
  H        2.1021510     0.3966190     1.3216110
  H        2.9117530     1.1256360    -0.0698640
  H       -2.1022070     0.3966710    -1.3215760
  H       -2.9117580     1.1256310     0.0699580
  H        2.2845910    -1.8662570     0.2495040
  H        3.1497060    -1.1530710    -1.1218230
  H        3.8888820    -1.1460650     0.4866090
  H       -3.1496440    -1.1531250     1.1218420
  H       -3.8889120    -1.1460430    -0.4865470
  H       -2.2846070    -1.8662470    -0.2495670
units angstrom
no_reorient  #important for SAPT in psi4, default
symmetry c1  #important for SAPT in psi4, default
}

set PROPERTIES_ORIGIN ["COM"]
properties('MP2/aug-cc-pvtz', properties = ['dipole'])
--------------------------------------------------------------------------

    Molecular point group: c1
  Charge       = 0
  Multiplicity = 1
  Basis Set: AUG-CC-PVTZ
    Blend: AUG-CC-PVTZ
  Basis Set: (AUG-CC-PVTZ AUX)
    Blend: AUG-CC-PVTZ-JKFIT

    Orbital Energies [Eh]
    ---------------------

    Doubly Occupied:

       1A    -20.538862     2A    -11.279733     3A    -11.278260
       4A    -11.223165     5A    -11.218907     6A    -11.218643
       7A    -11.207499     8A    -11.207056     9A     -1.362784
      10A     -1.059342    11A     -1.046273    12A     -0.991777
      13A     -0.911730    14A     -0.847787    15A     -0.804232
      16A     -0.738589    17A     -0.671651    18A     -0.662385
      19A     -0.607979    20A     -0.601424    21A     -0.581427
      22A     -0.558600    23A     -0.554835    24A     -0.527765
      25A     -0.521366    26A     -0.498775    27A     -0.491380
      28A     -0.480547    29A     -0.479996    30A     -0.447798
      31A     -0.422922    32A     -0.402825

  @DF-RHF Final Energy:  -348.18421042733519

   => Energetics <=

    Nuclear Repulsion Energy =            398.7699943601292603
    One-Electron Energy =               -1263.0157778636573767
    Two-Electron Energy =                 516.0615730761929854
    Total Energy =                       -348.1842104273351879
  Basis Set: (AUG-CC-PVTZ AUX)
    Blend: AUG-CC-PVTZ-RI
    Molecular point group: c1

    Geometry (in Angstrom), charge = 0, multiplicity = 1:

       Center              X                  Y                   Z               Mass
    ------------   -----------------  -----------------  -----------------  -----------------
         O            0.003203236101    -0.616317008730    -0.001604016201    15.994914619570
         C            0.939555236101     0.408076991270    -0.458195016201    12.000000000000
         C           -0.933131763899     0.408063991270     0.455057983799    12.000000000000
         C           -0.027271163899     1.573743391270     0.013297883799    12.000000000000
         C            2.274924236101     0.283681991270     0.241802983799    12.000000000000
         C           -2.268527763899     0.283691991270    -0.244889016201    12.000000000000
         C            2.945551236101    -1.054024008730    -0.053787016201    12.000000000000
         C           -2.939138763899    -1.054027008730     0.050675983799    12.000000000000
         H            1.072505236101     0.338635991270    -1.547635016201     1.007825032230
         H           -1.066034763899     0.338588991270     1.544501983799     1.007825032230
         H            0.405477236101     2.169669991270     0.794237983799     1.007825032230
         H           -0.399076763899     2.169657991270    -0.797371016201     1.007825032230
         H            2.105356236101     0.390591991270     1.320048983799     1.007825032230
         H            2.914958236101     1.119608991270    -0.071426016201     1.007825032230
         H           -2.099001763899     0.390643991270    -1.323138016201     1.007825032230
         H           -2.908552763899     1.119603991270     0.068395983799     1.007825032230
         H            2.287796236101    -1.872284008730     0.247941983799     1.007825032230
         H            3.152911236101    -1.159098008730    -1.123385016201     1.007825032230
         H            3.892087236101    -1.152092008730     0.485046983799     1.007825032230
         H           -3.146438763899    -1.159152008730     1.120279983799     1.007825032230
         H           -3.885706763899    -1.152070008730    -0.488109016201     1.007825032230
         H           -2.281401763899    -1.872274008730    -0.251129016201     1.007825032230

  Basis Set: AUG-CC-PVTZ
    Blend: AUG-CC-PVTZ
  Basis Set: (AUG-CC-PVTZ AUX)
    Blend: AUG-CC-PVTZ-JKFIT
	 Reference Energy          =    -348.1842104273351879 [Eh]
	 Singles Energy            =      -0.0000000000000000 [Eh]
	 Same-Spin Energy          =      -0.3608713741038524 [Eh]
	 Opposite-Spin Energy      =      -1.2616661660339670 [Eh]
	 Correlation Energy        =      -1.6225375401378195 [Eh]
	 Total Energy              =    -349.8067479674730293 [Eh]

	 ================> DF-SCS-MP2 Energies <==================
	-----------------------------------------------------------
	 SCS Same-Spin Scale       =       0.3333333333333333 [-]
	 SCS Opposite-Spin Scale   =       1.2000000000000000 [-]
	 SCS Same-Spin Energy      =      -0.1202904580346175 [Eh]
	 SCS Opposite-Spin Energy  =      -1.5139993992407603 [Eh]
	 SCS Correlation Energy    =      -1.6342898572753779 [Eh]
	 SCS Total Energy          =    -349.8185002846105931 [Eh]
	-----------------------------------------------------------

  Dipole Moment: [D]
     X:     0.0303      Y:     1.6995      Z:    -0.0059     Total:     1.6997

*** Psi4 exiting successfully. Buy a developer a beer!
