                               Psi4 1.4a3.dev225

  ==> Input File <==

--------------------------------------------------------------------------
#psi4
#
memory 32 gb

molecule  {
0 1
  O       -0.0000020    -0.6102900    -0.0000420
  C        0.9363500     0.4141040    -0.4566330
  C       -0.9363370     0.4140910     0.4566200
  C        0.0000010     1.5430250    -0.0000030
  C        2.3599881     0.2814864     0.2896355
  C       -2.2717330     0.2897190    -0.2433270
  C        2.9423460    -1.0479970    -0.0522250
  C       -2.9423440    -1.0480000     0.0522380
  H        1.0693000     0.3446630    -1.5460730
  H       -1.0692400     0.3446160     1.5460640
  H        0.4022720     2.1756970     0.7958000
  H       -0.4022820     2.1756850    -0.7958090
  H        2.1021510     0.3966190     1.3216110
  H        2.9117530     1.1256360    -0.0698640
  H       -2.1022070     0.3966710    -1.3215760
  H       -2.9117580     1.1256310     0.0699580
  H        2.2845910    -1.8662570     0.2495040
  H        3.1497060    -1.1530710    -1.1218230
  H        3.8888820    -1.1460650     0.4866090
  H       -3.1496440    -1.1531250     1.1218420
  H       -3.8889120    -1.1460430    -0.4865470
  H       -2.2846070    -1.8662470    -0.2495670
units angstrom
no_reorient  #important for SAPT in psi4, default
symmetry c1  #important for SAPT in psi4, default
}

set PROPERTIES_ORIGIN ["COM"]
properties('MP2/aug-cc-pvtz', properties = ['dipole'])
--------------------------------------------------------------------------

    Molecular point group: c1
  Charge       = 0
  Multiplicity = 1
  Basis Set: AUG-CC-PVTZ
    Blend: AUG-CC-PVTZ
  Basis Set: (AUG-CC-PVTZ AUX)
    Blend: AUG-CC-PVTZ-JKFIT

    Orbital Energies [Eh]
    ---------------------

    Doubly Occupied:

       1A    -20.538133     2A    -11.279558     3A    -11.276726
       4A    -11.223538     5A    -11.218660     6A    -11.217880
       7A    -11.207245     8A    -11.205859     9A     -1.363370
      10A     -1.056728    11A     -1.045257    12A     -0.995489
      13A     -0.909779    14A     -0.843982    15A     -0.807359
      16A     -0.734906    17A     -0.669615    18A     -0.662829
      19A     -0.609318    20A     -0.602252    21A     -0.582847
      22A     -0.559099    23A     -0.551913    24A     -0.528238
      25A     -0.520919    26A     -0.501794    27A     -0.492063
      28A     -0.483522    29A     -0.476608    30A     -0.447306
      31A     -0.430668    32A     -0.390172

  @DF-RHF Final Energy:  -348.17804888626188

   => Energetics <=

    Nuclear Repulsion Energy =            398.1950271497342442
    One-Electron Energy =               -1261.8788914864944672
    Two-Electron Energy =                 515.5058154504984032
    Total Energy =                       -348.1780488862618768
  Basis Set: (AUG-CC-PVTZ AUX)
    Blend: AUG-CC-PVTZ-RI
    Molecular point group: c1

    Geometry (in Angstrom), charge = 0, multiplicity = 1:

       Center              X                  Y                   Z               Mass
    ------------   -----------------  -----------------  -----------------  -----------------
         O           -0.009284951799    -0.611587868642    -0.004907052587    15.994914619570
         C            0.927067048201     0.412806131358    -0.461498052587    12.000000000000
         C           -0.945619951799     0.412793131358     0.451754947413    12.000000000000
         C           -0.009281951799     1.541727131358    -0.004868052587    12.000000000000
         C            2.350705148201     0.280188531358     0.284770447413    12.000000000000
         C           -2.281015951799     0.288421131358    -0.248192052587    12.000000000000
         C            2.933063048201    -1.049294868642    -0.057090052587    12.000000000000
         C           -2.951626951799    -1.049297868642     0.047372947413    12.000000000000
         H            1.060017048201     0.343365131358    -1.550938052587     1.007825032230
         H           -1.078522951799     0.343318131358     1.541198947413     1.007825032230
         H            0.392989048201     2.174399131358     0.790934947413     1.007825032230
         H           -0.411564951799     2.174387131358    -0.800674052587     1.007825032230
         H            2.092868048201     0.395321131358     1.316745947413     1.007825032230
         H            2.902470048201     1.124338131358    -0.074729052587     1.007825032230
         H           -2.111489951799     0.395373131358    -1.326441052587     1.007825032230
         H           -2.921040951799     1.124333131358     0.065092947413     1.007825032230
         H            2.275308048201    -1.867554868642     0.244638947413     1.007825032230
         H            3.140423048201    -1.154368868642    -1.126688052587     1.007825032230
         H            3.879599048201    -1.147362868642     0.481743947413     1.007825032230
         H           -3.158926951799    -1.154422868642     1.116976947413     1.007825032230
         H           -3.898194951799    -1.147340868642    -0.491412052587     1.007825032230
         H           -2.293889951799    -1.867544868642    -0.254432052587     1.007825032230

  Basis Set: AUG-CC-PVTZ
    Blend: AUG-CC-PVTZ
  Basis Set: (AUG-CC-PVTZ AUX)
    Blend: AUG-CC-PVTZ-JKFIT
	 Reference Energy          =    -348.1780488862618768 [Eh]
	 Singles Energy            =      -0.0000000000000000 [Eh]
	 Same-Spin Energy          =      -0.3609572134704960 [Eh]
	 Opposite-Spin Energy      =      -1.2618895616034460 [Eh]
	 Correlation Energy        =      -1.6228467750739419 [Eh]
	 Total Energy              =    -349.8008956613358009 [Eh]

	 ================> DF-SCS-MP2 Energies <==================
	-----------------------------------------------------------
	 SCS Same-Spin Scale       =       0.3333333333333333 [-]
	 SCS Opposite-Spin Scale   =       1.2000000000000000 [-]
	 SCS Same-Spin Energy      =      -0.1203190711568320 [Eh]
	 SCS Opposite-Spin Energy  =      -1.5142674739241351 [Eh]
	 SCS Correlation Energy    =      -1.6345865450809671 [Eh]
	 SCS Total Energy          =    -349.8126354313428692 [Eh]
	-----------------------------------------------------------

  Dipole Moment: [D]
     X:    -0.0357      Y:     1.6988      Z:    -0.0151     Total:     1.6992

*** Psi4 exiting successfully. Buy a developer a beer!
