                               Psi4 1.4a3.dev225

  ==> Input File <==

--------------------------------------------------------------------------
#psi4
#
memory 32 gb

molecule  {
0 1
  O       -0.0000020    -0.6102900    -0.0000420
  C        0.9363500     0.4141040    -0.4566330
  C       -0.9363370     0.4140910     0.4566200
  C        0.0000010     1.5430250    -0.0000030
  C        2.2717190     0.2897090     0.2433650
  C       -2.2717330     0.2897190    -0.2433270
  C        2.9423460    -1.0479970    -0.0522250
  C       -2.9423440    -1.0480000     0.0522380
  H        1.0693000     0.3446630    -1.5460730
  H       -1.0692400     0.3446160     1.5460640
  H        0.4022720     2.1756970     0.7958000
  H       -0.4022820     2.1756850    -0.7958090
  H        2.1021510     0.3966190     1.3216110
  H        2.9117530     1.1256360    -0.0698640
  H       -2.1022070     0.3966710    -1.3215760
  H       -2.9117580     1.1256310     0.0699580
  H        2.2845910    -1.8662570     0.2495040
  H        3.1497060    -1.1530710    -1.1218230
  H        3.8888820    -1.1460650     0.4866090
  H       -3.1496440    -1.1531250     1.1218420
  H       -3.8889120    -1.1460430    -0.4865470
  H       -2.2846070    -1.8662470    -0.2495670
units angstrom
no_reorient  #important for SAPT in psi4, default
symmetry c1  #important for SAPT in psi4, default
}

set PROPERTIES_ORIGIN ["COM"]
properties('MP2/aug-cc-pvtz', properties = ['dipole'])
--------------------------------------------------------------------------

    Molecular point group: c1
  Charge       = 0
  Multiplicity = 1
  Basis Set: AUG-CC-PVTZ
    Blend: AUG-CC-PVTZ
  Basis Set: (AUG-CC-PVTZ AUX)
    Blend: AUG-CC-PVTZ-JKFIT

    Orbital Energies [Eh]
    ---------------------

    Doubly Occupied:

       1A    -20.538079     2A    -11.276993     3A    -11.276991
       4A    -11.224064     5A    -11.218830     6A    -11.218830
       7A    -11.207357     8A    -11.207357     9A     -1.364997
      10A     -1.059767    11A     -1.047402    12A     -0.994207
      13A     -0.913196    14A     -0.847138    15A     -0.805084
      16A     -0.735993    17A     -0.671715    18A     -0.664922
      19A     -0.607432    20A     -0.601645    21A     -0.584104
      22A     -0.558856    23A     -0.551735    24A     -0.522187
      25A     -0.521166    26A     -0.498464    27A     -0.491885
      28A     -0.480579    29A     -0.480365    30A     -0.446232
      31A     -0.432417    32A     -0.401636

  @DF-RHF Final Energy:  -348.18635054379297

   => Energetics <=

    Nuclear Repulsion Energy =            399.5150202786328464
    One-Electron Energy =               -1264.4994931217609064
    Two-Electron Energy =                 516.7981222993350912
    Total Energy =                       -348.1863505437929689
  Basis Set: (AUG-CC-PVTZ AUX)
    Blend: AUG-CC-PVTZ-RI
    Molecular point group: c1

    Geometry (in Angstrom), charge = 0, multiplicity = 1:

       Center              X                  Y                   Z               Mass
    ------------   -----------------  -----------------  -----------------  -----------------
         O           -0.000001974140    -0.612452613067    -0.000040932759    15.994914619570
         C            0.936350025860     0.411941386933    -0.456631932759    12.000000000000
         C           -0.936336974140     0.411928386933     0.456621067241    12.000000000000
         C            0.000001025860     1.540862386933    -0.000001932759    12.000000000000
         C            2.271719025860     0.287546386933     0.243366067241    12.000000000000
         C           -2.271732974140     0.287556386933    -0.243325932759    12.000000000000
         C            2.942346025860    -1.050159613067    -0.052223932759    12.000000000000
         C           -2.942343974140    -1.050162613067     0.052239067241    12.000000000000
         H            1.069300025860     0.342500386933    -1.546071932759     1.007825032230
         H           -1.069239974140     0.342453386933     1.546065067241     1.007825032230
         H            0.402272025860     2.173534386933     0.795801067241     1.007825032230
         H           -0.402281974140     2.173522386933    -0.795807932759     1.007825032230
         H            2.102151025860     0.394456386933     1.321612067241     1.007825032230
         H            2.911753025860     1.123473386933    -0.069862932759     1.007825032230
         H           -2.102206974140     0.394508386933    -1.321574932759     1.007825032230
         H           -2.911757974140     1.123468386933     0.069959067241     1.007825032230
         H            2.284591025860    -1.868419613067     0.249505067241     1.007825032230
         H            3.149706025860    -1.155233613067    -1.121821932759     1.007825032230
         H            3.888882025860    -1.148227613067     0.486610067241     1.007825032230
         H           -3.149643974140    -1.155287613067     1.121843067241     1.007825032230
         H           -3.888911974140    -1.148205613067    -0.486545932759     1.007825032230
         H           -2.284606974140    -1.868409613067    -0.249565932759     1.007825032230

  Basis Set: AUG-CC-PVTZ
    Blend: AUG-CC-PVTZ
  Basis Set: (AUG-CC-PVTZ AUX)
    Blend: AUG-CC-PVTZ-JKFIT
	 Reference Energy          =    -348.1863505437929689 [Eh]
	 Singles Energy            =      -0.0000000000000000 [Eh]
	 Same-Spin Energy          =      -0.3609225209503956 [Eh]
	 Opposite-Spin Energy      =      -1.2614720419062655 [Eh]
	 Correlation Energy        =      -1.6223945628566612 [Eh]
	 Total Energy              =    -349.8087451066496101 [Eh]

	 ================> DF-SCS-MP2 Energies <==================
	-----------------------------------------------------------
	 SCS Same-Spin Scale       =       0.3333333333333333 [-]
	 SCS Opposite-Spin Scale   =       1.2000000000000000 [-]
	 SCS Same-Spin Energy      =      -0.1203075069834652 [Eh]
	 SCS Opposite-Spin Energy  =      -1.5137664502875186 [Eh]
	 SCS Correlation Energy    =      -1.6340739572709837 [Eh]
	 SCS Total Energy          =    -349.8204245010639397 [Eh]
	-----------------------------------------------------------

  Dipole Moment: [D]
     X:     0.0000      Y:     1.7074      Z:     0.0001     Total:     1.7074

*** Psi4 exiting successfully. Buy a developer a beer!
