                               Psi4 1.4a3.dev225

  ==> Input File <==

--------------------------------------------------------------------------
#psi4
#
memory 32 gb

molecule  {
0 1
  O       -0.0000020    -0.6102900    -0.0000420
  C        0.9363500     0.4141040    -0.4566330
  C       -0.9363370     0.4140910     0.4566200
  C        0.0000010     1.5430250    -0.0000030
  C        2.2717190     0.2897090     0.2433650
  C       -2.2717330     0.2897190    -0.2433270
  C        2.9423460    -1.0479970    -0.0522250
  C       -2.9423440    -1.0480000     0.0522380
  H        1.0693000     0.3446630    -1.5460730
  H       -1.0692400     0.3446160     1.5460640
  H        0.4022720     2.1756970     0.7958000
  H       -0.4022820     2.1756850    -0.7958090
  H        2.0386399     0.3012232     1.3149708
  H        2.9117530     1.1256360    -0.0698640
  H       -2.1022070     0.3966710    -1.3215760
  H       -2.9117580     1.1256310     0.0699580
  H        2.2845910    -1.8662570     0.2495040
  H        3.1497060    -1.1530710    -1.1218230
  H        3.8888820    -1.1460650     0.4866090
  H       -3.1496440    -1.1531250     1.1218420
  H       -3.8889120    -1.1460430    -0.4865470
  H       -2.2846070    -1.8662470    -0.2495670
units angstrom
no_reorient  #important for SAPT in psi4, default
symmetry c1  #important for SAPT in psi4, default
}

set PROPERTIES_ORIGIN ["COM"]
properties('MP2/aug-cc-pvtz', properties = ['dipole'])
--------------------------------------------------------------------------

    Molecular point group: c1
  Charge       = 0
  Multiplicity = 1
  Basis Set: AUG-CC-PVTZ
    Blend: AUG-CC-PVTZ
  Basis Set: (AUG-CC-PVTZ AUX)
    Blend: AUG-CC-PVTZ-JKFIT

    Orbital Energies [Eh]
    ---------------------

    Doubly Occupied:

       1A    -20.538453     2A    -11.277167     3A    -11.276491
       4A    -11.223988     5A    -11.218927     6A    -11.218917
       7A    -11.207452     8A    -11.206731     9A     -1.365341
      10A     -1.060321    11A     -1.047658    12A     -0.994401
      13A     -0.913206    14A     -0.846741    15A     -0.804068
      16A     -0.735163    17A     -0.672849    18A     -0.664842
      19A     -0.609387    20A     -0.603675    21A     -0.583365
      22A     -0.558573    23A     -0.552000    24A     -0.522276
      25A     -0.520680    26A     -0.496186    27A     -0.493126
      28A     -0.482961    29A     -0.477934    30A     -0.446363
      31A     -0.432339    32A     -0.401295

  @DF-RHF Final Energy:  -348.18488556579990

   => Energetics <=

    Nuclear Repulsion Energy =            399.6745733790743884
    One-Electron Energy =               -1264.8131666584276900
    Two-Electron Energy =                 516.9537077135532854
    Total Energy =                       -348.1848855657999593
  Basis Set: (AUG-CC-PVTZ AUX)
    Blend: AUG-CC-PVTZ-RI
    Molecular point group: c1

    Geometry (in Angstrom), charge = 0, multiplicity = 1:

       Center              X                  Y                   Z               Mass
    ------------   -----------------  -----------------  -----------------  -----------------
         O            0.000558986172    -0.611610031884     0.000017716653    15.994914619570
         C            0.936910986172     0.412783968116    -0.456573283347    12.000000000000
         C           -0.935776013828     0.412770968116     0.456679716653    12.000000000000
         C            0.000561986172     1.541704968116     0.000056716653    12.000000000000
         C            2.272279986172     0.288388968116     0.243424716653    12.000000000000
         C           -2.271172013828     0.288398968116    -0.243267283347    12.000000000000
         C            2.942906986172    -1.049317031884    -0.052165283347    12.000000000000
         C           -2.941783013828    -1.049320031884     0.052297716653    12.000000000000
         H            1.069860986172     0.343342968116    -1.546013283347     1.007825032230
         H           -1.068679013828     0.343295968116     1.546123716653     1.007825032230
         H            0.402832986172     2.174376968116     0.795859716653     1.007825032230
         H           -0.401721013828     2.174364968116    -0.795749283347     1.007825032230
         H            2.039200886172     0.299903168116     1.315030516653     1.007825032230
         H            2.912313986172     1.124315968116    -0.069804283347     1.007825032230
         H           -2.101646013828     0.395350968116    -1.321516283347     1.007825032230
         H           -2.911197013828     1.124310968116     0.070017716653     1.007825032230
         H            2.285151986172    -1.867577031884     0.249563716653     1.007825032230
         H            3.150266986172    -1.154391031884    -1.121763283347     1.007825032230
         H            3.889442986172    -1.147385031884     0.486668716653     1.007825032230
         H           -3.149083013828    -1.154445031884     1.121901716653     1.007825032230
         H           -3.888351013828    -1.147363031884    -0.486487283347     1.007825032230
         H           -2.284046013828    -1.867567031884    -0.249507283347     1.007825032230

  Basis Set: AUG-CC-PVTZ
    Blend: AUG-CC-PVTZ
  Basis Set: (AUG-CC-PVTZ AUX)
    Blend: AUG-CC-PVTZ-JKFIT
	 Reference Energy          =    -348.1848855657999025 [Eh]
	 Singles Energy            =      -0.0000000000000000 [Eh]
	 Same-Spin Energy          =      -0.3610597315850162 [Eh]
	 Opposite-Spin Energy      =      -1.2617292146935475 [Eh]
	 Correlation Energy        =      -1.6227889462785636 [Eh]
	 Total Energy              =    -349.8076745120784494 [Eh]

	 ================> DF-SCS-MP2 Energies <==================
	-----------------------------------------------------------
	 SCS Same-Spin Scale       =       0.3333333333333333 [-]
	 SCS Opposite-Spin Scale   =       1.2000000000000000 [-]
	 SCS Same-Spin Energy      =      -0.1203532438616721 [Eh]
	 SCS Opposite-Spin Energy  =      -1.5140750576322570 [Eh]
	 SCS Correlation Energy    =      -1.6344283014939291 [Eh]
	 SCS Total Energy          =    -349.8193138672938289 [Eh]
	-----------------------------------------------------------

  Dipole Moment: [D]
     X:    -0.0206      Y:     1.6929      Z:    -0.0078     Total:     1.6930

*** Psi4 exiting successfully. Buy a developer a beer!
