                               Psi4 1.4a3.dev225

  ==> Input File <==

--------------------------------------------------------------------------
#psi4
#
memory 32 gb

molecule  {
0 1
  O       -0.0000020    -0.6102900    -0.0000420
  C        0.9363500     0.4141040    -0.4566330
  C       -0.9363370     0.4140910     0.4566200
  C       -0.0083365     1.5281103    -0.0508262
  C        2.2717190     0.2897090     0.2433650
  C       -2.2717330     0.2897190    -0.2433270
  C        2.9423460    -1.0479970    -0.0522250
  C       -2.9423440    -1.0480000     0.0522380
  H        1.0693000     0.3446630    -1.5460730
  H       -1.0692400     0.3446160     1.5460640
  H        0.4022720     2.1756970     0.7958000
  H       -0.4022820     2.1756850    -0.7958090
  H        2.1021510     0.3966190     1.3216110
  H        2.9117530     1.1256360    -0.0698640
  H       -2.1022070     0.3966710    -1.3215760
  H       -2.9117580     1.1256310     0.0699580
  H        2.2845910    -1.8662570     0.2495040
  H        3.1497060    -1.1530710    -1.1218230
  H        3.8888820    -1.1460650     0.4866090
  H       -3.1496440    -1.1531250     1.1218420
  H       -3.8889120    -1.1460430    -0.4865470
  H       -2.2846070    -1.8662470    -0.2495670
units angstrom
no_reorient  #important for SAPT in psi4, default
symmetry c1  #important for SAPT in psi4, default
}

set PROPERTIES_ORIGIN ["COM"]
properties('MP2/aug-cc-pvtz', properties = ['dipole'])
--------------------------------------------------------------------------

    Molecular point group: c1
  Charge       = 0
  Multiplicity = 1
  Basis Set: AUG-CC-PVTZ
    Blend: AUG-CC-PVTZ
  Basis Set: (AUG-CC-PVTZ AUX)
    Blend: AUG-CC-PVTZ-JKFIT

    Orbital Energies [Eh]
    ---------------------

    Doubly Occupied:

       1A    -20.537935     2A    -11.276842     3A    -11.276067
       4A    -11.224866     5A    -11.219416     6A    -11.218453
       7A    -11.207694     8A    -11.207179     9A     -1.366102
      10A     -1.060102    11A     -1.047969    12A     -0.995408
      13A     -0.913866    14A     -0.847166    15A     -0.805445
      16A     -0.735932    17A     -0.672532    18A     -0.666046
      19A     -0.607336    20A     -0.601696    21A     -0.585365
      22A     -0.559196    23A     -0.550478    24A     -0.522987
      25A     -0.517631    26A     -0.498343    27A     -0.492064
      28A     -0.480667    29A     -0.480545    30A     -0.446428
      31A     -0.434225    32A     -0.400815

  @DF-RHF Final Energy:  -348.18316690601472

   => Energetics <=

    Nuclear Repulsion Energy =            399.8062995381974360
    One-Electron Energy =               -1265.0653376282659792
    Two-Electron Energy =                 517.0758711840538808
    Total Energy =                       -348.1831669060146623
  Basis Set: (AUG-CC-PVTZ AUX)
    Blend: AUG-CC-PVTZ-RI
    Molecular point group: c1

    Geometry (in Angstrom), charge = 0, multiplicity = 1:

       Center              X                  Y                   Z               Mass
    ------------   -----------------  -----------------  -----------------  -----------------
         O            0.000874853948    -0.610884081985     0.005303979902    15.994914619570
         C            0.937226853948     0.413509918015    -0.451287020098    12.000000000000
         C           -0.935460146052     0.413496918015     0.461965979902    12.000000000000
         C           -0.007459646052     1.527516218015    -0.045480220098    12.000000000000
         C            2.272595853948     0.289114918015     0.248710979902    12.000000000000
         C           -2.270856146052     0.289124918015    -0.237981020098    12.000000000000
         C            2.943222853948    -1.048591081985    -0.046879020098    12.000000000000
         C           -2.941467146052    -1.048594081985     0.057583979902    12.000000000000
         H            1.070176853948     0.344068918015    -1.540727020098     1.007825032230
         H           -1.068363146052     0.344021918015     1.551409979902     1.007825032230
         H            0.403148853948     2.175102918015     0.801145979902     1.007825032230
         H           -0.401405146052     2.175090918015    -0.790463020098     1.007825032230
         H            2.103027853948     0.396024918015     1.326956979902     1.007825032230
         H            2.912629853948     1.125041918015    -0.064518020098     1.007825032230
         H           -2.101330146052     0.396076918015    -1.316230020098     1.007825032230
         H           -2.910881146052     1.125036918015     0.075303979902     1.007825032230
         H            2.285467853948    -1.866851081985     0.254849979902     1.007825032230
         H            3.150582853948    -1.153665081985    -1.116477020098     1.007825032230
         H            3.889758853948    -1.146659081985     0.491954979902     1.007825032230
         H           -3.148767146052    -1.153719081985     1.127187979902     1.007825032230
         H           -3.888035146052    -1.146637081985    -0.481201020098     1.007825032230
         H           -2.283730146052    -1.866841081985    -0.244221020098     1.007825032230

  Basis Set: AUG-CC-PVTZ
    Blend: AUG-CC-PVTZ
  Basis Set: (AUG-CC-PVTZ AUX)
    Blend: AUG-CC-PVTZ-JKFIT
	 Reference Energy          =    -348.1831669060147192 [Eh]
	 Singles Energy            =      -0.0000000000000000 [Eh]
	 Same-Spin Energy          =      -0.3610432959260931 [Eh]
	 Opposite-Spin Energy      =      -1.2616444661847854 [Eh]
	 Correlation Energy        =      -1.6226877621108786 [Eh]
	 Total Energy              =    -349.8058546681256189 [Eh]

	 ================> DF-SCS-MP2 Energies <==================
	-----------------------------------------------------------
	 SCS Same-Spin Scale       =       0.3333333333333333 [-]
	 SCS Opposite-Spin Scale   =       1.2000000000000000 [-]
	 SCS Same-Spin Energy      =      -0.1203477653086977 [Eh]
	 SCS Opposite-Spin Energy  =      -1.5139733594217424 [Eh]
	 SCS Correlation Energy    =      -1.6343211247304401 [Eh]
	 SCS Total Energy          =    -349.8174880307451531 [Eh]
	-----------------------------------------------------------

  Dipole Moment: [D]
     X:    -0.0163      Y:     1.7003      Z:    -0.0248     Total:     1.7006

*** Psi4 exiting successfully. Buy a developer a beer!
