                               Psi4 1.4a3.dev225

  ==> Input File <==

--------------------------------------------------------------------------
#psi4
#
memory 32 gb

molecule  {
0 1
  O       -0.0000020    -0.6102900    -0.0000420
  C        0.9363500     0.4141040    -0.4566330
  C       -0.9609544     0.4071815     0.5028222
  C        0.0000010     1.5430250    -0.0000030
  C        2.2717190     0.2897090     0.2433650
  C       -2.2717330     0.2897190    -0.2433270
  C        2.9423460    -1.0479970    -0.0522250
  C       -2.9423440    -1.0480000     0.0522380
  H        1.0693000     0.3446630    -1.5460730
  H       -1.0692400     0.3446160     1.5460640
  H        0.4022720     2.1756970     0.7958000
  H       -0.4022820     2.1756850    -0.7958090
  H        2.1021510     0.3966190     1.3216110
  H        2.9117530     1.1256360    -0.0698640
  H       -2.1022070     0.3966710    -1.3215760
  H       -2.9117580     1.1256310     0.0699580
  H        2.2845910    -1.8662570     0.2495040
  H        3.1497060    -1.1530710    -1.1218230
  H        3.8888820    -1.1460650     0.4866090
  H       -3.1496440    -1.1531250     1.1218420
  H       -3.8889120    -1.1460430    -0.4865470
  H       -2.2846070    -1.8662470    -0.2495670
units angstrom
no_reorient  #important for SAPT in psi4, default
symmetry c1  #important for SAPT in psi4, default
}

set PROPERTIES_ORIGIN ["COM"]
properties('MP2/aug-cc-pvtz', properties = ['dipole'])
--------------------------------------------------------------------------

    Molecular point group: c1
  Charge       = 0
  Multiplicity = 1
  Basis Set: AUG-CC-PVTZ
    Blend: AUG-CC-PVTZ
  Basis Set: (AUG-CC-PVTZ AUX)
    Blend: AUG-CC-PVTZ-JKFIT

    Orbital Energies [Eh]
    ---------------------

    Doubly Occupied:

       1A    -20.535898     2A    -11.276209     3A    -11.274844
       4A    -11.225541     5A    -11.219792     6A    -11.217798
       7A    -11.207263     8A    -11.206494     9A     -1.354337
      10A     -1.059978    11A     -1.045400    12A     -0.989204
      13A     -0.913843    14A     -0.846209    15A     -0.807416
      16A     -0.740766    17A     -0.669374    18A     -0.661209
      19A     -0.604556    20A     -0.600267    21A     -0.583064
      22A     -0.563682    23A     -0.549185    24A     -0.521680
      25A     -0.519369    26A     -0.498713    27A     -0.490495
      28A     -0.484222    29A     -0.478888    30A     -0.438472
      31A     -0.431673    32A     -0.403649

  @DF-RHF Final Energy:  -348.18294521796582

   => Energetics <=

    Nuclear Repulsion Energy =            398.7950993242888558
    One-Electron Energy =               -1263.1171090369903141
    Two-Electron Energy =                 516.1390644947355213
    Total Energy =                       -348.1829452179658801
  Basis Set: (AUG-CC-PVTZ AUX)
    Blend: AUG-CC-PVTZ-RI
    Molecular point group: c1

    Geometry (in Angstrom), charge = 0, multiplicity = 1:

       Center              X                  Y                   Z               Mass
    ------------   -----------------  -----------------  -----------------  -----------------
         O            0.002586958728    -0.611725963151    -0.004899869696    15.994914619570
         C            0.938938958728     0.412668036849    -0.461490869696    12.000000000000
         C           -0.958365441272     0.405745536849     0.497964330304    12.000000000000
         C            0.002589958728     1.541589036849    -0.004860869696    12.000000000000
         C            2.274307958728     0.288273036849     0.238507130304    12.000000000000
         C           -2.269144041272     0.288283036849    -0.248184869696    12.000000000000
         C            2.944934958728    -1.049432963151    -0.057082869696    12.000000000000
         C           -2.939755041272    -1.049435963151     0.047380130304    12.000000000000
         H            1.071888958728     0.343227036849    -1.550930869696     1.007825032230
         H           -1.066651041272     0.343180036849     1.541206130304     1.007825032230
         H            0.404860958728     2.174261036849     0.790942130304     1.007825032230
         H           -0.399693041272     2.174249036849    -0.800666869696     1.007825032230
         H            2.104739958728     0.395183036849     1.316753130304     1.007825032230
         H            2.914341958728     1.124200036849    -0.074721869696     1.007825032230
         H           -2.099618041272     0.395235036849    -1.326433869696     1.007825032230
         H           -2.909169041272     1.124195036849     0.065100130304     1.007825032230
         H            2.287179958728    -1.867692963151     0.244646130304     1.007825032230
         H            3.152294958728    -1.154506963151    -1.126680869696     1.007825032230
         H            3.891470958728    -1.147500963151     0.481751130304     1.007825032230
         H           -3.147055041272    -1.154560963151     1.116984130304     1.007825032230
         H           -3.886323041272    -1.147478963151    -0.491404869696     1.007825032230
         H           -2.282018041272    -1.867682963151    -0.254424869696     1.007825032230

  Basis Set: AUG-CC-PVTZ
    Blend: AUG-CC-PVTZ
  Basis Set: (AUG-CC-PVTZ AUX)
    Blend: AUG-CC-PVTZ-JKFIT
	 Reference Energy          =    -348.1829452179658233 [Eh]
	 Singles Energy            =      -0.0000000000000000 [Eh]
	 Same-Spin Energy          =      -0.3608018737688224 [Eh]
	 Opposite-Spin Energy      =      -1.2619723078953893 [Eh]
	 Correlation Energy        =      -1.6227741816642116 [Eh]
	 Total Energy              =    -349.8057193996300498 [Eh]

	 ================> DF-SCS-MP2 Energies <==================
	-----------------------------------------------------------
	 SCS Same-Spin Scale       =       0.3333333333333333 [-]
	 SCS Opposite-Spin Scale   =       1.2000000000000000 [-]
	 SCS Same-Spin Energy      =      -0.1202672912562741 [Eh]
	 SCS Opposite-Spin Energy  =      -1.5143667694744671 [Eh]
	 SCS Correlation Energy    =      -1.6346340607307412 [Eh]
	 SCS Total Energy          =    -349.8175792786965417 [Eh]
	-----------------------------------------------------------

  Dipole Moment: [D]
     X:    -0.1072      Y:     1.7189      Z:     0.0772     Total:     1.7240

*** Psi4 exiting successfully. Buy a developer a beer!
