                               Psi4 1.4a3.dev225

  ==> Input File <==

--------------------------------------------------------------------------
#psi4
#
memory 32 gb

molecule  {
0 1
  O       -0.0000020    -0.6102900    -0.0000420
  C        0.9363500     0.4141040    -0.4566330
  C       -0.9363370     0.4140910     0.4566200
  C        0.0000010     1.5430250    -0.0000030
  C        2.2717190     0.2897090     0.2433650
  C       -2.2717330     0.2897190    -0.2433270
  C        2.9423460    -1.0479970    -0.0522250
  C       -2.9423440    -1.0480000     0.0522380
  H        1.0693000     0.3446630    -1.5460730
  H       -1.0692400     0.3446160     1.5460640
  H        0.4022720     2.1756970     0.7958000
  H       -0.4022820     2.1756850    -0.7958090
  H        2.1021510     0.3966190     1.3216110
  H        2.9117530     1.1256360    -0.0698640
  H       -2.1022070     0.3966710    -1.3215760
  H       -2.8534903     1.0495297     0.0414366
  H        2.2845910    -1.8662570     0.2495040
  H        3.1497060    -1.1530710    -1.1218230
  H        3.8888820    -1.1460650     0.4866090
  H       -3.1496440    -1.1531250     1.1218420
  H       -3.8889120    -1.1460430    -0.4865470
  H       -2.2846070    -1.8662470    -0.2495670
units angstrom
no_reorient  #important for SAPT in psi4, default
symmetry c1  #important for SAPT in psi4, default
}

set PROPERTIES_ORIGIN ["COM"]
properties('MP2/aug-cc-pvtz', properties = ['dipole'])
--------------------------------------------------------------------------

    Molecular point group: c1
  Charge       = 0
  Multiplicity = 1
  Basis Set: AUG-CC-PVTZ
    Blend: AUG-CC-PVTZ
  Basis Set: (AUG-CC-PVTZ AUX)
    Blend: AUG-CC-PVTZ-JKFIT

    Orbital Energies [Eh]
    ---------------------

    Doubly Occupied:

       1A    -20.537215     2A    -11.276662     3A    -11.276151
       4A    -11.223934     5A    -11.218575     6A    -11.207129
       7A    -11.206499     8A    -11.205755     9A     -1.364256
      10A     -1.062441    11A     -1.048994    12A     -0.994400
      13A     -0.912694    14A     -0.850254    15A     -0.808853
      16A     -0.737048    17A     -0.676356    18A     -0.664447
      19A     -0.608331    20A     -0.606047    21A     -0.583748
      22A     -0.558408    23A     -0.551736    24A     -0.521821
      25A     -0.521306    26A     -0.499212    27A     -0.494881
      28A     -0.483503    29A     -0.480017    30A     -0.446193
      31A     -0.432004    32A     -0.401044

  @DF-RHF Final Energy:  -348.18055493318059

   => Energetics <=

    Nuclear Repulsion Energy =            400.0323323309121406
    One-Electron Energy =               -1265.5059483230775186
    Two-Electron Energy =                 517.2930610589847902
    Total Energy =                       -348.1805549331805878
  Basis Set: (AUG-CC-PVTZ AUX)
    Blend: AUG-CC-PVTZ-RI
    Molecular point group: c1

    Geometry (in Angstrom), charge = 0, multiplicity = 1:

       Center              X                  Y                   Z               Mass
    ------------   -----------------  -----------------  -----------------  -----------------
         O           -0.000516622245    -0.611780450106     0.000210981843    15.994914619570
         C            0.935835377755     0.412613549894    -0.456380018157    12.000000000000
         C           -0.936851622245     0.412600549894     0.456872981843    12.000000000000
         C           -0.000513622245     1.541534549894     0.000249981843    12.000000000000
         C            2.271204377755     0.288218549894     0.243617981843    12.000000000000
         C           -2.272247622245     0.288228549894    -0.243074018157    12.000000000000
         C            2.941831377755    -1.049487450106    -0.051972018157    12.000000000000
         C           -2.942858622245    -1.049490450106     0.052490981843    12.000000000000
         H            1.068785377755     0.343172549894    -1.545820018157     1.007825032230
         H           -1.069754622245     0.343125549894     1.546316981843     1.007825032230
         H            0.401757377755     2.174206549894     0.796052981843     1.007825032230
         H           -0.402796622245     2.174194549894    -0.795556018157     1.007825032230
         H            2.101636377755     0.395128549894     1.321863981843     1.007825032230
         H            2.911238377755     1.124145549894    -0.069611018157     1.007825032230
         H           -2.102721622245     0.395180549894    -1.321323018157     1.007825032230
         H           -2.854004922245     1.048039249894     0.041689581843     1.007825032230
         H            2.284076377755    -1.867747450106     0.249756981843     1.007825032230
         H            3.149191377755    -1.154561450106    -1.121570018157     1.007825032230
         H            3.888367377755    -1.147555450106     0.486861981843     1.007825032230
         H           -3.150158622245    -1.154615450106     1.122094981843     1.007825032230
         H           -3.889426622245    -1.147533450106    -0.486294018157     1.007825032230
         H           -2.285121622245    -1.867737450106    -0.249314018157     1.007825032230

  Basis Set: AUG-CC-PVTZ
    Blend: AUG-CC-PVTZ
  Basis Set: (AUG-CC-PVTZ AUX)
    Blend: AUG-CC-PVTZ-JKFIT
	 Reference Energy          =    -348.1805549331805878 [Eh]
	 Singles Energy            =      -0.0000000000000000 [Eh]
	 Same-Spin Energy          =      -0.3609410611320433 [Eh]
	 Opposite-Spin Energy      =      -1.2609696269212658 [Eh]
	 Correlation Energy        =      -1.6219106880533092 [Eh]
	 Total Energy              =    -349.8024656212339210 [Eh]

	 ================> DF-SCS-MP2 Energies <==================
	-----------------------------------------------------------
	 SCS Same-Spin Scale       =       0.3333333333333333 [-]
	 SCS Opposite-Spin Scale   =       1.2000000000000000 [-]
	 SCS Same-Spin Energy      =      -0.1203136870440144 [Eh]
	 SCS Opposite-Spin Energy  =      -1.5131635523055189 [Eh]
	 SCS Correlation Energy    =      -1.6334772393495334 [Eh]
	 SCS Total Energy          =    -349.8140321725301192 [Eh]
	-----------------------------------------------------------

  Dipole Moment: [D]
     X:    -0.0361      Y:     1.7608      Z:     0.0092     Total:     1.7612

*** Psi4 exiting successfully. Buy a developer a beer!
