                               Psi4 1.4a3.dev225

  ==> Input File <==

--------------------------------------------------------------------------
#psi4
#
memory 32 gb

molecule  {
0 1
  O       -0.0000020    -0.6102900    -0.0000420
  C        0.9363500     0.4141040    -0.4566330
  C       -0.9363370     0.4140910     0.4566200
  C        0.0000010     1.5430250    -0.0000030
  C        2.2717190     0.2897090     0.2433650
  C       -2.2717330     0.2897190    -0.2433270
  C        2.9423460    -1.0479970    -0.0522250
  C       -2.9423440    -1.0480000     0.0522380
  H        1.0693000     0.3446630    -1.5460730
  H       -1.0692400     0.3446160     1.5460640
  H        0.4022720     2.1756970     0.7958000
  H       -0.4022820     2.1756850    -0.7958090
  H        2.0944203     0.4014931     1.3707687
  H        2.9117530     1.1256360    -0.0698640
  H       -2.1022070     0.3966710    -1.3215760
  H       -2.9117580     1.1256310     0.0699580
  H        2.2845910    -1.8662570     0.2495040
  H        3.1497060    -1.1530710    -1.1218230
  H        3.8888820    -1.1460650     0.4866090
  H       -3.1496440    -1.1531250     1.1218420
  H       -3.8889120    -1.1460430    -0.4865470
  H       -2.2846070    -1.8662470    -0.2495670
units angstrom
no_reorient  #important for SAPT in psi4, default
symmetry c1  #important for SAPT in psi4, default
}

set PROPERTIES_ORIGIN ["COM"]
properties('MP2/aug-cc-pvtz', properties = ['dipole'])
--------------------------------------------------------------------------

    Molecular point group: c1
  Charge       = 0
  Multiplicity = 1
  Basis Set: AUG-CC-PVTZ
    Blend: AUG-CC-PVTZ
  Basis Set: (AUG-CC-PVTZ AUX)
    Blend: AUG-CC-PVTZ-JKFIT

    Orbital Energies [Eh]
    ---------------------

    Doubly Occupied:

       1A    -20.538159     2A    -11.277579     3A    -11.276965
       4A    -11.225027     5A    -11.224076     6A    -11.218830
       7A    -11.207982     8A    -11.207359     9A     -1.365049
      10A     -1.059025    11A     -1.046710    12A     -0.994095
      13A     -0.913451    14A     -0.846329    15A     -0.803016
      16A     -0.734765    17A     -0.671910    18A     -0.664093
      19A     -0.606546    20A     -0.601305    21A     -0.583088
      22A     -0.558651    23A     -0.551840    24A     -0.522214
      25A     -0.521427    26A     -0.497381    27A     -0.492054
      28A     -0.480593    29A     -0.476489    30A     -0.446340
      31A     -0.432269    32A     -0.401845

  @DF-RHF Final Energy:  -348.18429327168730

   => Energetics <=

    Nuclear Repulsion Energy =            399.2981534551987011
    One-Electron Energy =               -1264.0719702510584739
    Two-Electron Energy =                 516.5895235241724777
    Total Energy =                       -348.1842932716873520
  Basis Set: (AUG-CC-PVTZ AUX)
    Blend: AUG-CC-PVTZ-RI
    Molecular point group: c1

    Geometry (in Angstrom), charge = 0, multiplicity = 1:

       Center              X                  Y                   Z               Mass
    ------------   -----------------  -----------------  -----------------  -----------------
         O            0.000066307088    -0.612495663442    -0.000475117000    15.994914619570
         C            0.936418307088     0.411898336558    -0.457066117000    12.000000000000
         C           -0.936268692912     0.411885336558     0.456186883000    12.000000000000
         C            0.000069307088     1.540819336558    -0.000436117000    12.000000000000
         C            2.271787307088     0.287503336558     0.242931883000    12.000000000000
         C           -2.271664692912     0.287513336558    -0.243760117000    12.000000000000
         C            2.942414307088    -1.050202663442    -0.052658117000    12.000000000000
         C           -2.942275692912    -1.050205663442     0.051804883000    12.000000000000
         H            1.069368307088     0.342457336558    -1.546506117000     1.007825032230
         H           -1.069171692912     0.342410336558     1.545630883000     1.007825032230
         H            0.402340307088     2.173491336558     0.795366883000     1.007825032230
         H           -0.402213692912     2.173479336558    -0.796242117000     1.007825032230
         H            2.094488607088     0.399287436558     1.370335583000     1.007825032230
         H            2.911821307088     1.123430336558    -0.070297117000     1.007825032230
         H           -2.102138692912     0.394465336558    -1.322009117000     1.007825032230
         H           -2.911689692912     1.123425336558     0.069524883000     1.007825032230
         H            2.284659307088    -1.868462663442     0.249070883000     1.007825032230
         H            3.149774307088    -1.155276663442    -1.122256117000     1.007825032230
         H            3.888950307088    -1.148270663442     0.486175883000     1.007825032230
         H           -3.149575692912    -1.155330663442     1.121408883000     1.007825032230
         H           -3.888843692912    -1.148248663442    -0.486980117000     1.007825032230
         H           -2.284538692912    -1.868452663442    -0.250000117000     1.007825032230

  Basis Set: AUG-CC-PVTZ
    Blend: AUG-CC-PVTZ
  Basis Set: (AUG-CC-PVTZ AUX)
    Blend: AUG-CC-PVTZ-JKFIT
	 Reference Energy          =    -348.1842932716872951 [Eh]
	 Singles Energy            =      -0.0000000000000000 [Eh]
	 Same-Spin Energy          =      -0.3609441719430471 [Eh]
	 Opposite-Spin Energy      =      -1.2618349752548657 [Eh]
	 Correlation Energy        =      -1.6227791471979127 [Eh]
	 Total Energy              =    -349.8070724188851841 [Eh]

	 ================> DF-SCS-MP2 Energies <==================
	-----------------------------------------------------------
	 SCS Same-Spin Scale       =       0.3333333333333333 [-]
	 SCS Opposite-Spin Scale   =       1.2000000000000000 [-]
	 SCS Same-Spin Energy      =      -0.1203147239810157 [Eh]
	 SCS Opposite-Spin Energy  =      -1.5142019703058387 [Eh]
	 SCS Correlation Energy    =      -1.6345166942868543 [Eh]
	 SCS Total Energy          =    -349.8188099659741397 [Eh]
	-----------------------------------------------------------

  Dipole Moment: [D]
     X:     0.0037      Y:     1.6952      Z:    -0.0334     Total:     1.6955

*** Psi4 exiting successfully. Buy a developer a beer!
