                               Psi4 1.4a3.dev225

  ==> Input File <==

--------------------------------------------------------------------------
#psi4
#
memory 32 gb

molecule  {
0 1
  O       -0.0000020    -0.6102900    -0.0000420
  C        0.9363500     0.4141040    -0.4566330
  C       -0.9363370     0.4140910     0.4566200
  C        0.0000010     1.5430250    -0.0000030
  C        2.2717190     0.2897090     0.2433650
  C       -2.2717330     0.2897190    -0.2433270
  C        2.9423460    -1.0479970    -0.0522250
  C       -2.9423440    -1.0480000     0.0522380
  H        1.0693000     0.3446630    -1.5460730
  H       -1.0692400     0.3446160     1.5460640
  H        0.4022720     2.1756970     0.7958000
  H       -0.4022820     2.1756850    -0.7958090
  H        2.1021510     0.3966190     1.3216110
  H        2.9117530     1.1256360    -0.0698640
  H       -2.1022070     0.3966710    -1.3215760
  H       -2.9117580     1.1256310     0.0699580
  H        2.2845910    -1.8662570     0.2495040
  H        3.1497060    -1.1530710    -1.1218230
  H        3.8715710    -1.1442715     0.4767544
  H       -3.1496440    -1.1531250     1.1218420
  H       -3.8889120    -1.1460430    -0.4865470
  H       -2.2846070    -1.8662470    -0.2495670
units angstrom
no_reorient  #important for SAPT in psi4, default
symmetry c1  #important for SAPT in psi4, default
}

set PROPERTIES_ORIGIN ["COM"]
properties('MP2/aug-cc-pvtz', properties = ['dipole'])
--------------------------------------------------------------------------

    Molecular point group: c1
  Charge       = 0
  Multiplicity = 1
  Basis Set: AUG-CC-PVTZ
    Blend: AUG-CC-PVTZ
  Basis Set: (AUG-CC-PVTZ AUX)
    Blend: AUG-CC-PVTZ-JKFIT

    Orbital Energies [Eh]
    ---------------------

    Doubly Occupied:

       1A    -20.537952     2A    -11.276887     3A    -11.276826
       4A    -11.223928     5A    -11.218753     6A    -11.218631
       7A    -11.207294     8A    -11.204838     9A     -1.364863
      10A     -1.059839    11A     -1.047444    12A     -0.994399
      13A     -0.913921    14A     -0.847835    15A     -0.805160
      16A     -0.735875    17A     -0.671598    18A     -0.664919
      19A     -0.607315    20A     -0.601757    21A     -0.584980
      22A     -0.559643    23A     -0.552070    24A     -0.522417
      25A     -0.521136    26A     -0.498624    27A     -0.492354
      28A     -0.480685    29A     -0.480236    30A     -0.446098
      31A     -0.432419    32A     -0.401579

  @DF-RHF Final Energy:  -348.18635746858212

   => Energetics <=

    Nuclear Repulsion Energy =            399.6059854390432520
    One-Electron Energy =               -1264.6801399902267349
    Two-Electron Energy =                 516.8877970826014234
    Total Energy =                       -348.1863574685820595
  Basis Set: (AUG-CC-PVTZ AUX)
    Blend: AUG-CC-PVTZ-RI
    Molecular point group: c1

    Geometry (in Angstrom), charge = 0, multiplicity = 1:

       Center              X                  Y                   Z               Mass
    ------------   -----------------  -----------------  -----------------  -----------------
         O            0.000150924864    -0.612468454114     0.000046107766    15.994914619570
         C            0.936502924864     0.411925545886    -0.456544892234    12.000000000000
         C           -0.936184075136     0.411912545886     0.456708107766    12.000000000000
         C            0.000153924864     1.540846545886     0.000085107766    12.000000000000
         C            2.271871924864     0.287530545886     0.243453107766    12.000000000000
         C           -2.271580075136     0.287540545886    -0.243238892234    12.000000000000
         C            2.942498924864    -1.050175454114    -0.052136892234    12.000000000000
         C           -2.942191075136    -1.050178454114     0.052326107766    12.000000000000
         H            1.069452924864     0.342484545886    -1.545984892234     1.007825032230
         H           -1.069087075136     0.342437545886     1.546152107766     1.007825032230
         H            0.402424924864     2.173518545886     0.795888107766     1.007825032230
         H           -0.402129075136     2.173506545886    -0.795720892234     1.007825032230
         H            2.102303924864     0.394440545886     1.321699107766     1.007825032230
         H            2.911905924864     1.123457545886    -0.069775892234     1.007825032230
         H           -2.102054075136     0.394492545886    -1.321487892234     1.007825032230
         H           -2.911605075136     1.123452545886     0.070046107766     1.007825032230
         H            2.284743924864    -1.868435454114     0.249592107766     1.007825032230
         H            3.149858924864    -1.155249454114    -1.121734892234     1.007825032230
         H            3.871723924864    -1.146449954114     0.476842507766     1.007825032230
         H           -3.149491075136    -1.155303454114     1.121930107766     1.007825032230
         H           -3.888759075136    -1.148221454114    -0.486458892234     1.007825032230
         H           -2.284454075136    -1.868425454114    -0.249478892234     1.007825032230

  Basis Set: AUG-CC-PVTZ
    Blend: AUG-CC-PVTZ
  Basis Set: (AUG-CC-PVTZ AUX)
    Blend: AUG-CC-PVTZ-JKFIT
	 Reference Energy          =    -348.1863574685821163 [Eh]
	 Singles Energy            =      -0.0000000000000000 [Eh]
	 Same-Spin Energy          =      -0.3609374038889434 [Eh]
	 Opposite-Spin Energy      =      -1.2613655915828315 [Eh]
	 Correlation Energy        =      -1.6223029954717747 [Eh]
	 Total Energy              =    -349.8086604640539008 [Eh]

	 ================> DF-SCS-MP2 Energies <==================
	-----------------------------------------------------------
	 SCS Same-Spin Scale       =       0.3333333333333333 [-]
	 SCS Opposite-Spin Scale   =       1.2000000000000000 [-]
	 SCS Same-Spin Energy      =      -0.1203124679629811 [Eh]
	 SCS Opposite-Spin Energy  =      -1.5136387098993977 [Eh]
	 SCS Correlation Energy    =      -1.6339511778623788 [Eh]
	 SCS Total Energy          =    -349.8203086464445164 [Eh]
	-----------------------------------------------------------

  Dipole Moment: [D]
     X:     0.0150      Y:     1.7023      Z:     0.0048     Total:     1.7023

*** Psi4 exiting successfully. Buy a developer a beer!
