                               Psi4 1.4a3.dev225

  ==> Input File <==

--------------------------------------------------------------------------
#psi4
#
memory 32 gb

molecule  {
0 1
  O       -0.0000020    -0.6102900    -0.0000420
  C        0.9363500     0.4141040    -0.4566330
  C       -0.9363370     0.4140910     0.4566200
  C        0.0000010     1.5430250    -0.0000030
  C        2.2717190     0.2897090     0.2433650
  C       -2.2717330     0.2897190    -0.2433270
  C        2.9423460    -1.0479970    -0.0522250
  C       -2.9423440    -1.0480000     0.0522380
  H        1.0693000     0.3446630    -1.5460730
  H       -1.0692400     0.3446160     1.5460640
  H        0.4022720     2.1756970     0.7958000
  H       -0.4022820     2.1756850    -0.7958090
  H        2.1021510     0.3966190     1.3216110
  H        2.9117530     1.1256360    -0.0698640
  H       -2.1022070     0.3966710    -1.3215760
  H       -2.9117580     1.1256310     0.0699580
  H        2.2845910    -1.8662570     0.2495040
  H        3.1497060    -1.1530710    -1.1218230
  H        3.8888820    -1.1460650     0.4866090
  H       -3.1496440    -1.1531250     1.1218420
  H       -3.8889120    -1.1460430    -0.4865470
  H       -2.2545005    -1.9037005    -0.2633815
units angstrom
no_reorient  #important for SAPT in psi4, default
symmetry c1  #important for SAPT in psi4, default
}

set PROPERTIES_ORIGIN ["COM"]
properties('MP2/aug-cc-pvtz', properties = ['dipole'])
--------------------------------------------------------------------------

    Molecular point group: c1
  Charge       = 0
  Multiplicity = 1
  Basis Set: AUG-CC-PVTZ
    Blend: AUG-CC-PVTZ
  Basis Set: (AUG-CC-PVTZ AUX)
    Blend: AUG-CC-PVTZ-JKFIT

    Orbital Energies [Eh]
    ---------------------

    Doubly Occupied:

       1A    -20.538040     2A    -11.277123     3A    -11.276967
       4A    -11.224138     5A    -11.219380     6A    -11.218819
       7A    -11.213167     8A    -11.207340     9A     -1.364968
      10A     -1.059401    11A     -1.047152    12A     -0.993603
      13A     -0.911808    14A     -0.845584    15A     -0.804432
      16A     -0.735978    17A     -0.671213    18A     -0.664987
      19A     -0.607557    20A     -0.599763    21A     -0.584048
      22A     -0.559096    23A     -0.550034    24A     -0.521823
      25A     -0.520145    26A     -0.498609    27A     -0.489699
      28A     -0.480708    29A     -0.478140    30A     -0.445709
      31A     -0.432557    32A     -0.401686

  @DF-RHF Final Energy:  -348.18423749621746

   => Energetics <=

    Nuclear Repulsion Energy =            399.3414799835566669
    One-Electron Energy =               -1264.1640869079528784
    Two-Electron Energy =                 516.6383694281787484
    Total Energy =                       -348.1842374962175199
  Basis Set: (AUG-CC-PVTZ AUX)
    Blend: AUG-CC-PVTZ-RI
    Molecular point group: c1

    Geometry (in Angstrom), charge = 0, multiplicity = 1:

       Center              X                  Y                   Z               Mass
    ------------   -----------------  -----------------  -----------------  -----------------
         O           -0.000267889101    -0.612121805900     0.000081083491    15.994914619570
         C            0.936084110899     0.412272194100    -0.456509916509    12.000000000000
         C           -0.936602889101     0.412259194100     0.456743083491    12.000000000000
         C           -0.000264889101     1.541193194100     0.000120083491    12.000000000000
         C            2.271453110899     0.287877194100     0.243488083491    12.000000000000
         C           -2.271998889101     0.287887194100    -0.243203916509    12.000000000000
         C            2.942080110899    -1.049828805900    -0.052101916509    12.000000000000
         C           -2.942609889101    -1.049831805900     0.052361083491    12.000000000000
         H            1.069034110899     0.342831194100    -1.545949916509     1.007825032230
         H           -1.069505889101     0.342784194100     1.546187083491     1.007825032230
         H            0.402006110899     2.173865194100     0.795923083491     1.007825032230
         H           -0.402547889101     2.173853194100    -0.795685916509     1.007825032230
         H            2.101885110899     0.394787194100     1.321734083491     1.007825032230
         H            2.911487110899     1.123804194100    -0.069740916509     1.007825032230
         H           -2.102472889101     0.394839194100    -1.321452916509     1.007825032230
         H           -2.912023889101     1.123799194100     0.070081083491     1.007825032230
         H            2.284325110899    -1.868088805900     0.249627083491     1.007825032230
         H            3.149440110899    -1.154902805900    -1.121699916509     1.007825032230
         H            3.888616110899    -1.147896805900     0.486732083491     1.007825032230
         H           -3.149909889101    -1.154956805900     1.121965083491     1.007825032230
         H           -3.889177889101    -1.147874805900    -0.486423916509     1.007825032230
         H           -2.254766389101    -1.905532305900    -0.263258416509     1.007825032230

  Basis Set: AUG-CC-PVTZ
    Blend: AUG-CC-PVTZ
  Basis Set: (AUG-CC-PVTZ AUX)
    Blend: AUG-CC-PVTZ-JKFIT
	 Reference Energy          =    -348.1842374962174631 [Eh]
	 Singles Energy            =      -0.0000000000000000 [Eh]
	 Same-Spin Energy          =      -0.3609433974654225 [Eh]
	 Opposite-Spin Energy      =      -1.2618271334319455 [Eh]
	 Correlation Energy        =      -1.6227705308973681 [Eh]
	 Total Energy              =    -349.8070080271148186 [Eh]

	 ================> DF-SCS-MP2 Energies <==================
	-----------------------------------------------------------
	 SCS Same-Spin Scale       =       0.3333333333333333 [-]
	 SCS Opposite-Spin Scale   =       1.2000000000000000 [-]
	 SCS Same-Spin Energy      =      -0.1203144658218075 [Eh]
	 SCS Opposite-Spin Energy  =      -1.5141925601183346 [Eh]
	 SCS Correlation Energy    =      -1.6345070259401422 [Eh]
	 SCS Total Energy          =    -349.8187445221576013 [Eh]
	-----------------------------------------------------------

  Dipole Moment: [D]
     X:    -0.0030      Y:     1.7304      Z:     0.0047     Total:     1.7304

*** Psi4 exiting successfully. Buy a developer a beer!
