                               Psi4 1.4a3.dev225

  ==> Input File <==

--------------------------------------------------------------------------
#psi4
#
memory 32 gb

molecule  {
-1 1
  S       -1.9699520     0.0002960    -0.4301720
  O       -0.2287560    -0.0011680     1.6042380
  C        0.8192720     0.0003510    -0.5193240
  C        1.6340270     1.2570650    -0.2212640
  C        1.6341410    -1.2566790    -0.2229280
  C       -0.4461550    -0.0002880     0.3723060
  H        0.5101060     0.0010330    -1.5685180
  H        1.8714700     1.2810570     0.8460150
  H        2.5686810     1.2824310    -0.7973980
  H        1.0553630     2.1549570    -0.4631840
  H        1.8715790    -1.2820640     0.8443200
  H        2.5688000    -1.2811950    -0.7990910
  H        1.1612154    -1.9903934    -0.4216456
units angstrom
no_reorient  #important for SAPT in psi4, default
symmetry c1  #important for SAPT in psi4, default
}

set PROPERTIES_ORIGIN ["COM"]
properties('MP2/aug-cc-pvtz', properties = ['dipole'])
--------------------------------------------------------------------------

    Molecular point group: c1
  Charge       = -1
  Multiplicity = 1
  Basis Set: AUG-CC-PVTZ
    Blend: AUG-CC-PVTZ
  Basis Set: (AUG-CC-PVTZ AUX)
    Blend: AUG-CC-PVTZ-JKFIT

    Orbital Energies [Eh]
    ---------------------

    Doubly Occupied:

       1A    -91.704055     2A    -20.343789     3A    -11.158422
       4A    -11.080860     5A    -11.080085     6A    -11.056780
       7A     -8.706490     8A     -6.388015     9A     -6.386563
      10A     -6.386070    11A     -1.171868    12A     -0.934252
      13A     -0.814751    14A     -0.777794    15A     -0.668306
      16A     -0.538639    17A     -0.496048    18A     -0.464801
      19A     -0.433989    20A     -0.406527    21A     -0.384066
      22A     -0.366077    23A     -0.362299    24A     -0.327965
      25A     -0.312991    26A     -0.205000    27A     -0.142219
      28A     -0.131515

  @DF-RHF Final Energy:  -628.04702581681852

   => Energetics <=

    Nuclear Repulsion Energy =            284.5790718335201177
    One-Electron Energy =               -1438.7917234669830577
    Two-Electron Energy =                 526.1656258166443649
    Total Energy =                       -628.0470258168185183
  Basis Set: (AUG-CC-PVTZ AUX)
    Blend: AUG-CC-PVTZ-RI
    Molecular point group: c1

    Geometry (in Angstrom), charge = -1, multiplicity = 1:

       Center              X                  Y                   Z               Mass
    ------------   -----------------  -----------------  -----------------  -----------------
         S           -1.860762282170    -0.001289032733    -0.453794924303    31.972071174400
         O           -0.119566282170    -0.002753032733     1.580615075697    15.994914619570
         C            0.928461717830    -0.001234032733    -0.542946924303    12.000000000000
         C            1.743216717830     1.255479967267    -0.244886924303    12.000000000000
         C            1.743330717830    -1.258264032733    -0.246550924303    12.000000000000
         C           -0.336965282170    -0.001873032733     0.348683075697    12.000000000000
         H            0.619295717830    -0.000552032733    -1.592140924303     1.007825032230
         H            1.980659717830     1.279471967267     0.822392075697     1.007825032230
         H            2.677870717830     1.280845967267    -0.821020924303     1.007825032230
         H            1.164552717830     2.153371967267    -0.486806924303     1.007825032230
         H            1.980768717830    -1.283649032733     0.820697075697     1.007825032230
         H            2.677989717830    -1.282780032733    -0.822713924303     1.007825032230
         H            1.270405117830    -1.991978432733    -0.445268524303     1.007825032230

  Basis Set: AUG-CC-PVTZ
    Blend: AUG-CC-PVTZ
  Basis Set: (AUG-CC-PVTZ AUX)
    Blend: AUG-CC-PVTZ-JKFIT
	 Reference Energy          =    -628.0470258168185183 [Eh]
	 Singles Energy            =      -0.0000000000000000 [Eh]
	 Same-Spin Energy          =      -0.2995446077013887 [Eh]
	 Opposite-Spin Energy      =      -0.9562417834761126 [Eh]
	 Correlation Energy        =      -1.2557863911775011 [Eh]
	 Total Energy              =    -629.3028122079959985 [Eh]

	 ================> DF-SCS-MP2 Energies <==================
	-----------------------------------------------------------
	 SCS Same-Spin Scale       =       0.3333333333333333 [-]
	 SCS Opposite-Spin Scale   =       1.2000000000000000 [-]
	 SCS Same-Spin Energy      =      -0.0998482025671296 [Eh]
	 SCS Opposite-Spin Energy  =      -1.1474901401713351 [Eh]
	 SCS Correlation Energy    =      -1.2473383427384646 [Eh]
	 SCS Total Energy          =    -629.2943641595569488 [Eh]
	-----------------------------------------------------------

  Dipole Moment: [D]
     X:     5.3201      Y:    -0.1216      Z:    -1.5362     Total:     5.5387

*** Psi4 exiting successfully. Buy a developer a beer!
