                               Psi4 1.4a3.dev225

  ==> Input File <==

--------------------------------------------------------------------------
#psi4
#
memory 32 gb

molecule  {
-1 1
  S       -1.9699520     0.0002960    -0.4301720
  O       -0.2287560    -0.0011680     1.6042380
  C        0.8192720     0.0003510    -0.5193240
  C        1.6340270     1.2570650    -0.2212640
  C        1.6341410    -1.2566790    -0.2229280
  C       -0.4461550    -0.0002880     0.3723060
  H        0.5101060     0.0010330    -1.5685180
  H        1.8714700     1.2810570     0.8460150
  H        2.5686810     1.2824310    -0.7973980
  H        1.0553630     2.1549570    -0.4631840
  H        1.8715790    -1.2820640     0.8443200
  H        2.5262478    -1.2800789    -0.7728600
  H        1.0555640    -2.1543050    -0.4660390
units angstrom
no_reorient  #important for SAPT in psi4, default
symmetry c1  #important for SAPT in psi4, default
}

set PROPERTIES_ORIGIN ["COM"]
properties('MP2/aug-cc-pvtz', properties = ['dipole'])
--------------------------------------------------------------------------

    Molecular point group: c1
  Charge       = -1
  Multiplicity = 1
  Basis Set: AUG-CC-PVTZ
    Blend: AUG-CC-PVTZ
  Basis Set: (AUG-CC-PVTZ AUX)
    Blend: AUG-CC-PVTZ-JKFIT

    Orbital Energies [Eh]
    ---------------------

    Doubly Occupied:

       1A    -91.703701     2A    -20.343618     3A    -11.158289
       4A    -11.082388     5A    -11.081258     6A    -11.075645
       7A     -8.706136     8A     -6.387665     9A     -6.386209
      10A     -6.385719    11A     -1.171666    12A     -0.930138
      13A     -0.799308    14A     -0.777480    15A     -0.665267
      16A     -0.538435    17A     -0.475787    18A     -0.462676
      19A     -0.436779    20A     -0.406540    21A     -0.383103
      22A     -0.366507    23A     -0.354949    24A     -0.328111
      25A     -0.312816    26A     -0.205002    27A     -0.141906
      28A     -0.131232

  @DF-RHF Final Energy:  -628.07981895624584

   => Energetics <=

    Nuclear Repulsion Energy =            283.8483648999898037
    One-Electron Energy =               -1437.4597050216621028
    Two-Electron Energy =                 525.5315211654265113
    Total Energy =                       -628.0798189562458447
  Basis Set: (AUG-CC-PVTZ AUX)
    Blend: AUG-CC-PVTZ-RI
    Molecular point group: c1

    Geometry (in Angstrom), charge = -1, multiplicity = 1:

       Center              X                  Y                   Z               Mass
    ------------   -----------------  -----------------  -----------------  -----------------
         S           -1.859312459371     0.000303537403    -0.453617248042    31.972071174400
         O           -0.118116459371    -0.001160462597     1.580792751958    15.994914619570
         C            0.929911540629     0.000358537403    -0.542769248042    12.000000000000
         C            1.744666540629     1.257072537403    -0.244709248042    12.000000000000
         C            1.744780540629    -1.256671462597    -0.246373248042    12.000000000000
         C           -0.335515459371    -0.000280462597     0.348860751958    12.000000000000
         H            0.620745540629     0.001040537403    -1.591963248042     1.007825032230
         H            1.982109540629     1.281064537403     0.822569751958     1.007825032230
         H            2.679320540629     1.282438537403    -0.820843248042     1.007825032230
         H            1.166002540629     2.154964537403    -0.486629248042     1.007825032230
         H            1.982218540629    -1.282056462597     0.820874751958     1.007825032230
         H            2.636887340629    -1.280071362597    -0.796305248042     1.007825032230
         H            1.166203540629    -2.154297462597    -0.489484248042     1.007825032230

  Basis Set: AUG-CC-PVTZ
    Blend: AUG-CC-PVTZ
  Basis Set: (AUG-CC-PVTZ AUX)
    Blend: AUG-CC-PVTZ-JKFIT
	 Reference Energy          =    -628.0798189562458447 [Eh]
	 Singles Energy            =      -0.0000000000000000 [Eh]
	 Same-Spin Energy          =      -0.2994591123063179 [Eh]
	 Opposite-Spin Energy      =      -0.9565708121512392 [Eh]
	 Correlation Energy        =      -1.2560299244575570 [Eh]
	 Total Energy              =    -629.3358488807034519 [Eh]

	 ================> DF-SCS-MP2 Energies <==================
	-----------------------------------------------------------
	 SCS Same-Spin Scale       =       0.3333333333333333 [-]
	 SCS Opposite-Spin Scale   =       1.2000000000000000 [-]
	 SCS Same-Spin Energy      =      -0.0998197041021060 [Eh]
	 SCS Opposite-Spin Energy  =      -1.1478849745814870 [Eh]
	 SCS Correlation Energy    =      -1.2477046786835930 [Eh]
	 SCS Total Energy          =    -629.3275236349294346 [Eh]
	-----------------------------------------------------------

  Dipole Moment: [D]
     X:     5.3854      Y:    -0.0138      Z:    -1.5384     Total:     5.6009

*** Psi4 exiting successfully. Buy a developer a beer!
