                               Psi4 1.4a3.dev225

  ==> Input File <==

--------------------------------------------------------------------------
#psi4
#
memory 32 gb

molecule  {
-1 1
  S       -1.9699520     0.0002960    -0.4301720
  O       -0.2287560    -0.0011680     1.6042380
  C        0.8192720     0.0003510    -0.5193240
  C        1.6340270     1.2570650    -0.2212640
  C        1.6341410    -1.2566790    -0.2229280
  C       -0.4461550    -0.0002880     0.3723060
  H        0.5101060     0.0010330    -1.5685180
  H        1.8714700     1.2810570     0.8460150
  H        2.5686810     1.2824310    -0.7973980
  H        1.0553630     2.1549570    -0.4631840
  H        1.8340239    -1.3483981     0.8483674
  H        2.5688000    -1.2811950    -0.7990910
  H        1.0555640    -2.1543050    -0.4660390
units angstrom
no_reorient  #important for SAPT in psi4, default
symmetry c1  #important for SAPT in psi4, default
}

set PROPERTIES_ORIGIN ["COM"]
properties('MP2/aug-cc-pvtz', properties = ['dipole'])
--------------------------------------------------------------------------

    Molecular point group: c1
  Charge       = -1
  Multiplicity = 1
  Basis Set: AUG-CC-PVTZ
    Blend: AUG-CC-PVTZ
  Basis Set: (AUG-CC-PVTZ AUX)
    Blend: AUG-CC-PVTZ-JKFIT

    Orbital Energies [Eh]
    ---------------------

    Doubly Occupied:

       1A    -91.704130     2A    -20.344107     3A    -11.158937
       4A    -11.082733     5A    -11.082240     6A    -11.081855
       7A     -8.706566     8A     -6.388093     9A     -6.386637
      10A     -6.386146    11A     -1.172191    12A     -0.929041
      13A     -0.796825    14A     -0.777284    15A     -0.663977
      16A     -0.539291    17A     -0.473726    18A     -0.462724
      19A     -0.432197    20A     -0.405838    21A     -0.381460
      22A     -0.366581    23A     -0.355273    24A     -0.328634
      25A     -0.312862    26A     -0.205438    27A     -0.142304
      28A     -0.131670

  @DF-RHF Final Energy:  -628.08029375983847

   => Energetics <=

    Nuclear Repulsion Energy =            283.5718924699066292
    One-Electron Energy =               -1436.9068484516947137
    Two-Electron Energy =                 525.2546622219495021
    Total Energy =                       -628.0802937598384688
  Basis Set: (AUG-CC-PVTZ AUX)
    Blend: AUG-CC-PVTZ-RI
    Molecular point group: c1

    Geometry (in Angstrom), charge = -1, multiplicity = 1:

       Center              X                  Y                   Z               Mass
    ------------   -----------------  -----------------  -----------------  -----------------
         S           -1.859361344212     0.000963378580    -0.453400233819    31.972071174400
         O           -0.118165344212    -0.000500621420     1.581009766181    15.994914619570
         C            0.929862655788     0.001018378580    -0.542552233819    12.000000000000
         C            1.744617655788     1.257732378580    -0.244492233819    12.000000000000
         C            1.744731655788    -1.256011621420    -0.246156233819    12.000000000000
         C           -0.335564344212     0.000379378580     0.349077766181    12.000000000000
         H            0.620696655788     0.001700378580    -1.591746233819     1.007825032230
         H            1.982060655788     1.281724378580     0.822786766181     1.007825032230
         H            2.679271655788     1.283098378580    -0.820626233819     1.007825032230
         H            1.165953655788     2.155624378580    -0.486412233819     1.007825032230
         H            1.944614555788    -1.347730721420     0.825139166181     1.007825032230
         H            2.679390655788    -1.280527621420    -0.822319233819     1.007825032230
         H            1.166154655788    -2.153637621420    -0.489267233819     1.007825032230

  Basis Set: AUG-CC-PVTZ
    Blend: AUG-CC-PVTZ
  Basis Set: (AUG-CC-PVTZ AUX)
    Blend: AUG-CC-PVTZ-JKFIT
	 Reference Energy          =    -628.0802937598384688 [Eh]
	 Singles Energy            =      -0.0000000000000000 [Eh]
	 Same-Spin Energy          =      -0.2994177850634607 [Eh]
	 Opposite-Spin Energy      =      -0.9568150932542262 [Eh]
	 Correlation Energy        =      -1.2562328783176868 [Eh]
	 Total Energy              =    -629.3365266381561014 [Eh]

	 ================> DF-SCS-MP2 Energies <==================
	-----------------------------------------------------------
	 SCS Same-Spin Scale       =       0.3333333333333333 [-]
	 SCS Opposite-Spin Scale   =       1.2000000000000000 [-]
	 SCS Same-Spin Energy      =      -0.0998059283544869 [Eh]
	 SCS Opposite-Spin Energy  =      -1.1481781119050714 [Eh]
	 SCS Correlation Energy    =      -1.2479840402595583 [Eh]
	 SCS Total Energy          =    -629.3282778000980215 [Eh]
	-----------------------------------------------------------

  Dipole Moment: [D]
     X:     5.3165      Y:    -0.0186      Z:    -1.5082     Total:     5.5263

*** Psi4 exiting successfully. Buy a developer a beer!
