                               Psi4 1.4a3.dev225

  ==> Input File <==

--------------------------------------------------------------------------
#psi4
#
memory 32 gb

molecule  {
-1 1
  S       -1.9699520     0.0002960    -0.4301720
  O       -0.2287560    -0.0011680     1.6042380
  C        0.8192720     0.0003510    -0.5193240
  C        1.6340270     1.2570650    -0.2212640
  C        1.6341410    -1.2566790    -0.2229280
  C       -0.4461550    -0.0002880     0.3723060
  H        0.5101060     0.0010330    -1.5685180
  H        1.8714700     1.2810570     0.8460150
  H        2.5686810     1.2824310    -0.7973980
  H        1.1081966     2.0729770    -0.4410960
  H        1.8715790    -1.2820640     0.8443200
  H        2.5688000    -1.2811950    -0.7990910
  H        1.0555640    -2.1543050    -0.4660390
units angstrom
no_reorient  #important for SAPT in psi4, default
symmetry c1  #important for SAPT in psi4, default
}

set PROPERTIES_ORIGIN ["COM"]
properties('MP2/aug-cc-pvtz', properties = ['dipole'])
--------------------------------------------------------------------------

    Molecular point group: c1
  Charge       = -1
  Multiplicity = 1
  Basis Set: AUG-CC-PVTZ
    Blend: AUG-CC-PVTZ
  Basis Set: (AUG-CC-PVTZ AUX)
    Blend: AUG-CC-PVTZ-JKFIT

    Orbital Energies [Eh]
    ---------------------

    Doubly Occupied:

       1A    -91.704073     2A    -20.343932     3A    -11.158599
       4A    -11.081562     5A    -11.080804     6A    -11.069505
       7A     -8.706507     8A     -6.388034     9A     -6.386580
      10A     -6.386088    11A     -1.171996    12A     -0.930990
      13A     -0.804033    14A     -0.777624    15A     -0.665628
      16A     -0.538406    17A     -0.484146    18A     -0.463957
      19A     -0.433490    20A     -0.406091    21A     -0.382780
      22A     -0.366155    23A     -0.359527    24A     -0.328238
      25A     -0.313130    26A     -0.205166    27A     -0.142248
      28A     -0.131559

  @DF-RHF Final Energy:  -628.07474234066228

   => Energetics <=

    Nuclear Repulsion Energy =            284.0639472784065447
    One-Electron Energy =               -1437.8556836016978195
    Two-Electron Energy =                 525.7169939826291056
    Total Energy =                       -628.0747423406622829
  Basis Set: (AUG-CC-PVTZ AUX)
    Blend: AUG-CC-PVTZ-RI
    Molecular point group: c1

    Geometry (in Angstrom), charge = -1, multiplicity = 1:

       Center              X                  Y                   Z               Mass
    ------------   -----------------  -----------------  -----------------  -----------------
         S           -1.860245584528     0.001116436822    -0.453576718555    31.972071174400
         O           -0.119049584528    -0.000347563178     1.580833281445    15.994914619570
         C            0.928978415472     0.001171436822    -0.542728718555    12.000000000000
         C            1.743733415472     1.257885436822    -0.244668718555    12.000000000000
         C            1.743847415472    -1.255858563178    -0.246332718555    12.000000000000
         C           -0.336448584528     0.000532436822     0.348901281445    12.000000000000
         H            0.619812415472     0.001853436822    -1.591922718555     1.007825032230
         H            1.981176415472     1.281877436822     0.822610281445     1.007825032230
         H            2.678387415472     1.283251436822    -0.820802718555     1.007825032230
         H            1.217903015472     2.073797436822    -0.464500718555     1.007825032230
         H            1.981285415472    -1.281243563178     0.820915281445     1.007825032230
         H            2.678506415472    -1.280374563178    -0.822495718555     1.007825032230
         H            1.165270415472    -2.153484563178    -0.489443718555     1.007825032230

  Basis Set: AUG-CC-PVTZ
    Blend: AUG-CC-PVTZ
  Basis Set: (AUG-CC-PVTZ AUX)
    Blend: AUG-CC-PVTZ-JKFIT
	 Reference Energy          =    -628.0747423406622829 [Eh]
	 Singles Energy            =      -0.0000000000000000 [Eh]
	 Same-Spin Energy          =      -0.2994636738236859 [Eh]
	 Opposite-Spin Energy      =      -0.9563662014197583 [Eh]
	 Correlation Energy        =      -1.2558298752434442 [Eh]
	 Total Energy              =    -629.3305722159057041 [Eh]

	 ================> DF-SCS-MP2 Energies <==================
	-----------------------------------------------------------
	 SCS Same-Spin Scale       =       0.3333333333333333 [-]
	 SCS Opposite-Spin Scale   =       1.2000000000000000 [-]
	 SCS Same-Spin Energy      =      -0.0998212246078953 [Eh]
	 SCS Opposite-Spin Energy  =      -1.1476394417037099 [Eh]
	 SCS Correlation Energy    =      -1.2474606663116052 [Eh]
	 SCS Total Energy          =    -629.3222030069738366 [Eh]
	-----------------------------------------------------------

  Dipole Moment: [D]
     X:     5.3206      Y:     0.0720      Z:    -1.5284     Total:     5.5362

*** Psi4 exiting successfully. Buy a developer a beer!
