                               Psi4 1.4a3.dev225

  ==> Input File <==

--------------------------------------------------------------------------
#psi4
#
memory 32 gb

molecule  {
-1 1
  S       -1.9699520     0.0002960    -0.4301720
  O       -0.2287560    -0.0011680     1.6042380
  C        0.8192720     0.0003510    -0.5193240
  C        1.6340270     1.2570650    -0.2212640
  C        1.6341410    -1.2566790    -0.2229280
  C       -0.4461550    -0.0002880     0.3723060
  H        0.5101060     0.0010330    -1.5685180
  H        1.8714700     1.2810570     0.8460150
  H        2.5686810     1.2824310    -0.7973980
  H        1.0553630     2.1549570    -0.4631840
  H        1.8715790    -1.2820640     0.8443200
  H        2.5688000    -1.2811950    -0.7990910
  H        1.0555640    -2.1543050    -0.4660390
units angstrom
no_reorient  #important for SAPT in psi4, default
symmetry c1  #important for SAPT in psi4, default
}

set PROPERTIES_ORIGIN ["COM"]
properties('MP2/aug-cc-pvtz', properties = ['dipole'])
--------------------------------------------------------------------------

    Molecular point group: c1
  Charge       = -1
  Multiplicity = 1
  Basis Set: AUG-CC-PVTZ
    Blend: AUG-CC-PVTZ
  Basis Set: (AUG-CC-PVTZ AUX)
    Blend: AUG-CC-PVTZ-JKFIT

    Orbital Energies [Eh]
    ---------------------

    Doubly Occupied:

       1A    -91.704109     2A    -20.344136     3A    -11.158863
       4A    -11.082637     5A    -11.082372     6A    -11.081673
       7A     -8.706543     8A     -6.388070     9A     -6.386614
      10A     -6.386124    11A     -1.172195    12A     -0.929374
      13A     -0.796441    14A     -0.777336    15A     -0.663642
      16A     -0.538630    17A     -0.475868    18A     -0.461634
      19A     -0.432769    20A     -0.405896    21A     -0.381681
      22A     -0.366450    23A     -0.354900    24A     -0.328574
      25A     -0.313247    26A     -0.205414    27A     -0.142288
      28A     -0.131630

  @DF-RHF Final Energy:  -628.08076517465804

   => Energetics <=

    Nuclear Repulsion Energy =            283.6163222979657803
    One-Electron Energy =               -1436.9959604949897312
    Two-Electron Energy =                 525.2988730223659104
    Total Energy =                       -628.0807651746580405
  Basis Set: (AUG-CC-PVTZ AUX)
    Blend: AUG-CC-PVTZ-RI
    Molecular point group: c1

    Geometry (in Angstrom), charge = -1, multiplicity = 1:

       Center              X                  Y                   Z               Mass
    ------------   -----------------  -----------------  -----------------  -----------------
         S           -1.859728732320     0.000314455810    -0.453360639553    31.972071174400
         O           -0.118532732320    -0.001149544190     1.581049360447    15.994914619570
         C            0.929495267680     0.000369455810    -0.542512639553    12.000000000000
         C            1.744250267680     1.257083455810    -0.244452639553    12.000000000000
         C            1.744364267680    -1.256660544190    -0.246116639553    12.000000000000
         C           -0.335931732320    -0.000269544190     0.349117360447    12.000000000000
         H            0.620329267680     0.001051455810    -1.591706639553     1.007825032230
         H            1.981693267680     1.281075455810     0.822826360447     1.007825032230
         H            2.678904267680     1.282449455810    -0.820586639553     1.007825032230
         H            1.165586267680     2.154975455810    -0.486372639553     1.007825032230
         H            1.981802267680    -1.282045544190     0.821131360447     1.007825032230
         H            2.679023267680    -1.281176544190    -0.822279639553     1.007825032230
         H            1.165787267680    -2.154286544190    -0.489227639553     1.007825032230

  Basis Set: AUG-CC-PVTZ
    Blend: AUG-CC-PVTZ
  Basis Set: (AUG-CC-PVTZ AUX)
    Blend: AUG-CC-PVTZ-JKFIT
	 Reference Energy          =    -628.0807651746580405 [Eh]
	 Singles Energy            =      -0.0000000000000000 [Eh]
	 Same-Spin Energy          =      -0.2994380401840015 [Eh]
	 Opposite-Spin Energy      =      -0.9568411864461046 [Eh]
	 Correlation Energy        =      -1.2562792266301062 [Eh]
	 Total Energy              =    -629.3370444012881535 [Eh]

	 ================> DF-SCS-MP2 Energies <==================
	-----------------------------------------------------------
	 SCS Same-Spin Scale       =       0.3333333333333333 [-]
	 SCS Opposite-Spin Scale   =       1.2000000000000000 [-]
	 SCS Same-Spin Energy      =      -0.0998126800613338 [Eh]
	 SCS Opposite-Spin Energy  =      -1.1482094237353255 [Eh]
	 SCS Correlation Energy    =      -1.2480221037966595 [Eh]
	 SCS Total Energy          =    -629.3287872784546835 [Eh]
	-----------------------------------------------------------

  Dipole Moment: [D]
     X:     5.3265      Y:     0.0011      Z:    -1.5173     Total:     5.5384

*** Psi4 exiting successfully. Buy a developer a beer!
