                               Psi4 1.4a3.dev225

  ==> Input File <==

--------------------------------------------------------------------------
#psi4
#
memory 32 gb

molecule  {
-1 1
  S       -1.9699520     0.0002960    -0.4301720
  O       -0.2287560    -0.0011680     1.6042380
  C        0.8192720     0.0003510    -0.5193240
  C        1.6340270     1.2570650    -0.2212640
  C        1.6521744    -1.2489608    -0.2409716
  C       -0.4461550    -0.0002880     0.3723060
  H        0.5101060     0.0010330    -1.5685180
  H        1.8714700     1.2810570     0.8460150
  H        2.5686810     1.2824310    -0.7973980
  H        1.0553630     2.1549570    -0.4631840
  H        1.8715790    -1.2820640     0.8443200
  H        2.5688000    -1.2811950    -0.7990910
  H        1.0555640    -2.1543050    -0.4660390
units angstrom
no_reorient  #important for SAPT in psi4, default
symmetry c1  #important for SAPT in psi4, default
}

set PROPERTIES_ORIGIN ["COM"]
properties('MP2/aug-cc-pvtz', properties = ['dipole'])
--------------------------------------------------------------------------

    Molecular point group: c1
  Charge       = -1
  Multiplicity = 1
  Basis Set: AUG-CC-PVTZ
    Blend: AUG-CC-PVTZ
  Basis Set: (AUG-CC-PVTZ AUX)
    Blend: AUG-CC-PVTZ-JKFIT

    Orbital Energies [Eh]
    ---------------------

    Doubly Occupied:

       1A    -91.704264     2A    -20.344365     3A    -11.159217
       4A    -11.082528     5A    -11.082197     6A    -11.081594
       7A     -8.706693     8A     -6.388220     9A     -6.386763
      10A     -6.386272    11A     -1.172267    12A     -0.929430
      13A     -0.795976    14A     -0.777633    15A     -0.664018
      16A     -0.538510    17A     -0.474643    18A     -0.462167
      19A     -0.435732    20A     -0.403373    21A     -0.384102
      22A     -0.366536    23A     -0.353219    24A     -0.326664
      25A     -0.313017    26A     -0.205950    27A     -0.142346
      28A     -0.131833

  @DF-RHF Final Energy:  -628.07987036729173

   => Energetics <=

    Nuclear Repulsion Energy =            283.4971157948655787
    One-Electron Energy =               -1436.7549124563620353
    Two-Electron Energy =                 525.1779262942047808
    Total Energy =                       -628.0798703672917327
  Basis Set: (AUG-CC-PVTZ AUX)
    Blend: AUG-CC-PVTZ-RI
    Molecular point group: c1

    Geometry (in Angstrom), charge = -1, multiplicity = 1:

       Center              X                  Y                   Z               Mass
    ------------   -----------------  -----------------  -----------------  -----------------
         S           -1.861829267177    -0.000584562019    -0.451258916598    31.972071174400
         O           -0.120633267177    -0.002048562019     1.583151083402    15.994914619570
         C            0.927394732823    -0.000529562019    -0.540410916598    12.000000000000
         C            1.742149732823     1.256184437981    -0.242350916598    12.000000000000
         C            1.760297132823    -1.249841362019    -0.262058516598    12.000000000000
         C           -0.338032267177    -0.001168562019     0.351219083402    12.000000000000
         H            0.618228732823     0.000152437981    -1.589604916598     1.007825032230
         H            1.979592732823     1.280176437981     0.824928083402     1.007825032230
         H            2.676803732823     1.281550437981    -0.818484916598     1.007825032230
         H            1.163485732823     2.154076437981    -0.484270916598     1.007825032230
         H            1.979701732823    -1.282944562019     0.823233083402     1.007825032230
         H            2.676922732823    -1.282075562019    -0.820177916598     1.007825032230
         H            1.163686732823    -2.155185562019    -0.487125916598     1.007825032230

  Basis Set: AUG-CC-PVTZ
    Blend: AUG-CC-PVTZ
  Basis Set: (AUG-CC-PVTZ AUX)
    Blend: AUG-CC-PVTZ-JKFIT
	 Reference Energy          =    -628.0798703672917327 [Eh]
	 Singles Energy            =      -0.0000000000000000 [Eh]
	 Same-Spin Energy          =      -0.2994752611574242 [Eh]
	 Opposite-Spin Energy      =      -0.9569302784090311 [Eh]
	 Correlation Energy        =      -1.2564055395664553 [Eh]
	 Total Energy              =    -629.3362759068581909 [Eh]

	 ================> DF-SCS-MP2 Energies <==================
	-----------------------------------------------------------
	 SCS Same-Spin Scale       =       0.3333333333333333 [-]
	 SCS Opposite-Spin Scale   =       1.2000000000000000 [-]
	 SCS Same-Spin Energy      =      -0.0998250870524747 [Eh]
	 SCS Opposite-Spin Energy  =      -1.1483163340908373 [Eh]
	 SCS Correlation Energy    =      -1.2481414211433119 [Eh]
	 SCS Total Energy          =    -629.3280117884349920 [Eh]
	-----------------------------------------------------------

  Dipole Moment: [D]
     X:     5.3390      Y:     0.0064      Z:    -1.5390     Total:     5.5563

*** Psi4 exiting successfully. Buy a developer a beer!
