                               Psi4 1.4a3.dev225

  ==> Input File <==

--------------------------------------------------------------------------
#psi4
#
memory 32 gb

molecule  {
-1 1
  S       -1.9699520     0.0002960    -0.4301720
  O       -0.2287560    -0.0011680     1.6042380
  C        0.8192720     0.0003510    -0.5193240
  C        1.6340270     1.2570650    -0.2212640
  C        1.7047307    -1.2235330    -0.2955892
  C       -0.4461550    -0.0002880     0.3723060
  H        0.5101060     0.0010330    -1.5685180
  H        1.8714700     1.2810570     0.8460150
  H        2.5686810     1.2824310    -0.7973980
  H        1.0553630     2.1549570    -0.4631840
  H        1.8715790    -1.2820640     0.8443200
  H        2.5688000    -1.2811950    -0.7990910
  H        1.0555640    -2.1543050    -0.4660390
units angstrom
no_reorient  #important for SAPT in psi4, default
symmetry c1  #important for SAPT in psi4, default
}

set PROPERTIES_ORIGIN ["COM"]
properties('MP2/aug-cc-pvtz', properties = ['dipole'])
--------------------------------------------------------------------------

    Molecular point group: c1
  Charge       = -1
  Multiplicity = 1
  Basis Set: AUG-CC-PVTZ
    Blend: AUG-CC-PVTZ
  Basis Set: (AUG-CC-PVTZ AUX)
    Blend: AUG-CC-PVTZ-JKFIT

    Orbital Energies [Eh]
    ---------------------

    Doubly Occupied:

       1A    -91.704970     2A    -20.345326     3A    -11.160644
       4A    -11.083592     5A    -11.082526     6A    -11.081455
       7A     -8.707383     8A     -6.388909     9A     -6.387448
      10A     -6.386955    11A     -1.172818    12A     -0.930179
      13A     -0.795756    14A     -0.778879    15A     -0.666669
      16A     -0.538159    17A     -0.477632    18A     -0.461490
      19A     -0.446230    20A     -0.397724    21A     -0.387682
      22A     -0.365539    23A     -0.347655    24A     -0.319508
      25A     -0.311175    26A     -0.207736    27A     -0.142746
      28A     -0.132656

  @DF-RHF Final Energy:  -628.06701072094938

   => Energetics <=

    Nuclear Repulsion Energy =            283.1708998603987766
    One-Electron Energy =               -1436.0569408994435889
    Two-Electron Energy =                 524.8190303180954288
    Total Energy =                       -628.0670107209493835
  Basis Set: (AUG-CC-PVTZ AUX)
    Blend: AUG-CC-PVTZ-RI
    Molecular point group: c1

    Geometry (in Angstrom), charge = -1, multiplicity = 1:

       Center              X                  Y                   Z               Mass
    ------------   -----------------  -----------------  -----------------  -----------------
         S           -1.867951037896    -0.003546398402    -0.444897045149    31.972071174400
         O           -0.126755037896    -0.005010398402     1.589512954851    15.994914619570
         C            0.921272962104    -0.003491398402    -0.534049045149    12.000000000000
         C            1.736027962104     1.253222601598    -0.235989045149    12.000000000000
         C            1.806731662104    -1.227375398402    -0.310314245149    12.000000000000
         C           -0.344154037896    -0.004130398402     0.357580954851    12.000000000000
         H            0.612106962104    -0.002809398402    -1.583243045149     1.007825032230
         H            1.973470962104     1.277214601598     0.831289954851     1.007825032230
         H            2.670681962104     1.278588601598    -0.812123045149     1.007825032230
         H            1.157363962104     2.151114601598    -0.477909045149     1.007825032230
         H            1.973579962104    -1.285906398402     0.829594954851     1.007825032230
         H            2.670800962104    -1.285037398402    -0.813816045149     1.007825032230
         H            1.157564962104    -2.158147398402    -0.480764045149     1.007825032230

  Basis Set: AUG-CC-PVTZ
    Blend: AUG-CC-PVTZ
  Basis Set: (AUG-CC-PVTZ AUX)
    Blend: AUG-CC-PVTZ-JKFIT
	 Reference Energy          =    -628.0670107209493835 [Eh]
	 Singles Energy            =      -0.0000000000000000 [Eh]
	 Same-Spin Energy          =      -0.2997433991962104 [Eh]
	 Opposite-Spin Energy      =      -0.9576591736950357 [Eh]
	 Correlation Energy        =      -1.2574025728912461 [Eh]
	 Total Energy              =    -629.3244132938406210 [Eh]

	 ================> DF-SCS-MP2 Energies <==================
	-----------------------------------------------------------
	 SCS Same-Spin Scale       =       0.3333333333333333 [-]
	 SCS Opposite-Spin Scale   =       1.2000000000000000 [-]
	 SCS Same-Spin Energy      =      -0.0999144663987368 [Eh]
	 SCS Opposite-Spin Energy  =      -1.1491910084340429 [Eh]
	 SCS Correlation Energy    =      -1.2491054748327797 [Eh]
	 SCS Total Energy          =    -629.3161161957821150 [Eh]
	-----------------------------------------------------------

  Dipole Moment: [D]
     X:     5.3458      Y:     0.0385      Z:    -1.5971     Total:     5.5794

*** Psi4 exiting successfully. Buy a developer a beer!
