                               Psi4 1.4a3.dev225

  ==> Input File <==

--------------------------------------------------------------------------
#psi4
#
memory 32 gb

molecule  {
-1 1
  S       -1.9699520     0.0002960    -0.4301720
  O       -0.2287560    -0.0011680     1.6042380
  C        0.8192720     0.0003510    -0.5193240
  C        1.6340270     1.2570650    -0.2212640
  C        1.6341410    -1.2566790    -0.2229280
  C       -0.4461550    -0.0002880     0.3723060
  H        0.5101060     0.0010330    -1.5685180
  H        1.8714700     1.2810570     0.8460150
  H        2.5686810     1.2824310    -0.7973980
  H        1.0553630     2.1549570    -0.4631840
  H        1.8529347    -1.3152667     0.8469955
  H        2.5688000    -1.2811950    -0.7990910
  H        1.0555640    -2.1543050    -0.4660390
units angstrom
no_reorient  #important for SAPT in psi4, default
symmetry c1  #important for SAPT in psi4, default
}

set PROPERTIES_ORIGIN ["COM"]
properties('MP2/aug-cc-pvtz', properties = ['dipole'])
--------------------------------------------------------------------------

    Molecular point group: c1
  Charge       = -1
  Multiplicity = 1
  Basis Set: AUG-CC-PVTZ
    Blend: AUG-CC-PVTZ
  Basis Set: (AUG-CC-PVTZ AUX)
    Blend: AUG-CC-PVTZ-JKFIT

    Orbital Energies [Eh]
    ---------------------

    Doubly Occupied:

       1A    -91.704119     2A    -20.344122     3A    -11.158900
       4A    -11.082661     5A    -11.082302     6A    -11.081780
       7A     -8.706554     8A     -6.388081     9A     -6.386625
      10A     -6.386135    11A     -1.172194    12A     -0.929195
      13A     -0.796617    14A     -0.777306    15A     -0.663800
      16A     -0.538954    17A     -0.474744    18A     -0.462135
      19A     -0.432451    20A     -0.405944    21A     -0.381575
      22A     -0.366485    23A     -0.355134    24A     -0.328671
      25A     -0.313078    26A     -0.205427    27A     -0.142296
      28A     -0.131650

  @DF-RHF Final Energy:  -628.08067314215623

   => Energetics <=

    Nuclear Repulsion Energy =            283.5936365466549205
    One-Electron Energy =               -1436.9507554465865269
    Two-Electron Energy =                 525.2764457577754911
    Total Energy =                       -628.0806731421562290
  Basis Set: (AUG-CC-PVTZ AUX)
    Blend: AUG-CC-PVTZ-RI
    Molecular point group: c1

    Geometry (in Angstrom), charge = -1, multiplicity = 1:

       Center              X                  Y                   Z               Mass
    ------------   -----------------  -----------------  -----------------  -----------------
         S           -1.859546341803     0.000639265946    -0.453386813012    31.972071174400
         O           -0.118350341803    -0.000824734054     1.581023186988    15.994914619570
         C            0.929677658197     0.000694265946    -0.542538813012    12.000000000000
         C            1.744432658197     1.257408265946    -0.244478813012    12.000000000000
         C            1.744546658197    -1.256335734054    -0.246142813012    12.000000000000
         C           -0.335749341803     0.000055265946     0.349091186988    12.000000000000
         H            0.620511658197     0.001376265946    -1.591732813012     1.007825032230
         H            1.981875658197     1.281400265946     0.822800186988     1.007825032230
         H            2.679086658197     1.282774265946    -0.820612813012     1.007825032230
         H            1.165768658197     2.155300265946    -0.486398813012     1.007825032230
         H            1.963340358197    -1.314923434054     0.823780686988     1.007825032230
         H            2.679205658197    -1.280851734054    -0.822305813012     1.007825032230
         H            1.165969658197    -2.153961734054    -0.489253813012     1.007825032230

  Basis Set: AUG-CC-PVTZ
    Blend: AUG-CC-PVTZ
  Basis Set: (AUG-CC-PVTZ AUX)
    Blend: AUG-CC-PVTZ-JKFIT
	 Reference Energy          =    -628.0806731421562290 [Eh]
	 Singles Energy            =      -0.0000000000000000 [Eh]
	 Same-Spin Energy          =      -0.2994210776435567 [Eh]
	 Opposite-Spin Energy      =      -0.9568177515443399 [Eh]
	 Correlation Energy        =      -1.2562388291878968 [Eh]
	 Total Energy              =    -629.3369119713440796 [Eh]

	 ================> DF-SCS-MP2 Energies <==================
	-----------------------------------------------------------
	 SCS Same-Spin Scale       =       0.3333333333333333 [-]
	 SCS Opposite-Spin Scale   =       1.2000000000000000 [-]
	 SCS Same-Spin Energy      =      -0.0998070258811856 [Eh]
	 SCS Opposite-Spin Energy  =      -1.1481813018532079 [Eh]
	 SCS Correlation Energy    =      -1.2479883277343935 [Eh]
	 SCS Total Energy          =    -629.3286614698906760 [Eh]
	-----------------------------------------------------------

  Dipole Moment: [D]
     X:     5.3217      Y:    -0.0086      Z:    -1.5124     Total:     5.5325

*** Psi4 exiting successfully. Buy a developer a beer!
