                               Psi4 1.4a3.dev225

  ==> Input File <==

--------------------------------------------------------------------------
#psi4
#
memory 32 gb

molecule  {
-1 1
  S       -1.9699520     0.0002960    -0.4301720
  O       -0.2287560    -0.0011680     1.6042380
  C        0.8192720     0.0003510    -0.5193240
  C        1.6340270     1.2570650    -0.2212640
  C        1.6341410    -1.2566790    -0.2229280
  C       -0.4461550    -0.0002880     0.3723060
  H        0.5242387     0.0010018    -1.5205569
  H        1.8714700     1.2810570     0.8460150
  H        2.5686810     1.2824310    -0.7973980
  H        1.0553630     2.1549570    -0.4631840
  H        1.8715790    -1.2820640     0.8443200
  H        2.5688000    -1.2811950    -0.7990910
  H        1.0555640    -2.1543050    -0.4660390
units angstrom
no_reorient  #important for SAPT in psi4, default
symmetry c1  #important for SAPT in psi4, default
}

set PROPERTIES_ORIGIN ["COM"]
properties('MP2/aug-cc-pvtz', properties = ['dipole'])
--------------------------------------------------------------------------

    Molecular point group: c1
  Charge       = -1
  Multiplicity = 1
  Basis Set: AUG-CC-PVTZ
    Blend: AUG-CC-PVTZ
  Basis Set: (AUG-CC-PVTZ AUX)
    Blend: AUG-CC-PVTZ-JKFIT

    Orbital Energies [Eh]
    ---------------------

    Doubly Occupied:

       1A    -91.704254     2A    -20.343699     3A    -11.158380
       4A    -11.081975     5A    -11.081954     6A    -11.075643
       7A     -8.706681     8A     -6.388210     9A     -6.386752
      10A     -6.386265    11A     -1.171773    12A     -0.931364
      13A     -0.796114    14A     -0.777534    15A     -0.667004
      16A     -0.543465    17A     -0.476620    18A     -0.461394
      19A     -0.432438    20A     -0.405655    21A     -0.381412
      22A     -0.366830    23A     -0.354517    24A     -0.333741
      25A     -0.312769    26A     -0.205100    27A     -0.142338
      28A     -0.131935

  @DF-RHF Final Energy:  -628.07997359078365

   => Energetics <=

    Nuclear Repulsion Energy =            283.8706269780844309
    One-Electron Energy =               -1437.4895712728821309
    Two-Electron Energy =                 525.5389707040141047
    Total Energy =                       -628.0799735907836521
  Basis Set: (AUG-CC-PVTZ AUX)
    Blend: AUG-CC-PVTZ-RI
    Molecular point group: c1

    Geometry (in Angstrom), charge = -1, multiplicity = 1:

       Center              X                  Y                   Z               Mass
    ------------   -----------------  -----------------  -----------------  -----------------
         S           -1.859866987468     0.000314761029    -0.453829825836    31.972071174400
         O           -0.118670987468    -0.001149238971     1.580580174164    15.994914619570
         C            0.929357012532     0.000369761029    -0.542981825836    12.000000000000
         C            1.744112012532     1.257083761029    -0.244921825836    12.000000000000
         C            1.744226012532    -1.256660238971    -0.246585825836    12.000000000000
         C           -0.336069987468    -0.000269238971     0.348648174164    12.000000000000
         H            0.634323712532     0.001020561029    -1.544214725836     1.007825032230
         H            1.981555012532     1.281075761029     0.822357174164     1.007825032230
         H            2.678766012532     1.282449761029    -0.821055825836     1.007825032230
         H            1.165448012532     2.154975761029    -0.486841825836     1.007825032230
         H            1.981664012532    -1.282045238971     0.820662174164     1.007825032230
         H            2.678885012532    -1.281176238971    -0.822748825836     1.007825032230
         H            1.165649012532    -2.154286238971    -0.489696825836     1.007825032230

  Basis Set: AUG-CC-PVTZ
    Blend: AUG-CC-PVTZ
  Basis Set: (AUG-CC-PVTZ AUX)
    Blend: AUG-CC-PVTZ-JKFIT
	 Reference Energy          =    -628.0799735907836521 [Eh]
	 Singles Energy            =      -0.0000000000000000 [Eh]
	 Same-Spin Energy          =      -0.2993637412766679 [Eh]
	 Opposite-Spin Energy      =      -0.9564690793382262 [Eh]
	 Correlation Energy        =      -1.2558328206148941 [Eh]
	 Total Energy              =    -629.3358064113984938 [Eh]

	 ================> DF-SCS-MP2 Energies <==================
	-----------------------------------------------------------
	 SCS Same-Spin Scale       =       0.3333333333333333 [-]
	 SCS Opposite-Spin Scale   =       1.2000000000000000 [-]
	 SCS Same-Spin Energy      =      -0.0997879137588893 [Eh]
	 SCS Opposite-Spin Energy  =      -1.1477628952058714 [Eh]
	 SCS Correlation Energy    =      -1.2475508089647607 [Eh]
	 SCS Total Energy          =    -629.3275243997484267 [Eh]
	-----------------------------------------------------------

  Dipole Moment: [D]
     X:     5.3244      Y:     0.0012      Z:    -1.5381     Total:     5.5421

*** Psi4 exiting successfully. Buy a developer a beer!
