                               Psi4 1.4a3.dev225

  ==> Input File <==

--------------------------------------------------------------------------
#psi4
#
memory 32 gb

molecule  {
-1 1
  S       -1.9699520     0.0002960    -0.4301720
  O       -0.2287560    -0.0011680     1.6042380
  C        0.8192720     0.0003510    -0.5193240
  C        1.6233563     1.2406060    -0.2251676
  C        1.6341410    -1.2566790    -0.2229280
  C       -0.4461550    -0.0002880     0.3723060
  H        0.5101060     0.0010330    -1.5685180
  H        1.8714700     1.2810570     0.8460150
  H        2.5686810     1.2824310    -0.7973980
  H        1.0553630     2.1549570    -0.4631840
  H        1.8715790    -1.2820640     0.8443200
  H        2.5688000    -1.2811950    -0.7990910
  H        1.0555640    -2.1543050    -0.4660390
units angstrom
no_reorient  #important for SAPT in psi4, default
symmetry c1  #important for SAPT in psi4, default
}

set PROPERTIES_ORIGIN ["COM"]
properties('MP2/aug-cc-pvtz', properties = ['dipole'])
--------------------------------------------------------------------------

    Molecular point group: c1
  Charge       = -1
  Multiplicity = 1
  Basis Set: AUG-CC-PVTZ
    Blend: AUG-CC-PVTZ
  Basis Set: (AUG-CC-PVTZ AUX)
    Blend: AUG-CC-PVTZ-JKFIT

    Orbital Energies [Eh]
    ---------------------

    Doubly Occupied:

       1A    -91.704180     2A    -20.344274     3A    -11.159010
       4A    -11.083371     5A    -11.082457     6A    -11.080836
       7A     -8.706611     8A     -6.388139     9A     -6.386682
      10A     -6.386192    11A     -1.172407    12A     -0.932165
      13A     -0.796142    14A     -0.777307    15A     -0.663362
      16A     -0.539522    17A     -0.476657    18A     -0.461676
      19A     -0.433109    20A     -0.404133    21A     -0.381616
      22A     -0.365750    23A     -0.354582    24A     -0.328501
      25A     -0.314367    26A     -0.205512    27A     -0.142358
      28A     -0.131725

  @DF-RHF Final Energy:  -628.08013118364556

   => Energetics <=

    Nuclear Repulsion Energy =            283.9421788505674726
    One-Electron Energy =               -1437.6393361247753546
    Two-Electron Energy =                 525.6170260905623763
    Total Energy =                       -628.0801311836455625
  Basis Set: (AUG-CC-PVTZ AUX)
    Blend: AUG-CC-PVTZ-RI
    Molecular point group: c1

    Geometry (in Angstrom), charge = -1, multiplicity = 1:

       Center              X                  Y                   Z               Mass
    ------------   -----------------  -----------------  -----------------  -----------------
         S           -1.858485806566     0.002231604169    -0.452905947267    31.972071174400
         O           -0.117289806566     0.000767604169     1.581504052733    15.994914619570
         C            0.930738193434     0.002286604169    -0.542057947267    12.000000000000
         C            1.734822493434     1.242541604169    -0.247901547267    12.000000000000
         C            1.745607193434    -1.254743395831    -0.245661947267    12.000000000000
         C           -0.334688806566     0.001647604169     0.349572052733    12.000000000000
         H            0.621572193434     0.002968604169    -1.591251947267     1.007825032230
         H            1.982936193434     1.282992604169     0.823281052733     1.007825032230
         H            2.680147193434     1.284366604169    -0.820131947267     1.007825032230
         H            1.166829193434     2.156892604169    -0.485917947267     1.007825032230
         H            1.983045193434    -1.280128395831     0.821586052733     1.007825032230
         H            2.680266193434    -1.279259395831    -0.821824947267     1.007825032230
         H            1.167030193434    -2.152369395831    -0.488772947267     1.007825032230

  Basis Set: AUG-CC-PVTZ
    Blend: AUG-CC-PVTZ
  Basis Set: (AUG-CC-PVTZ AUX)
    Blend: AUG-CC-PVTZ-JKFIT
	 Reference Energy          =    -628.0801311836455625 [Eh]
	 Singles Energy            =      -0.0000000000000000 [Eh]
	 Same-Spin Energy          =      -0.2995939534118439 [Eh]
	 Opposite-Spin Energy      =      -0.9570070822758120 [Eh]
	 Correlation Energy        =      -1.2566010356876558 [Eh]
	 Total Energy              =    -629.3367322193332711 [Eh]

	 ================> DF-SCS-MP2 Energies <==================
	-----------------------------------------------------------
	 SCS Same-Spin Scale       =       0.3333333333333333 [-]
	 SCS Opposite-Spin Scale   =       1.2000000000000000 [-]
	 SCS Same-Spin Energy      =      -0.0998646511372813 [Eh]
	 SCS Opposite-Spin Energy  =      -1.1484084987309744 [Eh]
	 SCS Correlation Energy    =      -1.2482731498682558 [Eh]
	 SCS Total Energy          =    -629.3284043335138449 [Eh]
	-----------------------------------------------------------

  Dipole Moment: [D]
     X:     5.3139      Y:    -0.0065      Z:    -1.5135     Total:     5.5252

*** Psi4 exiting successfully. Buy a developer a beer!
