                               Psi4 1.4a3.dev225

  ==> Input File <==

--------------------------------------------------------------------------
#psi4
#
memory 32 gb

molecule  {
-1 1
  S       -1.9699520     0.0002960    -0.4301720
  O       -0.2287560    -0.0011680     1.6042380
  C        0.8192720     0.0003510    -0.5193240
  C        1.6368072     1.2489919    -0.1960164
  C        1.6341410    -1.2566790    -0.2229280
  C       -0.4461550    -0.0002880     0.3723060
  H        0.5101060     0.0010330    -1.5685180
  H        1.8714700     1.2810570     0.8460150
  H        2.5686810     1.2824310    -0.7973980
  H        1.0553630     2.1549570    -0.4631840
  H        1.8715790    -1.2820640     0.8443200
  H        2.5688000    -1.2811950    -0.7990910
  H        1.0555640    -2.1543050    -0.4660390
units angstrom
no_reorient  #important for SAPT in psi4, default
symmetry c1  #important for SAPT in psi4, default
}

set PROPERTIES_ORIGIN ["COM"]
properties('MP2/aug-cc-pvtz', properties = ['dipole'])
--------------------------------------------------------------------------

    Molecular point group: c1
  Charge       = -1
  Multiplicity = 1
  Basis Set: AUG-CC-PVTZ
    Blend: AUG-CC-PVTZ
  Basis Set: (AUG-CC-PVTZ AUX)
    Blend: AUG-CC-PVTZ-JKFIT

    Orbital Energies [Eh]
    ---------------------

    Doubly Occupied:

       1A    -91.704119     2A    -20.344086     3A    -11.158802
       4A    -11.082776     5A    -11.082356     6A    -11.081755
       7A     -8.706554     8A     -6.388081     9A     -6.386625
      10A     -6.386135    11A     -1.172275    12A     -0.929664
      13A     -0.796142    14A     -0.777457    15A     -0.663816
      16A     -0.539360    17A     -0.475895    18A     -0.460533
      19A     -0.430856    20A     -0.410522    21A     -0.380278
      22A     -0.367158    23A     -0.352151    24A     -0.331493
      25A     -0.312392    26A     -0.205260    27A     -0.142336
      28A     -0.131660

  @DF-RHF Final Energy:  -628.08003300114308

   => Energetics <=

    Nuclear Repulsion Energy =            283.7155609286130584
    One-Electron Energy =               -1437.1901180021727669
    Two-Electron Energy =                 525.3945240724166297
    Total Energy =                       -628.0800330011430788
  Basis Set: (AUG-CC-PVTZ AUX)
    Blend: AUG-CC-PVTZ-RI
    Molecular point group: c1

    Geometry (in Angstrom), charge = -1, multiplicity = 1:

       Center              X                  Y                   Z               Mass
    ------------   -----------------  -----------------  -----------------  -----------------
         S           -1.860052570698     0.001254812479    -0.456301486195    31.972071174400
         O           -0.118856570698    -0.000209187521     1.578108513805    15.994914619570
         C            0.929171429302     0.001309812479    -0.545453486195    12.000000000000
         C            1.746706629302     1.249950712479    -0.222145886195    12.000000000000
         C            1.744040429302    -1.255720187521    -0.249057486195    12.000000000000
         C           -0.336255570698     0.000670812479     0.346176513805    12.000000000000
         H            0.620005429302     0.001991812479    -1.594647486195     1.007825032230
         H            1.981369429302     1.282015812479     0.819885513805     1.007825032230
         H            2.678580429302     1.283389812479    -0.823527486195     1.007825032230
         H            1.165262429302     2.155915812479    -0.489313486195     1.007825032230
         H            1.981478429302    -1.281105187521     0.818190513805     1.007825032230
         H            2.678699429302    -1.280236187521    -0.825220486195     1.007825032230
         H            1.165463429302    -2.153346187521    -0.492168486195     1.007825032230

  Basis Set: AUG-CC-PVTZ
    Blend: AUG-CC-PVTZ
  Basis Set: (AUG-CC-PVTZ AUX)
    Blend: AUG-CC-PVTZ-JKFIT
	 Reference Energy          =    -628.0800330011430788 [Eh]
	 Singles Energy            =      -0.0000000000000000 [Eh]
	 Same-Spin Energy          =      -0.2994315764801345 [Eh]
	 Opposite-Spin Energy      =      -0.9568484911792361 [Eh]
	 Correlation Energy        =      -1.2562800676593706 [Eh]
	 Total Energy              =    -629.3363130688024967 [Eh]

	 ================> DF-SCS-MP2 Energies <==================
	-----------------------------------------------------------
	 SCS Same-Spin Scale       =       0.3333333333333333 [-]
	 SCS Opposite-Spin Scale   =       1.2000000000000000 [-]
	 SCS Same-Spin Energy      =      -0.0998105254933782 [Eh]
	 SCS Opposite-Spin Energy  =      -1.1482181894150834 [Eh]
	 SCS Correlation Energy    =      -1.2480287149084615 [Eh]
	 SCS Total Energy          =    -629.3280617160515931 [Eh]
	-----------------------------------------------------------

  Dipole Moment: [D]
     X:     5.3272      Y:    -0.0055      Z:    -1.4921     Total:     5.5322

*** Psi4 exiting successfully. Buy a developer a beer!
