                               Psi4 1.4a3.dev225

  ==> Input File <==

--------------------------------------------------------------------------
#psi4
#
memory 32 gb

molecule  {
-1 1
  S       -1.9699520     0.0002960    -0.4301720
  O       -0.2287560    -0.0011680     1.6042380
  C        0.8192720     0.0003510    -0.5193240
  C        1.6340270     1.2570650    -0.2212640
  C        1.6341410    -1.2566790    -0.2229280
  C       -0.4461550    -0.0002880     0.3723060
  H        0.5101060     0.0010330    -1.5685180
  H        1.8714700     1.2810570     0.8460150
  H        2.5686810     1.2824310    -0.7973980
  H        1.0553630     2.1549570    -0.4631840
  H        1.8807941    -1.2654485     0.8424944
  H        2.5688000    -1.2811950    -0.7990910
  H        1.0555640    -2.1543050    -0.4660390
units angstrom
no_reorient  #important for SAPT in psi4, default
symmetry c1  #important for SAPT in psi4, default
}

set PROPERTIES_ORIGIN ["COM"]
properties('MP2/aug-cc-pvtz', properties = ['dipole'])
--------------------------------------------------------------------------

    Molecular point group: c1
  Charge       = -1
  Multiplicity = 1
  Basis Set: AUG-CC-PVTZ
    Blend: AUG-CC-PVTZ
  Basis Set: (AUG-CC-PVTZ AUX)
    Blend: AUG-CC-PVTZ-JKFIT

    Orbital Energies [Eh]
    ---------------------

    Doubly Occupied:

       1A    -91.704104     2A    -20.344142     3A    -11.158845
       4A    -11.082641     5A    -11.082410     6A    -11.081612
       7A     -8.706538     8A     -6.388065     9A     -6.386609
      10A     -6.386118    11A     -1.172194    12A     -0.929474
      13A     -0.796364    14A     -0.777353    15A     -0.663570
      16A     -0.538472    17A     -0.476472    18A     -0.461415
      19A     -0.432947    20A     -0.405814    21A     -0.381732
      22A     -0.366454    23A     -0.354752    24A     -0.328474
      25A     -0.313316    26A     -0.205407    27A     -0.142283
      28A     -0.131620

  @DF-RHF Final Energy:  -628.08070320989452

   => Energetics <=

    Nuclear Repulsion Energy =            283.6280197517284591
    One-Electron Energy =               -1437.0190490650675201
    Two-Electron Energy =                 525.3103261034444813
    Total Energy =                       -628.0807032098945228
  Basis Set: (AUG-CC-PVTZ AUX)
    Blend: AUG-CC-PVTZ-RI
    Molecular point group: c1

    Geometry (in Angstrom), charge = -1, multiplicity = 1:

       Center              X                  Y                   Z               Mass
    ------------   -----------------  -----------------  -----------------  -----------------
         S           -1.859818880347     0.000151912318    -0.453342780361    31.972071174400
         O           -0.118622880347    -0.001312087682     1.581067219639    15.994914619570
         C            0.929405119653     0.000206912318    -0.542494780361    12.000000000000
         C            1.744160119653     1.256920912318    -0.244434780361    12.000000000000
         C            1.744274119653    -1.256823087682    -0.246098780361    12.000000000000
         C           -0.336021880347    -0.000432087682     0.349135219639    12.000000000000
         H            0.620239119653     0.000888912318    -1.591688780361     1.007825032230
         H            1.981603119653     1.280912912318     0.822844219639     1.007825032230
         H            2.678814119653     1.282286912318    -0.820568780361     1.007825032230
         H            1.165496119653     2.154812912318    -0.486354780361     1.007825032230
         H            1.990927219653    -1.265592587682     0.819323619639     1.007825032230
         H            2.678933119653    -1.281339087682    -0.822261780361     1.007825032230
         H            1.165697119653    -2.154449087682    -0.489209780361     1.007825032230

  Basis Set: AUG-CC-PVTZ
    Blend: AUG-CC-PVTZ
  Basis Set: (AUG-CC-PVTZ AUX)
    Blend: AUG-CC-PVTZ-JKFIT
	 Reference Energy          =    -628.0807032098945228 [Eh]
	 Singles Energy            =      -0.0000000000000000 [Eh]
	 Same-Spin Energy          =      -0.2994516214806295 [Eh]
	 Opposite-Spin Energy      =      -0.9568605265292754 [Eh]
	 Correlation Energy        =      -1.2563121480099049 [Eh]
	 Total Energy              =    -629.3370153579044199 [Eh]

	 ================> DF-SCS-MP2 Energies <==================
	-----------------------------------------------------------
	 SCS Same-Spin Scale       =       0.3333333333333333 [-]
	 SCS Opposite-Spin Scale   =       1.2000000000000000 [-]
	 SCS Same-Spin Energy      =      -0.0998172071602098 [Eh]
	 SCS Opposite-Spin Energy  =      -1.1482326318351306 [Eh]
	 SCS Correlation Energy    =      -1.2480498389953405 [Eh]
	 SCS Total Energy          =    -629.3287530488898938 [Eh]
	-----------------------------------------------------------

  Dipole Moment: [D]
     X:     5.3288      Y:     0.0059      Z:    -1.5199     Total:     5.5413

*** Psi4 exiting successfully. Buy a developer a beer!
