                               Psi4 1.4a3.dev225

  ==> Input File <==

--------------------------------------------------------------------------
#psi4
#
memory 32 gb

molecule  {
-1 1
  S       -1.9699520     0.0002960    -0.4301720
  O       -0.2287560    -0.0011680     1.6042380
  C        0.8192720     0.0003510    -0.5193240
  C        1.5806735     1.1747702    -0.2407822
  C        1.6341410    -1.2566790    -0.2229280
  C       -0.4461550    -0.0002880     0.3723060
  H        0.5101060     0.0010330    -1.5685180
  H        1.8714700     1.2810570     0.8460150
  H        2.5686810     1.2824310    -0.7973980
  H        1.0553630     2.1549570    -0.4631840
  H        1.8715790    -1.2820640     0.8443200
  H        2.5688000    -1.2811950    -0.7990910
  H        1.0555640    -2.1543050    -0.4660390
units angstrom
no_reorient  #important for SAPT in psi4, default
symmetry c1  #important for SAPT in psi4, default
}

set PROPERTIES_ORIGIN ["COM"]
properties('MP2/aug-cc-pvtz', properties = ['dipole'])
--------------------------------------------------------------------------

    Molecular point group: c1
  Charge       = -1
  Multiplicity = 1
  Basis Set: AUG-CC-PVTZ
    Blend: AUG-CC-PVTZ
  Basis Set: (AUG-CC-PVTZ AUX)
    Blend: AUG-CC-PVTZ-JKFIT

    Orbital Energies [Eh]
    ---------------------

    Doubly Occupied:

       1A    -91.704657     2A    -20.345003     3A    -11.159930
       4A    -11.088177     5A    -11.082841     6A    -11.076675
       7A     -8.707076     8A     -6.388604     9A     -6.387142
      10A     -6.386654    11A     -1.173497    12A     -0.945504
      13A     -0.795700    14A     -0.777273    15A     -0.661660
      16A     -0.543925    17A     -0.481908    18A     -0.462743
      19A     -0.435887    20A     -0.398926    21A     -0.385059
      22A     -0.363197    23A     -0.347675    24A     -0.328495
      25A     -0.313346    26A     -0.205900    27A     -0.142784
      28A     -0.132249

  @DF-RHF Final Energy:  -628.06908967192624

   => Energetics <=

    Nuclear Repulsion Energy =            285.2913221939753612
    One-Electron Energy =               -1440.2758508405152043
    Two-Electron Energy =                 526.9154389746134939
    Total Energy =                       -628.0690896719262355
  Basis Set: (AUG-CC-PVTZ AUX)
    Blend: AUG-CC-PVTZ-RI
    Molecular point group: c1

    Geometry (in Angstrom), charge = -1, multiplicity = 1:

       Center              X                  Y                   Z               Mass
    ------------   -----------------  -----------------  -----------------  -----------------
         S           -1.853514103550     0.009900174306    -0.451087154828    31.972071174400
         O           -0.112318103550     0.008436174306     1.583322845172    15.994914619570
         C            0.935709896450     0.009955174306    -0.540239154828    12.000000000000
         C            1.697111396450     1.184374374306    -0.261697354828    12.000000000000
         C            1.750578896450    -1.247074825694    -0.243843154828    12.000000000000
         C           -0.329717103550     0.009316174306     0.351390845172    12.000000000000
         H            0.626543896450     0.010637174306    -1.589433154828     1.007825032230
         H            1.987907896450     1.290661174306     0.825099845172     1.007825032230
         H            2.685118896450     1.292035174306    -0.818313154828     1.007825032230
         H            1.171800896450     2.164561174306    -0.484099154828     1.007825032230
         H            1.988016896450    -1.272459825694     0.823404845172     1.007825032230
         H            2.685237896450    -1.271590825694    -0.820006154828     1.007825032230
         H            1.172001896450    -2.144700825694    -0.486954154828     1.007825032230

  Basis Set: AUG-CC-PVTZ
    Blend: AUG-CC-PVTZ
  Basis Set: (AUG-CC-PVTZ AUX)
    Blend: AUG-CC-PVTZ-JKFIT
	 Reference Energy          =    -628.0690896719262355 [Eh]
	 Singles Energy            =      -0.0000000000000000 [Eh]
	 Same-Spin Energy          =      -0.3005712937197310 [Eh]
	 Opposite-Spin Energy      =      -0.9582557709970114 [Eh]
	 Correlation Energy        =      -1.2588270647167423 [Eh]
	 Total Energy              =    -629.3279167366430329 [Eh]

	 ================> DF-SCS-MP2 Energies <==================
	-----------------------------------------------------------
	 SCS Same-Spin Scale       =       0.3333333333333333 [-]
	 SCS Opposite-Spin Scale   =       1.2000000000000000 [-]
	 SCS Same-Spin Energy      =      -0.1001904312399103 [Eh]
	 SCS Opposite-Spin Energy  =      -1.1499069251964136 [Eh]
	 SCS Correlation Energy    =      -1.2500973564363238 [Eh]
	 SCS Total Energy          =    -629.3191870283625349 [Eh]
	-----------------------------------------------------------

  Dipole Moment: [D]
     X:     5.2375      Y:    -0.0618      Z:    -1.4986     Total:     5.4480

*** Psi4 exiting successfully. Buy a developer a beer!
