                               Psi4 1.4a3.dev225

  ==> Input File <==

--------------------------------------------------------------------------
#psi4
#
memory 32 gb

molecule  {
-1 1
  S       -1.9699520     0.0002960    -0.4301720
  O       -0.2287560    -0.0011680     1.6042380
  C        0.8192720     0.0003510    -0.5193240
  C        1.6340270     1.2570650    -0.2212640
  C        1.6341410    -1.2566790    -0.2229280
  C       -0.4461550    -0.0002880     0.3723060
  H        0.5101060     0.0010330    -1.5685180
  H        1.8714700     1.2810570     0.8460150
  H        2.5686810     1.2824310    -0.7973980
  H        1.0553630     2.1549570    -0.4631840
  H        1.8715790    -1.2820640     0.8443200
  H        2.5634006    -1.2978833    -0.8068210
  H        1.0555640    -2.1543050    -0.4660390
units angstrom
no_reorient  #important for SAPT in psi4, default
symmetry c1  #important for SAPT in psi4, default
}

set PROPERTIES_ORIGIN ["COM"]
properties('MP2/aug-cc-pvtz', properties = ['dipole'])
--------------------------------------------------------------------------

    Molecular point group: c1
  Charge       = -1
  Multiplicity = 1
  Basis Set: AUG-CC-PVTZ
    Blend: AUG-CC-PVTZ
  Basis Set: (AUG-CC-PVTZ AUX)
    Blend: AUG-CC-PVTZ-JKFIT

    Orbital Energies [Eh]
    ---------------------

    Doubly Occupied:

       1A    -91.704134     2A    -20.344191     3A    -11.158941
       4A    -11.082653     5A    -11.082344     6A    -11.081740
       7A     -8.706567     8A     -6.388095     9A     -6.386638
      10A     -6.386148    11A     -1.172249    12A     -0.929285
      13A     -0.796524    14A     -0.777339    15A     -0.663737
      16A     -0.538617    17A     -0.476229    18A     -0.461143
      19A     -0.432506    20A     -0.406385    21A     -0.381465
      22A     -0.366653    23A     -0.354397    24A     -0.328609
      25A     -0.313456    26A     -0.205476    27A     -0.142305
      28A     -0.131663

  @DF-RHF Final Energy:  -628.08072698341800

   => Energetics <=

    Nuclear Repulsion Energy =            283.6010784322249378
    One-Electron Energy =               -1436.9646367734126216
    Two-Electron Energy =                 525.2828313577696235
    Total Energy =                       -628.0807269834180033
  Basis Set: (AUG-CC-PVTZ AUX)
    Blend: AUG-CC-PVTZ-RI
    Molecular point group: c1

    Geometry (in Angstrom), charge = -1, multiplicity = 1:

       Center              X                  Y                   Z               Mass
    ------------   -----------------  -----------------  -----------------  -----------------
         S           -1.859675911922     0.000477711479    -0.453285019728    31.972071174400
         O           -0.118479911922    -0.000986288521     1.581124980272    15.994914619570
         C            0.929548088078     0.000532711479    -0.542437019728    12.000000000000
         C            1.744303088078     1.257246711479    -0.244377019728    12.000000000000
         C            1.744417088078    -1.256497288521    -0.246041019728    12.000000000000
         C           -0.335878911922    -0.000106288521     0.349192980272    12.000000000000
         H            0.620382088078     0.001214711479    -1.591631019728     1.007825032230
         H            1.981746088078     1.281238711479     0.822901980272     1.007825032230
         H            2.678957088078     1.282612711479    -0.820511019728     1.007825032230
         H            1.165639088078     2.155138711479    -0.486297019728     1.007825032230
         H            1.981855088078    -1.281882288521     0.821206980272     1.007825032230
         H            2.673676688078    -1.297701588521    -0.829934019728     1.007825032230
         H            1.165840088078    -2.154123288521    -0.489152019728     1.007825032230

  Basis Set: AUG-CC-PVTZ
    Blend: AUG-CC-PVTZ
  Basis Set: (AUG-CC-PVTZ AUX)
    Blend: AUG-CC-PVTZ-JKFIT
	 Reference Energy          =    -628.0807269834180033 [Eh]
	 Singles Energy            =      -0.0000000000000000 [Eh]
	 Same-Spin Energy          =      -0.2994288263229127 [Eh]
	 Opposite-Spin Energy      =      -0.9568258127593559 [Eh]
	 Correlation Energy        =      -1.2562546390822686 [Eh]
	 Total Energy              =    -629.3369816225002751 [Eh]

	 ================> DF-SCS-MP2 Energies <==================
	-----------------------------------------------------------
	 SCS Same-Spin Scale       =       0.3333333333333333 [-]
	 SCS Opposite-Spin Scale   =       1.2000000000000000 [-]
	 SCS Same-Spin Energy      =      -0.0998096087743042 [Eh]
	 SCS Opposite-Spin Energy  =      -1.1481909753112269 [Eh]
	 SCS Correlation Energy    =      -1.2480005840855311 [Eh]
	 SCS Total Energy          =    -629.3287275675035062 [Eh]
	-----------------------------------------------------------

  Dipole Moment: [D]
     X:     5.3244      Y:    -0.0034      Z:    -1.5210     Total:     5.5373

*** Psi4 exiting successfully. Buy a developer a beer!
