                               Psi4 1.4a3.dev225

  ==> Input File <==

--------------------------------------------------------------------------
#psi4
#
memory 32 gb

molecule  {
-1 1
  S       -1.9699520     0.0002960    -0.4301720
  O       -0.2287560    -0.0011680     1.6042380
  C        0.8192720     0.0003510    -0.5193240
  C        1.6340270     1.2570650    -0.2212640
  C        1.6341410    -1.2566790    -0.2229280
  C       -0.4461550    -0.0002880     0.3723060
  H        0.5101060     0.0010330    -1.5685180
  H        1.8714700     1.2810570     0.8460150
  H        2.5686810     1.2824310    -0.7973980
  H        1.0553630     2.1549570    -0.4631840
  H        1.9256871    -1.1824321     0.8285128
  H        2.5688000    -1.2811950    -0.7990910
  H        1.0555640    -2.1543050    -0.4660390
units angstrom
no_reorient  #important for SAPT in psi4, default
symmetry c1  #important for SAPT in psi4, default
}

set PROPERTIES_ORIGIN ["COM"]
properties('MP2/aug-cc-pvtz', properties = ['dipole'])
--------------------------------------------------------------------------

    Molecular point group: c1
  Charge       = -1
  Multiplicity = 1
  Basis Set: AUG-CC-PVTZ
    Blend: AUG-CC-PVTZ
  Basis Set: (AUG-CC-PVTZ AUX)
    Blend: AUG-CC-PVTZ-JKFIT

    Orbital Energies [Eh]
    ---------------------

    Doubly Occupied:

       1A    -91.704082     2A    -20.344168     3A    -11.158760
       4A    -11.082766     5A    -11.082635     6A    -11.081273
       7A     -8.706515     8A     -6.388042     9A     -6.386586
      10A     -6.386096    11A     -1.172186    12A     -0.930084
      13A     -0.796088    14A     -0.777469    15A     -0.663283
      16A     -0.537724    17A     -0.479920    18A     -0.460627
      19A     -0.433963    20A     -0.404887    21A     -0.381967
      22A     -0.366646    23A     -0.353772    24A     -0.327449
      25A     -0.313524    26A     -0.205372    27A     -0.142262
      28A     -0.131572

  @DF-RHF Final Energy:  -628.07930980649871

   => Energetics <=

    Nuclear Repulsion Energy =            283.6900904468135991
    One-Electron Energy =               -1437.1393609700023717
    Two-Electron Energy =                 525.3699607166900023
    Total Energy =                       -628.0793098064987134
  Basis Set: (AUG-CC-PVTZ AUX)
    Blend: AUG-CC-PVTZ-RI
    Molecular point group: c1

    Geometry (in Angstrom), charge = -1, multiplicity = 1:

       Center              X                  Y                   Z               Mass
    ------------   -----------------  -----------------  -----------------  -----------------
         S           -1.860258052506    -0.000660207424    -0.453206003370    31.972071174400
         O           -0.119062052506    -0.002124207424     1.581203996630    15.994914619570
         C            0.928965947494    -0.000605207424    -0.542358003370    12.000000000000
         C            1.743720947494     1.256108792576    -0.244298003370    12.000000000000
         C            1.743834947494    -1.257635207424    -0.245962003370    12.000000000000
         C           -0.336461052506    -0.001244207424     0.349271996630    12.000000000000
         H            0.619799947494     0.000076792576    -1.591552003370     1.007825032230
         H            1.981163947494     1.280100792576     0.822980996630     1.007825032230
         H            2.678374947494     1.281474792576    -0.820432003370     1.007825032230
         H            1.165056947494     2.154000792576    -0.486218003370     1.007825032230
         H            2.035381047494    -1.183388307424     0.805478796630     1.007825032230
         H            2.678493947494    -1.282151207424    -0.822125003370     1.007825032230
         H            1.165257947494    -2.155261207424    -0.489073003370     1.007825032230

  Basis Set: AUG-CC-PVTZ
    Blend: AUG-CC-PVTZ
  Basis Set: (AUG-CC-PVTZ AUX)
    Blend: AUG-CC-PVTZ-JKFIT
	 Reference Energy          =    -628.0793098064987134 [Eh]
	 Singles Energy            =      -0.0000000000000000 [Eh]
	 Same-Spin Energy          =      -0.2995704042828581 [Eh]
	 Opposite-Spin Energy      =      -0.9570314069767161 [Eh]
	 Correlation Energy        =      -1.2566018112595740 [Eh]
	 Total Energy              =    -629.3359116177582564 [Eh]

	 ================> DF-SCS-MP2 Energies <==================
	-----------------------------------------------------------
	 SCS Same-Spin Scale       =       0.3333333333333333 [-]
	 SCS Opposite-Spin Scale   =       1.2000000000000000 [-]
	 SCS Same-Spin Energy      =      -0.0998568014276194 [Eh]
	 SCS Opposite-Spin Energy  =      -1.1484376883720593 [Eh]
	 SCS Correlation Energy    =      -1.2482944897996786 [Eh]
	 SCS Total Energy          =    -629.3276042962984320 [Eh]
	-----------------------------------------------------------

  Dipole Moment: [D]
     X:     5.3382      Y:     0.0296      Z:    -1.5349     Total:     5.5546

*** Psi4 exiting successfully. Buy a developer a beer!
