                               Psi4 1.4a3.dev225

  ==> Input File <==

--------------------------------------------------------------------------
#psi4
#
memory 32 gb

molecule  {
-1 1
  S       -1.9699520     0.0002960    -0.4301720
  O       -0.2287560    -0.0011680     1.6042380
  C        0.8192720     0.0003510    -0.5193240
  C        1.6309987     1.2647553    -0.2466024
  C        1.6341410    -1.2566790    -0.2229280
  C       -0.4461550    -0.0002880     0.3723060
  H        0.5101060     0.0010330    -1.5685180
  H        1.8714700     1.2810570     0.8460150
  H        2.5686810     1.2824310    -0.7973980
  H        1.0553630     2.1549570    -0.4631840
  H        1.8715790    -1.2820640     0.8443200
  H        2.5688000    -1.2811950    -0.7990910
  H        1.0555640    -2.1543050    -0.4660390
units angstrom
no_reorient  #important for SAPT in psi4, default
symmetry c1  #important for SAPT in psi4, default
}

set PROPERTIES_ORIGIN ["COM"]
properties('MP2/aug-cc-pvtz', properties = ['dipole'])
--------------------------------------------------------------------------

    Molecular point group: c1
  Charge       = -1
  Multiplicity = 1
  Basis Set: AUG-CC-PVTZ
    Blend: AUG-CC-PVTZ
  Basis Set: (AUG-CC-PVTZ AUX)
    Blend: AUG-CC-PVTZ-JKFIT

    Orbital Energies [Eh]
    ---------------------

    Doubly Occupied:

       1A    -91.704123     2A    -20.344209     3A    -11.158957
       4A    -11.082731     5A    -11.082453     6A    -11.081685
       7A     -8.706556     8A     -6.388083     9A     -6.386627
      10A     -6.386136    11A     -1.172144    12A     -0.929175
      13A     -0.796881    14A     -0.777267    15A     -0.663646
      16A     -0.538107    17A     -0.475964    18A     -0.462982
      19A     -0.434946    20A     -0.401430    21A     -0.383165
      22A     -0.365500    23A     -0.357436    24A     -0.325085
      25A     -0.314030    26A     -0.205594    27A     -0.142261
      28A     -0.131622

  @DF-RHF Final Energy:  -628.07996424987584

   => Energetics <=

    Nuclear Repulsion Energy =            283.5205763898525788
    One-Electron Energy =               -1436.8034895121293175
    Two-Electron Energy =                 525.2029488724009525
    Total Energy =                       -628.0799642498758431
  Basis Set: (AUG-CC-PVTZ AUX)
    Blend: AUG-CC-PVTZ-RI
    Molecular point group: c1

    Geometry (in Angstrom), charge = -1, multiplicity = 1:

       Center              X                  Y                   Z               Mass
    ------------   -----------------  -----------------  -----------------  -----------------
         S           -1.859375995193    -0.000581312220    -0.450409216504    31.972071174400
         O           -0.118179995193    -0.002045312220     1.584000783496    15.994914619570
         C            0.929848004807    -0.000526312220    -0.539561216504    12.000000000000
         C            1.741574704807     1.263877987780    -0.266839616504    12.000000000000
         C            1.744717004807    -1.257556312220    -0.243165216504    12.000000000000
         C           -0.335578995193    -0.001165312220     0.352068783496    12.000000000000
         H            0.620682004807     0.000155687780    -1.588755216504     1.007825032230
         H            1.982046004807     1.280179687780     0.825777783496     1.007825032230
         H            2.679257004807     1.281553687780    -0.817635216504     1.007825032230
         H            1.165939004807     2.154079687780    -0.483421216504     1.007825032230
         H            1.982155004807    -1.282941312220     0.824082783496     1.007825032230
         H            2.679376004807    -1.282072312220    -0.819328216504     1.007825032230
         H            1.166140004807    -2.155182312220    -0.486276216504     1.007825032230

  Basis Set: AUG-CC-PVTZ
    Blend: AUG-CC-PVTZ
  Basis Set: (AUG-CC-PVTZ AUX)
    Blend: AUG-CC-PVTZ-JKFIT
	 Reference Energy          =    -628.0799642498758431 [Eh]
	 Singles Energy            =      -0.0000000000000000 [Eh]
	 Same-Spin Energy          =      -0.2994698293483601 [Eh]
	 Opposite-Spin Energy      =      -0.9569062440690407 [Eh]
	 Correlation Energy        =      -1.2563760734174008 [Eh]
	 Total Energy              =    -629.3363403232932569 [Eh]

	 ================> DF-SCS-MP2 Energies <==================
	-----------------------------------------------------------
	 SCS Same-Spin Scale       =       0.3333333333333333 [-]
	 SCS Opposite-Spin Scale   =       1.2000000000000000 [-]
	 SCS Same-Spin Energy      =      -0.0998232764494534 [Eh]
	 SCS Opposite-Spin Energy  =      -1.1482874928828488 [Eh]
	 SCS Correlation Energy    =      -1.2481107693323021 [Eh]
	 SCS Total Energy          =    -629.3280750192081996 [Eh]
	-----------------------------------------------------------

  Dipole Moment: [D]
     X:     5.3230      Y:     0.0052      Z:    -1.5436     Total:     5.5423

*** Psi4 exiting successfully. Buy a developer a beer!
