                               Psi4 1.4a3.dev225

  ==> Input File <==

--------------------------------------------------------------------------
#psi4
#
memory 32 gb

molecule  {
-1 1
  S       -1.9699520     0.0002960    -0.4301720
  O       -0.2287560    -0.0011680     1.6042380
  C        0.8192720     0.0003510    -0.5193240
  C        1.6340270     1.2570650    -0.2212640
  C        1.6341410    -1.2566790    -0.2229280
  C       -0.4461550    -0.0002880     0.3723060
  H        0.5101060     0.0010330    -1.5685180
  H        1.8714700     1.2810570     0.8460150
  H        2.5686810     1.2824310    -0.7973980
  H        1.0553630     2.1549570    -0.4631840
  H        1.8715790    -1.2820640     0.8443200
  H        2.5455112    -1.3478527    -0.8289346
  H        1.0555640    -2.1543050    -0.4660390
units angstrom
no_reorient  #important for SAPT in psi4, default
symmetry c1  #important for SAPT in psi4, default
}

set PROPERTIES_ORIGIN ["COM"]
properties('MP2/aug-cc-pvtz', properties = ['dipole'])
--------------------------------------------------------------------------

    Molecular point group: c1
  Charge       = -1
  Multiplicity = 1
  Basis Set: AUG-CC-PVTZ
    Blend: AUG-CC-PVTZ
  Basis Set: (AUG-CC-PVTZ AUX)
    Blend: AUG-CC-PVTZ-JKFIT

    Orbital Energies [Eh]
    ---------------------

    Doubly Occupied:

       1A    -91.704205     2A    -20.344350     3A    -11.159166
       4A    -11.082773     5A    -11.082266     6A    -11.081885
       7A     -8.706637     8A     -6.388165     9A     -6.386707
      10A     -6.386217    11A     -1.172405    12A     -0.929055
      13A     -0.796820    14A     -0.777358    15A     -0.664050
      16A     -0.538589    17A     -0.477572    18A     -0.459796
      19A     -0.431530    20A     -0.407831    21A     -0.380753
      22A     -0.367221    23A     -0.352665    24A     -0.328722
      25A     -0.314046    26A     -0.205643    27A     -0.142356
      28A     -0.131757

  @DF-RHF Final Energy:  -628.08019202028788

   => Energetics <=

    Nuclear Repulsion Energy =            283.5584408099566645
    One-Electron Energy =               -1436.8761909181494048
    Two-Electron Energy =                 525.2375580879048584
    Total Energy =                       -628.0801920202878819
  Basis Set: (AUG-CC-PVTZ AUX)
    Blend: AUG-CC-PVTZ-RI
    Molecular point group: c1

    Geometry (in Angstrom), charge = -1, multiplicity = 1:

       Center              X                  Y                   Z               Mass
    ------------   -----------------  -----------------  -----------------  -----------------
         S           -1.859500906321     0.000966544243    -0.453068690291    31.972071174400
         O           -0.118304906321    -0.000497455757     1.581341309709    15.994914619570
         C            0.929723093679     0.001021544243    -0.542220690291    12.000000000000
         C            1.744478093679     1.257735544243    -0.244160690291    12.000000000000
         C            1.744592093679    -1.256008455757    -0.245824690291    12.000000000000
         C           -0.335703906321     0.000382544243     0.349409309709    12.000000000000
         H            0.620557093679     0.001703544243    -1.591414690291     1.007825032230
         H            1.981921093679     1.281727544243     0.823118309709     1.007825032230
         H            2.679132093679     1.283101544243    -0.820294690291     1.007825032230
         H            1.165814093679     2.155627544243    -0.486080690291     1.007825032230
         H            1.982030093679    -1.281393455757     0.821423309709     1.007825032230
         H            2.655962293679    -1.347182155757    -0.851831290291     1.007825032230
         H            1.166015093679    -2.153634455757    -0.488935690291     1.007825032230

  Basis Set: AUG-CC-PVTZ
    Blend: AUG-CC-PVTZ
  Basis Set: (AUG-CC-PVTZ AUX)
    Blend: AUG-CC-PVTZ-JKFIT
	 Reference Energy          =    -628.0801920202878819 [Eh]
	 Singles Energy            =      -0.0000000000000000 [Eh]
	 Same-Spin Energy          =      -0.2994229915885069 [Eh]
	 Opposite-Spin Energy      =      -0.9568099803950607 [Eh]
	 Correlation Energy        =      -1.2562329719835676 [Eh]
	 Total Energy              =    -629.3364249922714180 [Eh]

	 ================> DF-SCS-MP2 Energies <==================
	-----------------------------------------------------------
	 SCS Same-Spin Scale       =       0.3333333333333333 [-]
	 SCS Opposite-Spin Scale   =       1.2000000000000000 [-]
	 SCS Same-Spin Energy      =      -0.0998076638628356 [Eh]
	 SCS Opposite-Spin Energy  =      -1.1481719764740728 [Eh]
	 SCS Correlation Energy    =      -1.2479796403369083 [Eh]
	 SCS Total Energy          =    -629.3281716606247755 [Eh]
	-----------------------------------------------------------

  Dipole Moment: [D]
     X:     5.3167      Y:    -0.0174      Z:    -1.5317     Total:     5.5330

*** Psi4 exiting successfully. Buy a developer a beer!
