                               Psi4 1.4a3.dev225

  ==> Input File <==

--------------------------------------------------------------------------
#psi4
#
memory 32 gb

molecule  {
-1 1
  S       -1.9699520     0.0002960    -0.4301720
  O       -0.2287560    -0.0011680     1.6042380
  C        0.8192720     0.0003510    -0.5193240
  C        1.6873805     1.3393598    -0.2017458
  C        1.6341410    -1.2566790    -0.2229280
  C       -0.4461550    -0.0002880     0.3723060
  H        0.5101060     0.0010330    -1.5685180
  H        1.8714700     1.2810570     0.8460150
  H        2.5686810     1.2824310    -0.7973980
  H        1.0553630     2.1549570    -0.4631840
  H        1.8715790    -1.2820640     0.8443200
  H        2.5688000    -1.2811950    -0.7990910
  H        1.0555640    -2.1543050    -0.4660390
units angstrom
no_reorient  #important for SAPT in psi4, default
symmetry c1  #important for SAPT in psi4, default
}

set PROPERTIES_ORIGIN ["COM"]
properties('MP2/aug-cc-pvtz', properties = ['dipole'])
--------------------------------------------------------------------------

    Molecular point group: c1
  Charge       = -1
  Multiplicity = 1
  Basis Set: AUG-CC-PVTZ
    Blend: AUG-CC-PVTZ
  Basis Set: (AUG-CC-PVTZ AUX)
    Blend: AUG-CC-PVTZ-JKFIT

    Orbital Energies [Eh]
    ---------------------

    Doubly Occupied:

       1A    -91.704019     2A    -20.343683     3A    -11.158556
       4A    -11.086787     5A    -11.082573     6A    -11.079301
       7A     -8.706460     8A     -6.387986     9A     -6.386532
      10A     -6.386040    11A     -1.171451    12A     -0.918129
      13A     -0.798678    14A     -0.777560    15A     -0.664590
      16A     -0.535239    17A     -0.474338    18A     -0.463473
      19A     -0.432859    20A     -0.415555    21A     -0.386184
      22A     -0.369080    23A     -0.352349    24A     -0.328843
      25A     -0.300384    26A     -0.204963    27A     -0.142136
      28A     -0.131341

  @DF-RHF Final Energy:  -628.07399107165372

   => Energetics <=

    Nuclear Repulsion Energy =            282.0404517354124323
    One-Electron Energy =               -1433.8507037933081847
    Two-Electron Energy =                 523.7362609862419731
    Total Energy =                       -628.0739910716537224
  Basis Set: (AUG-CC-PVTZ AUX)
    Blend: AUG-CC-PVTZ-RI
    Molecular point group: c1

    Geometry (in Angstrom), charge = -1, multiplicity = 1:

       Center              X                  Y                   Z               Mass
    ------------   -----------------  -----------------  -----------------  -----------------
         S           -1.865943361091    -0.009271262685    -0.455634124278    31.972071174400
         O           -0.124747361091    -0.010735262685     1.578775875722    15.994914619570
         C            0.923280638909    -0.009216262685    -0.544786124278    12.000000000000
         C            1.791389138909     1.329792537315    -0.227207924278    12.000000000000
         C            1.738149638909    -1.266246262685    -0.248390124278    12.000000000000
         C           -0.342146361091    -0.009855262685     0.346843875722    12.000000000000
         H            0.614114638909    -0.008534262685    -1.593980124278     1.007825032230
         H            1.975478638909     1.271489737315     0.820552875722     1.007825032230
         H            2.672689638909     1.272863737315    -0.822860124278     1.007825032230
         H            1.159371638909     2.145389737315    -0.488646124278     1.007825032230
         H            1.975587638909    -1.291631262685     0.818857875722     1.007825032230
         H            2.672808638909    -1.290762262685    -0.824553124278     1.007825032230
         H            1.159572638909    -2.163872262685    -0.491501124278     1.007825032230

  Basis Set: AUG-CC-PVTZ
    Blend: AUG-CC-PVTZ
  Basis Set: (AUG-CC-PVTZ AUX)
    Blend: AUG-CC-PVTZ-JKFIT
	 Reference Energy          =    -628.0739910716537224 [Eh]
	 Singles Energy            =      -0.0000000000000000 [Eh]
	 Same-Spin Energy          =      -0.2991306130930496 [Eh]
	 Opposite-Spin Energy      =      -0.9568123136403742 [Eh]
	 Correlation Energy        =      -1.2559429267334239 [Eh]
	 Total Energy              =    -629.3299339983871050 [Eh]

	 ================> DF-SCS-MP2 Energies <==================
	-----------------------------------------------------------
	 SCS Same-Spin Scale       =       0.3333333333333333 [-]
	 SCS Opposite-Spin Scale   =       1.2000000000000000 [-]
	 SCS Same-Spin Energy      =      -0.0997102043643499 [Eh]
	 SCS Opposite-Spin Energy  =      -1.1481747763684491 [Eh]
	 SCS Correlation Energy    =      -1.2478849807327990 [Eh]
	 SCS Total Energy          =    -629.3218760523865285 [Eh]
	-----------------------------------------------------------

  Dipole Moment: [D]
     X:     5.3534      Y:     0.0032      Z:    -1.5374     Total:     5.5698

*** Psi4 exiting successfully. Buy a developer a beer!
