                               Psi4 1.4a3.dev225

  ==> Input File <==

--------------------------------------------------------------------------
#psi4
#
memory 32 gb

molecule  {
-1 1
  S       -1.9699520     0.0002960    -0.4301720
  O       -0.2287560    -0.0011680     1.6042380
  C        0.8192720     0.0003510    -0.5193240
  C        1.6340270     1.2570650    -0.2212640
  C        1.6341410    -1.2566790    -0.2229280
  C       -0.4461550    -0.0002880     0.3723060
  H        0.5101060     0.0010330    -1.5685180
  H        1.8714700     1.2810570     0.8460150
  H        2.5686810     1.2824310    -0.7973980
  H        1.0553630     2.1549570    -0.4631840
  H        1.8715790    -1.2820640     0.8443200
  H        2.7390088    -1.2856596    -0.9040149
  H        1.0555640    -2.1543050    -0.4660390
units angstrom
no_reorient  #important for SAPT in psi4, default
symmetry c1  #important for SAPT in psi4, default
}

set PROPERTIES_ORIGIN ["COM"]
properties('MP2/aug-cc-pvtz', properties = ['dipole'])
--------------------------------------------------------------------------

    Molecular point group: c1
  Charge       = -1
  Multiplicity = 1
  Basis Set: AUG-CC-PVTZ
    Blend: AUG-CC-PVTZ
  Basis Set: (AUG-CC-PVTZ AUX)
    Blend: AUG-CC-PVTZ-JKFIT

    Orbital Energies [Eh]
    ---------------------

    Doubly Occupied:

       1A    -91.706261     2A    -20.346803     3A    -11.161905
       4A    -11.107760     5A    -11.085241     6A    -11.082889
       7A     -8.708684     8A     -6.390207     9A     -6.388748
      10A     -6.388253    11A     -1.174927    12A     -0.928876
      13A     -0.791184    14A     -0.777002    15A     -0.659753
      16A     -0.540260    17A     -0.478266    18A     -0.460774
      19A     -0.424028    20A     -0.402912    21A     -0.375825
      22A     -0.364592    23A     -0.349109    24A     -0.331037
      25A     -0.314939    26A     -0.207579    27A     -0.144298
      28A     -0.133719

  @DF-RHF Final Energy:  -628.06158344381902

   => Energetics <=

    Nuclear Repulsion Energy =            282.8099177081678022
    One-Electron Energy =               -1435.2913401947193961
    Two-Electron Energy =                 524.4198390427325194
    Total Energy =                       -628.0615834438190177
  Basis Set: (AUG-CC-PVTZ AUX)
    Blend: AUG-CC-PVTZ-RI
    Molecular point group: c1

    Geometry (in Angstrom), charge = -1, multiplicity = 1:

       Center              X                  Y                   Z               Mass
    ------------   -----------------  -----------------  -----------------  -----------------
         S           -1.861393824119     0.000358131395    -0.452334206575    31.972071174400
         O           -0.120197824119    -0.001105868605     1.582075793425    15.994914619570
         C            0.927830175881     0.000413131395    -0.541486206575    12.000000000000
         C            1.742585175881     1.257127131395    -0.243426206575    12.000000000000
         C            1.742699175881    -1.256616868605    -0.245090206575    12.000000000000
         C           -0.337596824119    -0.000225868605     0.350143793425    12.000000000000
         H            0.618664175881     0.001095131395    -1.590680206575     1.007825032230
         H            1.980028175881     1.281119131395     0.823852793425     1.007825032230
         H            2.677239175881     1.282493131395    -0.819560206575     1.007825032230
         H            1.163921175881     2.155019131395    -0.485346206575     1.007825032230
         H            1.980137175881    -1.282001868605     0.822157793425     1.007825032230
         H            2.847566975881    -1.285597468605    -0.926177106575     1.007825032230
         H            1.164122175881    -2.154242868605    -0.488201206575     1.007825032230

  Basis Set: AUG-CC-PVTZ
    Blend: AUG-CC-PVTZ
  Basis Set: (AUG-CC-PVTZ AUX)
    Blend: AUG-CC-PVTZ-JKFIT
	 Reference Energy          =    -628.0615834438190177 [Eh]
	 Singles Energy            =      -0.0000000000000000 [Eh]
	 Same-Spin Energy          =      -0.2993440677894756 [Eh]
	 Opposite-Spin Energy      =      -0.9583109698478037 [Eh]
	 Correlation Energy        =      -1.2576550376372793 [Eh]
	 Total Energy              =    -629.3192384814562956 [Eh]

	 ================> DF-SCS-MP2 Energies <==================
	-----------------------------------------------------------
	 SCS Same-Spin Scale       =       0.3333333333333333 [-]
	 SCS Opposite-Spin Scale   =       1.2000000000000000 [-]
	 SCS Same-Spin Energy      =      -0.0997813559298252 [Eh]
	 SCS Opposite-Spin Energy  =      -1.1499731638173645 [Eh]
	 SCS Correlation Energy    =      -1.2497545197471898 [Eh]
	 SCS Total Energy          =    -629.3113379635661886 [Eh]
	-----------------------------------------------------------

  Dipole Moment: [D]
     X:     5.0237      Y:     0.0764      Z:    -1.4041     Total:     5.2168

*** Psi4 exiting successfully. Buy a developer a beer!
