                               Psi4 1.4a3.dev225

  ==> Input File <==

--------------------------------------------------------------------------
#psi4
#
memory 32 gb

molecule  {
-1 1
  S       -1.9699520     0.0002960    -0.4301720
  O       -0.2287560    -0.0011680     1.6042380
  C        0.8192720     0.0003510    -0.5193240
  C        1.6340270     1.2570650    -0.2212640
  C        1.6341410    -1.2566790    -0.2229280
  C       -0.4461550    -0.0002880     0.3723060
  H        0.5101060     0.0010330    -1.5685180
  H        1.8714700     1.2810570     0.8460150
  H        2.5686810     1.2824310    -0.7973980
  H        1.0553630     2.1549570    -0.4631840
  H        1.8715790    -1.2820640     0.8443200
  H        2.6113522    -1.2823111    -0.8253220
  H        1.0555640    -2.1543050    -0.4660390
units angstrom
no_reorient  #important for SAPT in psi4, default
symmetry c1  #important for SAPT in psi4, default
}

set PROPERTIES_ORIGIN ["COM"]
properties('MP2/aug-cc-pvtz', properties = ['dipole'])
--------------------------------------------------------------------------

    Molecular point group: c1
  Charge       = -1
  Multiplicity = 1
  Basis Set: AUG-CC-PVTZ
    Blend: AUG-CC-PVTZ
  Basis Set: (AUG-CC-PVTZ AUX)
    Blend: AUG-CC-PVTZ-JKFIT

    Orbital Energies [Eh]
    ---------------------

    Doubly Occupied:

       1A    -91.704568     2A    -20.344713     3A    -11.159511
       4A    -11.088967     5A    -11.082864     6A    -11.082227
       7A     -8.707000     8A     -6.388527     9A     -6.387070
      10A     -6.386578    11A     -1.172785    12A     -0.928902
      13A     -0.794287    14A     -0.777186    15A     -0.662273
      16A     -0.538910    17A     -0.476215    18A     -0.461020
      19A     -0.429289    20A     -0.405107    21A     -0.379969
      22A     -0.366220    23A     -0.354608    24A     -0.329101
      25A     -0.313702    26A     -0.205879    27A     -0.142717
      28A     -0.132076

  @DF-RHF Final Energy:  -628.07874468628211

   => Energetics <=

    Nuclear Repulsion Energy =            283.3978510791779399
    One-Electron Energy =               -1436.5486499337307578
    Two-Electron Energy =                 525.0720541682705971
    Total Energy =                       -628.0787446862821071
  Basis Set: (AUG-CC-PVTZ AUX)
    Blend: AUG-CC-PVTZ-RI
    Molecular point group: c1

    Geometry (in Angstrom), charge = -1, multiplicity = 1:

       Center              X                  Y                   Z               Mass
    ------------   -----------------  -----------------  -----------------  -----------------
         S           -1.860145005270     0.000325374217    -0.453104031064    31.972071174400
         O           -0.118949005270    -0.001138625783     1.581305968936    15.994914619570
         C            0.929078994730     0.000380374217    -0.542256031064    12.000000000000
         C            1.743833994730     1.257094374217    -0.244196031064    12.000000000000
         C            1.743947994730    -1.256649625783    -0.245860031064    12.000000000000
         C           -0.336348005270    -0.000258625783     0.349373968936    12.000000000000
         H            0.619912994730     0.001062374217    -1.591450031064     1.007825032230
         H            1.981276994730     1.281086374217     0.823082968936     1.007825032230
         H            2.678487994730     1.282460374217    -0.820330031064     1.007825032230
         H            1.165169994730     2.154986374217    -0.486116031064     1.007825032230
         H            1.981385994730    -1.282034625783     0.821387968936     1.007825032230
         H            2.721159194730    -1.282281725783    -0.848254031064     1.007825032230
         H            1.165370994730    -2.154275625783    -0.488971031064     1.007825032230

  Basis Set: AUG-CC-PVTZ
    Blend: AUG-CC-PVTZ
  Basis Set: (AUG-CC-PVTZ AUX)
    Blend: AUG-CC-PVTZ-JKFIT
	 Reference Energy          =    -628.0787446862821071 [Eh]
	 Singles Energy            =      -0.0000000000000000 [Eh]
	 Same-Spin Energy          =      -0.2994196038184287 [Eh]
	 Opposite-Spin Energy      =      -0.9571629490095744 [Eh]
	 Correlation Energy        =      -1.2565825528280032 [Eh]
	 Total Energy              =    -629.3353272391101427 [Eh]

	 ================> DF-SCS-MP2 Energies <==================
	-----------------------------------------------------------
	 SCS Same-Spin Scale       =       0.3333333333333333 [-]
	 SCS Opposite-Spin Scale   =       1.2000000000000000 [-]
	 SCS Same-Spin Energy      =      -0.0998065346061429 [Eh]
	 SCS Opposite-Spin Energy  =      -1.1485955388114892 [Eh]
	 SCS Correlation Energy    =      -1.2484020734176322 [Eh]
	 SCS Total Energy          =    -629.3271467596997581 [Eh]
	-----------------------------------------------------------

  Dipole Moment: [D]
     X:     5.2608      Y:     0.0176      Z:    -1.4932     Total:     5.4686

*** Psi4 exiting successfully. Buy a developer a beer!
