                               Psi4 1.4a3.dev225

  ==> Input File <==

--------------------------------------------------------------------------
#psi4
#
memory 32 gb

molecule  {
-1 1
  S       -1.9699520     0.0002960    -0.4301720
  O       -0.2287560    -0.0011680     1.6042380
  C        0.8192720     0.0003510    -0.5193240
  C        1.6340270     1.2570650    -0.2212640
  C        1.6341410    -1.2566790    -0.2229280
  C       -0.4461550    -0.0002880     0.3723060
  H        0.5101060     0.0010330    -1.5685180
  H        1.8714700     1.2810570     0.8460150
  H        2.5686810     1.2824310    -0.7973980
  H        1.0553630     2.1549570    -0.4631840
  H        1.8759212    -1.2825282     0.8638374
  H        2.5688000    -1.2811950    -0.7990910
  H        1.0555640    -2.1543050    -0.4660390
units angstrom
no_reorient  #important for SAPT in psi4, default
symmetry c1  #important for SAPT in psi4, default
}

set PROPERTIES_ORIGIN ["COM"]
properties('MP2/aug-cc-pvtz', properties = ['dipole'])
--------------------------------------------------------------------------

    Molecular point group: c1
  Charge       = -1
  Multiplicity = 1
  Basis Set: AUG-CC-PVTZ
    Blend: AUG-CC-PVTZ
  Basis Set: (AUG-CC-PVTZ AUX)
    Blend: AUG-CC-PVTZ-JKFIT

    Orbital Energies [Eh]
    ---------------------

    Doubly Occupied:

       1A    -91.704165     2A    -20.344129     3A    -11.158912
       4A    -11.084790     5A    -11.082606     6A    -11.081943
       7A     -8.706599     8A     -6.388126     9A     -6.386670
      10A     -6.386179    11A     -1.172192    12A     -0.929072
      13A     -0.795426    14A     -0.777193    15A     -0.663156
      16A     -0.538221    17A     -0.475631    18A     -0.461656
      19A     -0.432803    20A     -0.403556    21A     -0.381803
      22A     -0.365915    23A     -0.355026    24A     -0.328044
      25A     -0.313279    26A     -0.205456    27A     -0.142325
      28A     -0.131694

  @DF-RHF Final Energy:  -628.08023721025120

   => Energetics <=

    Nuclear Repulsion Energy =            283.5365980160977415
    One-Electron Energy =               -1436.8405373638613582
    Two-Electron Energy =                 525.2237021375124186
    Total Energy =                       -628.0802372102511981
  Basis Set: (AUG-CC-PVTZ AUX)
    Blend: AUG-CC-PVTZ-RI
    Molecular point group: c1

    Geometry (in Angstrom), charge = -1, multiplicity = 1:

       Center              X                  Y                   Z               Mass
    ------------   -----------------  -----------------  -----------------  -----------------
         S           -1.859771210509     0.000318996913    -0.453551571295    31.972071174400
         O           -0.118575210509    -0.001145003087     1.580858428705    15.994914619570
         C            0.929452789491     0.000373996913    -0.542703571295    12.000000000000
         C            1.744207789491     1.257087996913    -0.244643571295    12.000000000000
         C            1.744321789491    -1.256656003087    -0.246307571295    12.000000000000
         C           -0.335974210509    -0.000265003087     0.348926428705    12.000000000000
         H            0.620286789491     0.001055996913    -1.591897571295     1.007825032230
         H            1.981650789491     1.281079996913     0.822635428705     1.007825032230
         H            2.678861789491     1.282453996913    -0.820777571295     1.007825032230
         H            1.165543789491     2.154979996913    -0.486563571295     1.007825032230
         H            1.986101989491    -1.282505203087     0.840457828705     1.007825032230
         H            2.678980789491    -1.281172003087    -0.822470571295     1.007825032230
         H            1.165744789491    -2.154282003087    -0.489418571295     1.007825032230

  Basis Set: AUG-CC-PVTZ
    Blend: AUG-CC-PVTZ
  Basis Set: (AUG-CC-PVTZ AUX)
    Blend: AUG-CC-PVTZ-JKFIT
	 Reference Energy          =    -628.0802372102511981 [Eh]
	 Singles Energy            =      -0.0000000000000000 [Eh]
	 Same-Spin Energy          =      -0.2994613435304435 [Eh]
	 Opposite-Spin Energy      =      -0.9569908907213047 [Eh]
	 Correlation Energy        =      -1.2564522342517481 [Eh]
	 Total Energy              =    -629.3366894445028947 [Eh]

	 ================> DF-SCS-MP2 Energies <==================
	-----------------------------------------------------------
	 SCS Same-Spin Scale       =       0.3333333333333333 [-]
	 SCS Opposite-Spin Scale   =       1.2000000000000000 [-]
	 SCS Same-Spin Energy      =      -0.0998204478434812 [Eh]
	 SCS Opposite-Spin Energy  =      -1.1483890688655656 [Eh]
	 SCS Correlation Energy    =      -1.2482095167090468 [Eh]
	 SCS Total Energy          =    -629.3284467269602374 [Eh]
	-----------------------------------------------------------

  Dipole Moment: [D]
     X:     5.3177      Y:     0.0063      Z:    -1.5247     Total:     5.5319

*** Psi4 exiting successfully. Buy a developer a beer!
