                               Psi4 1.4a3.dev225

  ==> Input File <==

--------------------------------------------------------------------------
#psi4
#
memory 32 gb

molecule  {
-1 1
  S       -1.9699520     0.0002960    -0.4301720
  O       -0.2287560    -0.0011680     1.6042380
  C        0.8192720     0.0003510    -0.5193240
  C        1.6340270     1.2570650    -0.2212640
  C        1.6341410    -1.2566790    -0.2229280
  C       -0.4461550    -0.0002880     0.3723060
  H        0.5666368     0.0009083    -1.3766736
  H        1.8714700     1.2810570     0.8460150
  H        2.5686810     1.2824310    -0.7973980
  H        1.0553630     2.1549570    -0.4631840
  H        1.8715790    -1.2820640     0.8443200
  H        2.5688000    -1.2811950    -0.7990910
  H        1.0555640    -2.1543050    -0.4660390
units angstrom
no_reorient  #important for SAPT in psi4, default
symmetry c1  #important for SAPT in psi4, default
}

set PROPERTIES_ORIGIN ["COM"]
properties('MP2/aug-cc-pvtz', properties = ['dipole'])
--------------------------------------------------------------------------

    Molecular point group: c1
  Charge       = -1
  Multiplicity = 1
  Basis Set: AUG-CC-PVTZ
    Blend: AUG-CC-PVTZ
  Basis Set: (AUG-CC-PVTZ AUX)
    Blend: AUG-CC-PVTZ-JKFIT

    Orbital Energies [Eh]
    ---------------------

    Doubly Occupied:

       1A    -91.704746     2A    -20.342688     3A    -11.157348
       4A    -11.081096     5A    -11.081094     6A    -11.056740
       7A     -8.707147     8A     -6.388678     9A     -6.387217
      10A     -6.386740    11A     -1.170830    12A     -0.940642
      13A     -0.795440    14A     -0.778575    15A     -0.682089
      16A     -0.559079    17A     -0.478334    18A     -0.460910
      19A     -0.431818    20A     -0.405186    21A     -0.380928
      22A     -0.369298    23A     -0.353749    24A     -0.346003
      25A     -0.311745    26A     -0.204463    27A     -0.142528
      28A     -0.132729

  @DF-RHF Final Energy:  -628.04771612586103

   => Energetics <=

    Nuclear Repulsion Energy =            284.7322097278664046
    One-Electron Energy =               -1439.0841696759882780
    Two-Electron Energy =                 526.3042438222609007
    Total Energy =                       -628.0477161258610295
  Basis Set: (AUG-CC-PVTZ AUX)
    Blend: AUG-CC-PVTZ-RI
    Molecular point group: c1

    Geometry (in Angstrom), charge = -1, multiplicity = 1:

       Center              X                  Y                   Z               Mass
    ------------   -----------------  -----------------  -----------------  -----------------
         S           -1.860281752913     0.000315675706    -0.455237384686    31.972071174400
         O           -0.119085752913    -0.001148324294     1.579172615314    15.994914619570
         C            0.928942247087     0.000370675706    -0.544389384686    12.000000000000
         C            1.743697247087     1.257084675706    -0.246329384686    12.000000000000
         C            1.743811247087    -1.256659324294    -0.247993384686    12.000000000000
         C           -0.336484752913    -0.000268324294     0.347240615314    12.000000000000
         H            0.676307047087     0.000927975706    -1.401738984686     1.007825032230
         H            1.981140247087     1.281076675706     0.820949615314     1.007825032230
         H            2.678351247087     1.282450675706    -0.822463384686     1.007825032230
         H            1.165033247087     2.154976675706    -0.488249384686     1.007825032230
         H            1.981249247087    -1.282044324294     0.819254615314     1.007825032230
         H            2.678470247087    -1.281175324294    -0.824156384686     1.007825032230
         H            1.165234247087    -2.154285324294    -0.491104384686     1.007825032230

  Basis Set: AUG-CC-PVTZ
    Blend: AUG-CC-PVTZ
  Basis Set: (AUG-CC-PVTZ AUX)
    Blend: AUG-CC-PVTZ-JKFIT
	 Reference Energy          =    -628.0477161258610295 [Eh]
	 Singles Energy            =      -0.0000000000000000 [Eh]
	 Same-Spin Energy          =      -0.2992465316050808 [Eh]
	 Opposite-Spin Energy      =      -0.9559613006932440 [Eh]
	 Correlation Energy        =      -1.2552078322983249 [Eh]
	 Total Energy              =    -629.3029239581593401 [Eh]

	 ================> DF-SCS-MP2 Energies <==================
	-----------------------------------------------------------
	 SCS Same-Spin Scale       =       0.3333333333333333 [-]
	 SCS Opposite-Spin Scale   =       1.2000000000000000 [-]
	 SCS Same-Spin Energy      =      -0.0997488438683603 [Eh]
	 SCS Opposite-Spin Energy  =      -1.1471535608318928 [Eh]
	 SCS Correlation Energy    =      -1.2469024047002530 [Eh]
	 SCS Total Energy          =    -629.2946185305612516 [Eh]
	-----------------------------------------------------------

  Dipole Moment: [D]
     X:     5.3192      Y:     0.0012      Z:    -1.5700     Total:     5.5460

*** Psi4 exiting successfully. Buy a developer a beer!
