                               Psi4 1.4a3.dev225

  ==> Input File <==

--------------------------------------------------------------------------
#psi4
#
memory 32 gb

molecule  {
-1 1
  S       -1.9699520     0.0002960    -0.4301720
  O       -0.2287560    -0.0011680     1.6042380
  C        0.8192720     0.0003510    -0.5193240
  C        1.6469582     1.2029741    -0.0714081
  C        1.6341410    -1.2566790    -0.2229280
  C       -0.4461550    -0.0002880     0.3723060
  H        0.5101060     0.0010330    -1.5685180
  H        1.8714700     1.2810570     0.8460150
  H        2.5686810     1.2824310    -0.7973980
  H        1.0553630     2.1549570    -0.4631840
  H        1.8715790    -1.2820640     0.8443200
  H        2.5688000    -1.2811950    -0.7990910
  H        1.0555640    -2.1543050    -0.4660390
units angstrom
no_reorient  #important for SAPT in psi4, default
symmetry c1  #important for SAPT in psi4, default
}

set PROPERTIES_ORIGIN ["COM"]
properties('MP2/aug-cc-pvtz', properties = ['dipole'])
--------------------------------------------------------------------------

    Molecular point group: c1
  Charge       = -1
  Multiplicity = 1
  Basis Set: AUG-CC-PVTZ
    Blend: AUG-CC-PVTZ
  Basis Set: (AUG-CC-PVTZ AUX)
    Blend: AUG-CC-PVTZ-JKFIT

    Orbital Energies [Eh]
    ---------------------

    Doubly Occupied:

       1A    -91.704542     2A    -20.344220     3A    -11.159020
       4A    -11.087383     5A    -11.084505     6A    -11.081892
       7A     -8.706979     8A     -6.388504     9A     -6.387052
      10A     -6.386563    11A     -1.173155    12A     -0.932497
      13A     -0.797616    14A     -0.778876    15A     -0.668309
      16A     -0.545457    17A     -0.476753    18A     -0.462103
      19A     -0.437910    20A     -0.417471    21A     -0.378100
      22A     -0.364672    23A     -0.344366    24A     -0.330771
      25A     -0.306571    26A     -0.204907    27A     -0.142912
      28A     -0.132155

  @DF-RHF Final Energy:  -628.04907942746866

   => Energetics <=

    Nuclear Repulsion Energy =            284.2775833390689399
    One-Electron Energy =               -1438.2028069048064935
    Two-Electron Energy =                 525.8761441382688417
    Total Energy =                       -628.0490794274686550
  Basis Set: (AUG-CC-PVTZ AUX)
    Blend: AUG-CC-PVTZ-RI
    Molecular point group: c1

    Geometry (in Angstrom), charge = -1, multiplicity = 1:

       Center              X                  Y                   Z               Mass
    ------------   -----------------  -----------------  -----------------  -----------------
         S           -1.861234961669     0.006614977114    -0.470815891552    31.972071174400
         O           -0.120038961669     0.005150977114     1.563594108448    15.994914619570
         C            0.927989038331     0.006669977114    -0.559967891552    12.000000000000
         C            1.755675238331     1.209293077114    -0.112051991552    12.000000000000
         C            1.742858038331    -1.250360022886    -0.263571891552    12.000000000000
         C           -0.337437961669     0.006030977114     0.331662108448    12.000000000000
         H            0.618823038331     0.007351977114    -1.609161891552     1.007825032230
         H            1.980187038331     1.287375977114     0.805371108448     1.007825032230
         H            2.677398038331     1.288749977114    -0.838041891552     1.007825032230
         H            1.164080038331     2.161275977114    -0.503827891552     1.007825032230
         H            1.980296038331    -1.275745022886     0.803676108448     1.007825032230
         H            2.677517038331    -1.274876022886    -0.839734891552     1.007825032230
         H            1.164281038331    -2.147986022886    -0.506682891552     1.007825032230

  Basis Set: AUG-CC-PVTZ
    Blend: AUG-CC-PVTZ
  Basis Set: (AUG-CC-PVTZ AUX)
    Blend: AUG-CC-PVTZ-JKFIT
	 Reference Energy          =    -628.0490794274686550 [Eh]
	 Singles Energy            =      -0.0000000000000000 [Eh]
	 Same-Spin Energy          =      -0.2998002151088673 [Eh]
	 Opposite-Spin Energy      =      -0.9580678196971866 [Eh]
	 Correlation Energy        =      -1.2578680348060538 [Eh]
	 Total Energy              =    -629.3069474622747066 [Eh]

	 ================> DF-SCS-MP2 Energies <==================
	-----------------------------------------------------------
	 SCS Same-Spin Scale       =       0.3333333333333333 [-]
	 SCS Opposite-Spin Scale   =       1.2000000000000000 [-]
	 SCS Same-Spin Energy      =      -0.0999334050362891 [Eh]
	 SCS Opposite-Spin Energy  =      -1.1496813836366238 [Eh]
	 SCS Correlation Energy    =      -1.2496147886729128 [Eh]
	 SCS Total Energy          =    -629.2986942161415982 [Eh]
	-----------------------------------------------------------

  Dipole Moment: [D]
     X:     5.2862      Y:    -0.0793      Z:    -1.3831     Total:     5.4647

*** Psi4 exiting successfully. Buy a developer a beer!
