                               Psi4 1.4a3.dev225

  ==> Input File <==

--------------------------------------------------------------------------
#psi4
#
memory 32 gb

molecule  {
-1 1
  S       -1.9699520     0.0002960    -0.4301720
  O       -0.2287560    -0.0011680     1.6042380
  C        0.8192720     0.0003510    -0.5193240
  C        1.6340270     1.2570650    -0.2212640
  C        1.6341410    -1.2566790    -0.2229280
  C       -0.4461550    -0.0002880     0.3723060
  H        0.5101060     0.0010330    -1.5685180
  H        1.8714700     1.2810570     0.8460150
  H        2.5686810     1.2824310    -0.7973980
  H        1.0817798     2.1139670    -0.4521400
  H        1.8715790    -1.2820640     0.8443200
  H        2.5688000    -1.2811950    -0.7990910
  H        1.0555640    -2.1543050    -0.4660390
units angstrom
no_reorient  #important for SAPT in psi4, default
symmetry c1  #important for SAPT in psi4, default
}

set PROPERTIES_ORIGIN ["COM"]
properties('MP2/aug-cc-pvtz', properties = ['dipole'])
--------------------------------------------------------------------------

    Molecular point group: c1
  Charge       = -1
  Multiplicity = 1
  Basis Set: AUG-CC-PVTZ
    Blend: AUG-CC-PVTZ
  Basis Set: (AUG-CC-PVTZ AUX)
    Blend: AUG-CC-PVTZ-JKFIT

    Orbital Energies [Eh]
    ---------------------

    Doubly Occupied:

       1A    -91.704087     2A    -20.344025     3A    -11.158719
       4A    -11.082014     5A    -11.081271     6A    -11.075962
       7A     -8.706522     8A     -6.388049     9A     -6.386594
      10A     -6.386103    11A     -1.172086    12A     -0.930012
      13A     -0.799851    14A     -0.777497    15A     -0.664541
      16A     -0.538469    17A     -0.479372    18A     -0.463057
      19A     -0.433166    20A     -0.405959    21A     -0.382186
      22A     -0.366277    23A     -0.357481    24A     -0.328407
      25A     -0.313200    26A     -0.205279    27A     -0.142266
      28A     -0.131590

  @DF-RHF Final Energy:  -628.07976965299849

   => Energetics <=

    Nuclear Repulsion Energy =            283.8328479104485496
    One-Electron Energy =               -1437.4171536782384919
    Two-Electron Energy =                 525.5045361147913354
    Total Energy =                       -628.0797696529984933
  Basis Set: (AUG-CC-PVTZ AUX)
    Blend: AUG-CC-PVTZ-RI
    Molecular point group: c1

    Geometry (in Angstrom), charge = -1, multiplicity = 1:

       Center              X                  Y                   Z               Mass
    ------------   -----------------  -----------------  -----------------  -----------------
         S           -1.859987158424     0.000715446316    -0.453468679054    31.972071174400
         O           -0.118791158424    -0.000748553684     1.580941320946    15.994914619570
         C            0.929236841576     0.000770446316    -0.542620679054    12.000000000000
         C            1.743991841576     1.257484446316    -0.244560679054    12.000000000000
         C            1.744105841576    -1.256259553684    -0.246224679054    12.000000000000
         C           -0.336190158424     0.000131446316     0.349009320946    12.000000000000
         H            0.620070841576     0.001452446316    -1.591814679054     1.007825032230
         H            1.981434841576     1.281476446316     0.822718320946     1.007825032230
         H            2.678645841576     1.282850446316    -0.820694679054     1.007825032230
         H            1.191744641576     2.114386446316    -0.475436679054     1.007825032230
         H            1.981543841576    -1.281644553684     0.821023320946     1.007825032230
         H            2.678764841576    -1.280775553684    -0.822387679054     1.007825032230
         H            1.165528841576    -2.153885553684    -0.489335679054     1.007825032230

  Basis Set: AUG-CC-PVTZ
    Blend: AUG-CC-PVTZ
  Basis Set: (AUG-CC-PVTZ AUX)
    Blend: AUG-CC-PVTZ-JKFIT
	 Reference Energy          =    -628.0797696529984933 [Eh]
	 Singles Energy            =      -0.0000000000000000 [Eh]
	 Same-Spin Energy          =      -0.2994461307581809 [Eh]
	 Opposite-Spin Energy      =      -0.9565673851636277 [Eh]
	 Correlation Energy        =      -1.2560135159218087 [Eh]
	 Total Energy              =    -629.3357831689203294 [Eh]

	 ================> DF-SCS-MP2 Energies <==================
	-----------------------------------------------------------
	 SCS Same-Spin Scale       =       0.3333333333333333 [-]
	 SCS Opposite-Spin Scale   =       1.2000000000000000 [-]
	 SCS Same-Spin Energy      =      -0.0998153769193936 [Eh]
	 SCS Opposite-Spin Energy  =      -1.1478808621963532 [Eh]
	 SCS Correlation Energy    =      -1.2476962391157469 [Eh]
	 SCS Total Energy          =    -629.3274658921142191 [Eh]
	-----------------------------------------------------------

  Dipole Moment: [D]
     X:     5.3229      Y:     0.0390      Z:    -1.5233     Total:     5.5367

*** Psi4 exiting successfully. Buy a developer a beer!
