                               Psi4 1.4a3.dev225

  ==> Input File <==

--------------------------------------------------------------------------
#psi4
#
memory 32 gb

molecule  {
-1 1
  S       -1.9699520     0.0002960    -0.4301720
  O       -0.2287560    -0.0011680     1.6042380
  C        0.8192720     0.0003510    -0.5193240
  C        1.6340270     1.2570650    -0.2212640
  C        1.6341410    -1.2566790    -0.2229280
  C       -0.4461550    -0.0002880     0.3723060
  H        0.5101060     0.0010330    -1.5685180
  H        1.8714700     1.2810570     0.8460150
  H        2.5686810     1.2824310    -0.7973980
  H        1.0659297     2.1385610    -0.4587664
  H        1.8715790    -1.2820640     0.8443200
  H        2.5688000    -1.2811950    -0.7990910
  H        1.0555640    -2.1543050    -0.4660390
units angstrom
no_reorient  #important for SAPT in psi4, default
symmetry c1  #important for SAPT in psi4, default
}

set PROPERTIES_ORIGIN ["COM"]
properties('MP2/aug-cc-pvtz', properties = ['dipole'])
--------------------------------------------------------------------------

    Molecular point group: c1
  Charge       = -1
  Multiplicity = 1
  Basis Set: AUG-CC-PVTZ
    Blend: AUG-CC-PVTZ
  Basis Set: (AUG-CC-PVTZ AUX)
    Blend: AUG-CC-PVTZ-JKFIT

    Orbital Energies [Eh]
    ---------------------

    Doubly Occupied:

       1A    -91.704099     2A    -20.344089     3A    -11.158802
       4A    -11.082322     5A    -11.081607     6A    -11.079777
       7A     -8.706534     8A     -6.388061     9A     -6.386605
      10A     -6.386114    11A     -1.172148    12A     -0.929592
      13A     -0.797715    14A     -0.777404    15A     -0.663978
      16A     -0.538554    17A     -0.477103    18A     -0.462269
      19A     -0.432937    20A     -0.405912    21A     -0.381870
      22A     -0.366375    23A     -0.355999    24A     -0.328509
      25A     -0.313233    26A     -0.205357    27A     -0.142278
      28A     -0.131613

  @DF-RHF Final Energy:  -628.08078162932884

   => Energetics <=

    Nuclear Repulsion Energy =            283.7013061795045701
    One-Electron Energy =               -1437.1624608534134495
    Two-Electron Energy =                 525.3803730445799829
    Total Energy =                       -628.0807816293288397
  Basis Set: (AUG-CC-PVTZ AUX)
    Blend: AUG-CC-PVTZ-RI
    Molecular point group: c1

    Geometry (in Angstrom), charge = -1, multiplicity = 1:

       Center              X                  Y                   Z               Mass
    ------------   -----------------  -----------------  -----------------  -----------------
         S           -1.859832102566     0.000474852013    -0.453403855353    31.972071174400
         O           -0.118636102566    -0.000989147987     1.581006144647    15.994914619570
         C            0.929391897434     0.000529852013    -0.542555855353    12.000000000000
         C            1.744146897434     1.257243852013    -0.244495855353    12.000000000000
         C            1.744260897434    -1.256500147987    -0.246159855353    12.000000000000
         C           -0.336035102566    -0.000109147987     0.349074144647    12.000000000000
         H            0.620225897434     0.001211852013    -1.591749855353     1.007825032230
         H            1.981589897434     1.281235852013     0.822783144647     1.007825032230
         H            2.678800897434     1.282609852013    -0.820629855353     1.007825032230
         H            1.176049597434     2.138739852013    -0.481998255353     1.007825032230
         H            1.981698897434    -1.281885147987     0.821088144647     1.007825032230
         H            2.678919897434    -1.281016147987    -0.822322855353     1.007825032230
         H            1.165683897434    -2.154126147987    -0.489270855353     1.007825032230

  Basis Set: AUG-CC-PVTZ
    Blend: AUG-CC-PVTZ
  Basis Set: (AUG-CC-PVTZ AUX)
    Blend: AUG-CC-PVTZ-JKFIT
	 Reference Energy          =    -628.0807816293288397 [Eh]
	 Singles Energy            =      -0.0000000000000000 [Eh]
	 Same-Spin Energy          =      -0.2994404575641211 [Eh]
	 Opposite-Spin Energy      =      -0.9567240437251952 [Eh]
	 Correlation Energy        =      -1.2561645012893163 [Eh]
	 Total Energy              =    -629.3369461306181165 [Eh]

	 ================> DF-SCS-MP2 Energies <==================
	-----------------------------------------------------------
	 SCS Same-Spin Scale       =       0.3333333333333333 [-]
	 SCS Opposite-Spin Scale   =       1.2000000000000000 [-]
	 SCS Same-Spin Energy      =      -0.0998134858547070 [Eh]
	 SCS Opposite-Spin Energy  =      -1.1480688524702340 [Eh]
	 SCS Correlation Energy    =      -1.2478823383249411 [Eh]
	 SCS Total Energy          =    -629.3286639676538243 [Eh]
	-----------------------------------------------------------

  Dipole Moment: [D]
     X:     5.3249      Y:     0.0168      Z:    -1.5198     Total:     5.5376

*** Psi4 exiting successfully. Buy a developer a beer!
