                               Psi4 1.4a3.dev225

  ==> Input File <==

--------------------------------------------------------------------------
#psi4
#
memory 32 gb

molecule  {
-1 1
  S       -1.9699520     0.0002960    -0.4301720
  O       -0.2287560    -0.0011680     1.6042380
  C        0.8192720     0.0003510    -0.5193240
  C        1.6340270     1.2570650    -0.2212640
  C        1.6341410    -1.2566790    -0.2229280
  C       -0.4461550    -0.0002880     0.3723060
  H        0.5101060     0.0010330    -1.5685180
  H        1.8714700     1.2810570     0.8460150
  H        2.5686810     1.2824310    -0.7973980
  H        1.0553630     2.1549570    -0.4631840
  H        1.8715790    -1.2820640     0.8443200
  H        2.5517791    -1.2807485    -0.7885986
  H        1.0555640    -2.1543050    -0.4660390
units angstrom
no_reorient  #important for SAPT in psi4, default
symmetry c1  #important for SAPT in psi4, default
}

set PROPERTIES_ORIGIN ["COM"]
properties('MP2/aug-cc-pvtz', properties = ['dipole'])
--------------------------------------------------------------------------

    Molecular point group: c1
  Charge       = -1
  Multiplicity = 1
  Basis Set: AUG-CC-PVTZ
    Blend: AUG-CC-PVTZ
  Basis Set: (AUG-CC-PVTZ AUX)
    Blend: AUG-CC-PVTZ-JKFIT

    Orbital Energies [Eh]
    ---------------------

    Doubly Occupied:

       1A    -91.703940     2A    -20.343922     3A    -11.158625
       4A    -11.082465     5A    -11.081612     6A    -11.079650
       7A     -8.706374     8A     -6.387902     9A     -6.386446
      10A     -6.385956    11A     -1.171976    12A     -0.929642
      13A     -0.797498    14A     -0.777395    15A     -0.664262
      16A     -0.538541    17A     -0.475798    18A     -0.461993
      19A     -0.434336    20A     -0.406173    21A     -0.382290
      22A     -0.366489    23A     -0.354939    24A     -0.328381
      25A     -0.313071    26A     -0.205243    27A     -0.142130
      28A     -0.131465

  @DF-RHF Final Energy:  -628.08079162418244

   => Energetics <=

    Nuclear Repulsion Energy =            283.7074172206234834
    One-Electron Energy =               -1437.1793991372742312
    Two-Electron Energy =                 525.3911902924683091
    Total Energy =                       -628.0807916241824387
  Basis Set: (AUG-CC-PVTZ AUX)
    Blend: AUG-CC-PVTZ-RI
    Molecular point group: c1

    Geometry (in Angstrom), charge = -1, multiplicity = 1:

       Center              X                  Y                   Z               Mass
    ------------   -----------------  -----------------  -----------------  -----------------
         S           -1.859562222945     0.000310087861    -0.453463282948    31.972071174400
         O           -0.118366222945    -0.001153912139     1.580946717052    15.994914619570
         C            0.929661777055     0.000365087861    -0.542615282948    12.000000000000
         C            1.744416777055     1.257079087861    -0.244555282948    12.000000000000
         C            1.744530777055    -1.256664912139    -0.246219282948    12.000000000000
         C           -0.335765222945    -0.000273912139     0.349014717052    12.000000000000
         H            0.620495777055     0.001047087861    -1.591809282948     1.007825032230
         H            1.981859777055     1.281071087861     0.822723717052     1.007825032230
         H            2.679070777055     1.282445087861    -0.820689282948     1.007825032230
         H            1.165752777055     2.154971087861    -0.486475282948     1.007825032230
         H            1.981968777055    -1.282049912139     0.821028717052     1.007825032230
         H            2.662168877055    -1.280734412139    -0.811889882948     1.007825032230
         H            1.165953777055    -2.154290912139    -0.489330282948     1.007825032230

  Basis Set: AUG-CC-PVTZ
    Blend: AUG-CC-PVTZ
  Basis Set: (AUG-CC-PVTZ AUX)
    Blend: AUG-CC-PVTZ-JKFIT
	 Reference Energy          =    -628.0807916241824387 [Eh]
	 Singles Energy            =      -0.0000000000000000 [Eh]
	 Same-Spin Energy          =      -0.2994458836413373 [Eh]
	 Opposite-Spin Energy      =      -0.9567259233548401 [Eh]
	 Correlation Energy        =      -1.2561718069961774 [Eh]
	 Total Energy              =    -629.3369634311785603 [Eh]

	 ================> DF-SCS-MP2 Energies <==================
	-----------------------------------------------------------
	 SCS Same-Spin Scale       =       0.3333333333333333 [-]
	 SCS Opposite-Spin Scale   =       1.2000000000000000 [-]
	 SCS Same-Spin Energy      =      -0.0998152945471124 [Eh]
	 SCS Opposite-Spin Energy  =      -1.1480711080258081 [Eh]
	 SCS Correlation Energy    =      -1.2478864025729206 [Eh]
	 SCS Total Energy          =    -629.3286780267553695 [Eh]
	-----------------------------------------------------------

  Dipole Moment: [D]
     X:     5.3509      Y:    -0.0050      Z:    -1.5261     Total:     5.5643

*** Psi4 exiting successfully. Buy a developer a beer!
