                               Psi4 1.4a3.dev225

  ==> Input File <==

--------------------------------------------------------------------------
#psi4
#
memory 32 gb

molecule  {
-1 1
  S       -1.9699520     0.0002960    -0.4301720
  O       -0.2287560    -0.0011680     1.6042380
  C        0.8192720     0.0003510    -0.5193240
  C        1.6340270     1.2570650    -0.2212640
  C        1.6341410    -1.2566790    -0.2229280
  C       -0.4461550    -0.0002880     0.3723060
  H        0.5101060     0.0010330    -1.5685180
  H        1.8714700     1.2810570     0.8460150
  H        2.5686810     1.2824310    -0.7973980
  H        1.0553630     2.1549570    -0.4631840
  H        1.8715790    -1.2820640     0.8443200
  H        2.5858209    -1.2816415    -0.8095834
  H        1.0555640    -2.1543050    -0.4660390
units angstrom
no_reorient  #important for SAPT in psi4, default
symmetry c1  #important for SAPT in psi4, default
}

set PROPERTIES_ORIGIN ["COM"]
properties('MP2/aug-cc-pvtz', properties = ['dipole'])
--------------------------------------------------------------------------

    Molecular point group: c1
  Charge       = -1
  Multiplicity = 1
  Basis Set: AUG-CC-PVTZ
    Blend: AUG-CC-PVTZ
  Basis Set: (AUG-CC-PVTZ AUX)
    Blend: AUG-CC-PVTZ-JKFIT

    Orbital Energies [Eh]
    ---------------------

    Doubly Occupied:

       1A    -91.704287     2A    -20.344360     3A    -11.159113
       4A    -11.085051     5A    -11.082618     6A    -11.081967
       7A     -8.706720     8A     -6.388247     9A     -6.386790
      10A     -6.386299    11A     -1.172423    12A     -0.929153
      13A     -0.795498    14A     -0.777275    15A     -0.663063
      16A     -0.538732    17A     -0.475980    18A     -0.461343
      19A     -0.431289    20A     -0.405595    21A     -0.381024
      22A     -0.366383    23A     -0.354824    24A     -0.328777
      25A     -0.313427    26A     -0.205594    27A     -0.142454
      28A     -0.131802

  @DF-RHF Final Energy:  -628.08026653985951

   => Energetics <=

    Nuclear Repulsion Energy =            283.5273955080409678
    One-Electron Energy =               -1436.8151496503228373
    Two-Electron Energy =                 525.2074876024222476
    Total Energy =                       -628.0802665398595082
  Basis Set: (AUG-CC-PVTZ AUX)
    Blend: AUG-CC-PVTZ-RI
    Molecular point group: c1

    Geometry (in Angstrom), charge = -1, multiplicity = 1:

       Center              X                  Y                   Z               Mass
    ------------   -----------------  -----------------  -----------------  -----------------
         S           -1.859895241696     0.000318823760    -0.453257996157    31.972071174400
         O           -0.118699241696    -0.001145176240     1.581152003843    15.994914619570
         C            0.929328758304     0.000373823760    -0.542409996157    12.000000000000
         C            1.744083758304     1.257087823760    -0.244349996157    12.000000000000
         C            1.744197758304    -1.256656176240    -0.246013996157    12.000000000000
         C           -0.336098241696    -0.000265176240     0.349220003843    12.000000000000
         H            0.620162758304     0.001055823760    -1.591603996157     1.007825032230
         H            1.981526758304     1.281079823760     0.822929003843     1.007825032230
         H            2.678737758304     1.282453823760    -0.820483996157     1.007825032230
         H            1.165419758304     2.154979823760    -0.486269996157     1.007825032230
         H            1.981635758304    -1.282041176240     0.821234003843     1.007825032230
         H            2.695877658304    -1.281618676240    -0.832669396157     1.007825032230
         H            1.165620758304    -2.154282176240    -0.489124996157     1.007825032230

  Basis Set: AUG-CC-PVTZ
    Blend: AUG-CC-PVTZ
  Basis Set: (AUG-CC-PVTZ AUX)
    Blend: AUG-CC-PVTZ-JKFIT
	 Reference Energy          =    -628.0802665398595082 [Eh]
	 Singles Energy            =      -0.0000000000000000 [Eh]
	 Same-Spin Energy          =      -0.2994306108665077 [Eh]
	 Opposite-Spin Energy      =      -0.9569646421765277 [Eh]
	 Correlation Energy        =      -1.2563952530430353 [Eh]
	 Total Energy              =    -629.3366617929025324 [Eh]

	 ================> DF-SCS-MP2 Energies <==================
	-----------------------------------------------------------
	 SCS Same-Spin Scale       =       0.3333333333333333 [-]
	 SCS Opposite-Spin Scale   =       1.2000000000000000 [-]
	 SCS Same-Spin Energy      =      -0.0998102036221692 [Eh]
	 SCS Opposite-Spin Energy  =      -1.1483575706118332 [Eh]
	 SCS Correlation Energy    =      -1.2481677742340025 [Eh]
	 SCS Total Energy          =    -629.3284343140935562 [Eh]
	-----------------------------------------------------------

  Dipole Moment: [D]
     X:     5.3010      Y:     0.0075      Z:    -1.5080     Total:     5.5114

*** Psi4 exiting successfully. Buy a developer a beer!
