                               Psi4 1.4a3.dev225

  ==> Input File <==

--------------------------------------------------------------------------
#psi4
#
memory 32 gb

molecule  {
-1 1
  S       -1.9699520     0.0002960    -0.4301720
  O       -0.2287560    -0.0011680     1.6042380
  C        0.8192720     0.0003510    -0.5193240
  C        1.6340270     1.2570650    -0.2212640
  C        1.6341410    -1.2566790    -0.2229280
  C       -0.4461550    -0.0002880     0.3723060
  H        0.5101060     0.0010330    -1.5685180
  H        1.8714700     1.2810570     0.8460150
  H        2.5686810     1.2824310    -0.7973980
  H        1.0553630     2.1549570    -0.4631840
  H        1.8715790    -1.2820640     0.8443200
  H        2.5951659    -1.1810862    -0.7491117
  H        1.0555640    -2.1543050    -0.4660390
units angstrom
no_reorient  #important for SAPT in psi4, default
symmetry c1  #important for SAPT in psi4, default
}

set PROPERTIES_ORIGIN ["COM"]
properties('MP2/aug-cc-pvtz', properties = ['dipole'])
--------------------------------------------------------------------------

    Molecular point group: c1
  Charge       = -1
  Multiplicity = 1
  Basis Set: AUG-CC-PVTZ
    Blend: AUG-CC-PVTZ
  Basis Set: (AUG-CC-PVTZ AUX)
    Blend: AUG-CC-PVTZ-JKFIT

    Orbital Energies [Eh]
    ---------------------

    Doubly Occupied:

       1A    -91.703954     2A    -20.343779     3A    -11.158369
       4A    -11.082736     5A    -11.082519     6A    -11.081208
       7A     -8.706391     8A     -6.387918     9A     -6.386465
      10A     -6.385973    11A     -1.171849    12A     -0.930052
      13A     -0.796080    14A     -0.777341    15A     -0.663162
      16A     -0.538739    17A     -0.475114    18A     -0.464465
      19A     -0.433703    20A     -0.402981    21A     -0.382644
      22A     -0.365074    23A     -0.357244    24A     -0.328397
      25A     -0.311845    26A     -0.204991    27A     -0.142177
      28A     -0.131417

  @DF-RHF Final Energy:  -628.07951665430278

   => Energetics <=

    Nuclear Repulsion Energy =            283.7187279494558538
    One-Electron Energy =               -1437.2033140498219836
    Two-Electron Energy =                 525.4050694460634077
    Total Energy =                       -628.0795166543027790
  Basis Set: (AUG-CC-PVTZ AUX)
    Blend: AUG-CC-PVTZ-RI
    Molecular point group: c1

    Geometry (in Angstrom), charge = -1, multiplicity = 1:

       Center              X                  Y                   Z               Mass
    ------------   -----------------  -----------------  -----------------  -----------------
         S           -1.859986660488    -0.000664872766    -0.453849569165    31.972071174400
         O           -0.118790660488    -0.002128872766     1.580560430835    15.994914619570
         C            0.929237339512    -0.000609872766    -0.543001569165    12.000000000000
         C            1.743992339512     1.256104127234    -0.244941569165    12.000000000000
         C            1.744106339512    -1.257639872766    -0.246605569165    12.000000000000
         C           -0.336189660488    -0.001248872766     0.348628430835    12.000000000000
         H            0.620071339512     0.000072127234    -1.592195569165     1.007825032230
         H            1.981435339512     1.280096127234     0.822337430835     1.007825032230
         H            2.678646339512     1.281470127234    -0.821075569165     1.007825032230
         H            1.165328339512     2.153996127234    -0.486861569165     1.007825032230
         H            1.981544339512    -1.283024872766     0.820642430835     1.007825032230
         H            2.705131239512    -1.182047072766    -0.772789269165     1.007825032230
         H            1.165529339512    -2.155265872766    -0.489716569165     1.007825032230

  Basis Set: AUG-CC-PVTZ
    Blend: AUG-CC-PVTZ
  Basis Set: (AUG-CC-PVTZ AUX)
    Blend: AUG-CC-PVTZ-JKFIT
	 Reference Energy          =    -628.0795166543027790 [Eh]
	 Singles Energy            =      -0.0000000000000000 [Eh]
	 Same-Spin Energy          =      -0.2995694893508850 [Eh]
	 Opposite-Spin Energy      =      -0.9570348210549231 [Eh]
	 Correlation Energy        =      -1.2566043104058080 [Eh]
	 Total Energy              =    -629.3361209647085843 [Eh]

	 ================> DF-SCS-MP2 Energies <==================
	-----------------------------------------------------------
	 SCS Same-Spin Scale       =       0.3333333333333333 [-]
	 SCS Opposite-Spin Scale   =       1.2000000000000000 [-]
	 SCS Same-Spin Energy      =      -0.0998564964502950 [Eh]
	 SCS Opposite-Spin Energy  =      -1.1484417852659077 [Eh]
	 SCS Correlation Energy    =      -1.2482982817162027 [Eh]
	 SCS Total Energy          =    -629.3278149360189673 [Eh]
	-----------------------------------------------------------

  Dipole Moment: [D]
     X:     5.3353      Y:     0.0272      Z:    -1.4942     Total:     5.5407

*** Psi4 exiting successfully. Buy a developer a beer!
