                               Psi4 1.4a3.dev225

  ==> Input File <==

--------------------------------------------------------------------------
#psi4
#
memory 32 gb

molecule  {
-1 1
  S       -1.9699520     0.0002960    -0.4301720
  O       -0.2287560    -0.0011680     1.6042380
  C        0.8192720     0.0003510    -0.5193240
  C        1.6340270     1.2570650    -0.2212640
  C        1.6341410    -1.2566790    -0.2229280
  C       -0.4461550    -0.0002880     0.3723060
  H        0.5101060     0.0010330    -1.5685180
  H        1.8714700     1.2810570     0.8460150
  H        2.5686810     1.2824310    -0.7973980
  H        1.0553630     2.1549570    -0.4631840
  H        1.8899340    -1.2488303     0.8403442
  H        2.5688000    -1.2811950    -0.7990910
  H        1.0555640    -2.1543050    -0.4660390
units angstrom
no_reorient  #important for SAPT in psi4, default
symmetry c1  #important for SAPT in psi4, default
}

set PROPERTIES_ORIGIN ["COM"]
properties('MP2/aug-cc-pvtz', properties = ['dipole'])
--------------------------------------------------------------------------

    Molecular point group: c1
  Charge       = -1
  Multiplicity = 1
  Basis Set: AUG-CC-PVTZ
    Blend: AUG-CC-PVTZ
  Basis Set: (AUG-CC-PVTZ AUX)
    Blend: AUG-CC-PVTZ-JKFIT

    Orbital Energies [Eh]
    ---------------------

    Doubly Occupied:

       1A    -91.704099     2A    -20.344148     3A    -11.158827
       4A    -11.082653     5A    -11.082451     6A    -11.081546
       7A     -8.706533     8A     -6.388060     9A     -6.386604
      10A     -6.386113    11A     -1.172193    12A     -0.929581
      13A     -0.796295    14A     -0.777372    15A     -0.663503
      16A     -0.538316    17A     -0.477105    18A     -0.461218
      19A     -0.433137    20A     -0.405696    21A     -0.381781
      22A     -0.366471    23A     -0.354585    24A     -0.328340
      25A     -0.313376    26A     -0.205401    27A     -0.142279
      28A     -0.131610

  @DF-RHF Final Energy:  -628.08056913044777

   => Energetics <=

    Nuclear Repulsion Energy =            283.6399551263282319
    One-Electron Energy =               -1437.0424626026449459
    Two-Electron Energy =                 525.3219383458689435
    Total Energy =                       -628.0805691304477705
  Basis Set: (AUG-CC-PVTZ AUX)
    Blend: AUG-CC-PVTZ-RI
    Molecular point group: c1

    Geometry (in Angstrom), charge = -1, multiplicity = 1:

       Center              X                  Y                   Z               Mass
    ------------   -----------------  -----------------  -----------------  -----------------
         S           -1.859908292719    -0.000010657587    -0.453321745724    31.972071174400
         O           -0.118712292719    -0.001474657587     1.581088254276    15.994914619570
         C            0.929315707281     0.000044342413    -0.542473745724    12.000000000000
         C            1.744070707281     1.256758342413    -0.244413745724    12.000000000000
         C            1.744184707281    -1.256985657587    -0.246077745724    12.000000000000
         C           -0.336111292719    -0.000594657587     0.349156254276    12.000000000000
         H            0.620149707281     0.000726342413    -1.591667745724     1.007825032230
         H            1.981513707281     1.280750342413     0.822865254276     1.007825032230
         H            2.678724707281     1.282124342413    -0.820547745724     1.007825032230
         H            1.165406707281     2.154650342413    -0.486333745724     1.007825032230
         H            1.999977707281    -1.249136957587     0.817194454276     1.007825032230
         H            2.678843707281    -1.281501657587    -0.822240745724     1.007825032230
         H            1.165607707281    -2.154611657587    -0.489188745724     1.007825032230

  Basis Set: AUG-CC-PVTZ
    Blend: AUG-CC-PVTZ
  Basis Set: (AUG-CC-PVTZ AUX)
    Blend: AUG-CC-PVTZ-JKFIT
	 Reference Energy          =    -628.0805691304477705 [Eh]
	 Singles Energy            =      -0.0000000000000000 [Eh]
	 Same-Spin Energy          =      -0.2994685943928257 [Eh]
	 Opposite-Spin Energy      =      -0.9568848693246934 [Eh]
	 Correlation Energy        =      -1.2563534637175191 [Eh]
	 Total Energy              =    -629.3369225941653440 [Eh]

	 ================> DF-SCS-MP2 Energies <==================
	-----------------------------------------------------------
	 SCS Same-Spin Scale       =       0.3333333333333333 [-]
	 SCS Opposite-Spin Scale   =       1.2000000000000000 [-]
	 SCS Same-Spin Energy      =      -0.0998228647976086 [Eh]
	 SCS Opposite-Spin Energy  =      -1.1482618431896321 [Eh]
	 SCS Correlation Energy    =      -1.2480847079872406 [Eh]
	 SCS Total Energy          =    -629.3286538384350024 [Eh]
	-----------------------------------------------------------

  Dipole Moment: [D]
     X:     5.3309      Y:     0.0107      Z:    -1.5226     Total:     5.5441

*** Psi4 exiting successfully. Buy a developer a beer!
