                               Psi4 1.4a3.dev225

  ==> Input File <==

--------------------------------------------------------------------------
#psi4
#
memory 32 gb

molecule  {
-1 1
  S       -1.9699520     0.0002960    -0.4301720
  O       -0.2287560    -0.0011680     1.6042380
  C        0.8192720     0.0003510    -0.5193240
  C        1.6393383     1.2405384    -0.1708672
  C        1.6341410    -1.2566790    -0.2229280
  C       -0.4461550    -0.0002880     0.3723060
  H        0.5101060     0.0010330    -1.5685180
  H        1.8714700     1.2810570     0.8460150
  H        2.5686810     1.2824310    -0.7973980
  H        1.0553630     2.1549570    -0.4631840
  H        1.8715790    -1.2820640     0.8443200
  H        2.5688000    -1.2811950    -0.7990910
  H        1.0555640    -2.1543050    -0.4660390
units angstrom
no_reorient  #important for SAPT in psi4, default
symmetry c1  #important for SAPT in psi4, default
}

set PROPERTIES_ORIGIN ["COM"]
properties('MP2/aug-cc-pvtz', properties = ['dipole'])
--------------------------------------------------------------------------

    Molecular point group: c1
  Charge       = -1
  Multiplicity = 1
  Basis Set: AUG-CC-PVTZ
    Blend: AUG-CC-PVTZ
  Basis Set: (AUG-CC-PVTZ AUX)
    Blend: AUG-CC-PVTZ-JKFIT

    Orbital Energies [Eh]
    ---------------------

    Doubly Occupied:

       1A    -91.704152     2A    -20.344061     3A    -11.158774
       4A    -11.083195     5A    -11.082442     6A    -11.081845
       7A     -8.706588     8A     -6.388115     9A     -6.386661
      10A     -6.386170    11A     -1.172385    12A     -0.930045
      13A     -0.796006    14A     -0.777633    15A     -0.664197
      16A     -0.540285    17A     -0.475982    18A     -0.459758
      19A     -0.429602    20A     -0.414812    21A     -0.379082
      22A     -0.367516    23A     -0.349261    24A     -0.333832
      25A     -0.311458    26A     -0.205132    27A     -0.142406
      28A     -0.131712

  @DF-RHF Final Energy:  -628.07764265360629

   => Energetics <=

    Nuclear Repulsion Energy =            283.8187041121408924
    One-Electron Energy =               -1437.3864768525988893
    Two-Electron Energy =                 525.4901300868516500
    Total Energy =                       -628.0776426536062900
  Basis Set: (AUG-CC-PVTZ AUX)
    Blend: AUG-CC-PVTZ-RI
    Molecular point group: c1

    Geometry (in Angstrom), charge = -1, multiplicity = 1:

       Center              X                  Y                   Z               Mass
    ------------   -----------------  -----------------  -----------------  -----------------
         S           -1.860347393847     0.002239478233    -0.459230871182    31.972071174400
         O           -0.119151393847     0.000775478233     1.575179128818    15.994914619570
         C            0.928876606153     0.002294478233    -0.548382871182    12.000000000000
         C            1.748942906153     1.242481878233    -0.199926071182    12.000000000000
         C            1.743745606153    -1.254735521767    -0.251986871182    12.000000000000
         C           -0.336550393847     0.001655478233     0.343247128818    12.000000000000
         H            0.619710606153     0.002976478233    -1.597576871182     1.007825032230
         H            1.981074606153     1.283000478233     0.816956128818     1.007825032230
         H            2.678285606153     1.284374478233    -0.826456871182     1.007825032230
         H            1.164967606153     2.156900478233    -0.492242871182     1.007825032230
         H            1.981183606153    -1.280120521767     0.815261128818     1.007825032230
         H            2.678404606153    -1.279251521767    -0.828149871182     1.007825032230
         H            1.165168606153    -2.152361521767    -0.495097871182     1.007825032230

  Basis Set: AUG-CC-PVTZ
    Blend: AUG-CC-PVTZ
  Basis Set: (AUG-CC-PVTZ AUX)
    Blend: AUG-CC-PVTZ-JKFIT
	 Reference Energy          =    -628.0776426536062900 [Eh]
	 Singles Energy            =      -0.0000000000000000 [Eh]
	 Same-Spin Energy          =      -0.2994510262211642 [Eh]
	 Opposite-Spin Energy      =      -0.9569304797161038 [Eh]
	 Correlation Energy        =      -1.2563815059372678 [Eh]
	 Total Energy              =    -629.3340241595435600 [Eh]

	 ================> DF-SCS-MP2 Energies <==================
	-----------------------------------------------------------
	 SCS Same-Spin Scale       =       0.3333333333333333 [-]
	 SCS Opposite-Spin Scale   =       1.2000000000000000 [-]
	 SCS Same-Spin Energy      =      -0.0998170087403880 [Eh]
	 SCS Opposite-Spin Energy  =      -1.1483165756593245 [Eh]
	 SCS Correlation Energy    =      -1.2481335843997126 [Eh]
	 SCS Total Energy          =    -629.3257762380060285 [Eh]
	-----------------------------------------------------------

  Dipole Moment: [D]
     X:     5.3250      Y:    -0.0148      Z:    -1.4680     Total:     5.5237

*** Psi4 exiting successfully. Buy a developer a beer!
