                               Psi4 1.4a3.dev225

  ==> Input File <==

--------------------------------------------------------------------------
#psi4
#
memory 32 gb

molecule  {
-1 1
  S       -1.9699520     0.0002960    -0.4301720
  O       -0.2287560    -0.0011680     1.6042380
  C        0.8192720     0.0003510    -0.5193240
  C        1.6340270     1.2570650    -0.2212640
  C        1.6341410    -1.2566790    -0.2229280
  C       -0.4461550    -0.0002880     0.3723060
  H        0.5101060     0.0010330    -1.5685180
  H        1.8714700     1.2810570     0.8460150
  H        2.5686810     1.2824310    -0.7973980
  H        1.0553630     2.1549570    -0.4631840
  H        1.9079774    -1.2156062     0.8350730
  H        2.5688000    -1.2811950    -0.7990910
  H        1.0555640    -2.1543050    -0.4660390
units angstrom
no_reorient  #important for SAPT in psi4, default
symmetry c1  #important for SAPT in psi4, default
}

set PROPERTIES_ORIGIN ["COM"]
properties('MP2/aug-cc-pvtz', properties = ['dipole'])
--------------------------------------------------------------------------

    Molecular point group: c1
  Charge       = -1
  Multiplicity = 1
  Basis Set: AUG-CC-PVTZ
    Blend: AUG-CC-PVTZ
  Basis Set: (AUG-CC-PVTZ AUX)
    Blend: AUG-CC-PVTZ-JKFIT

    Orbital Energies [Eh]
    ---------------------

    Doubly Occupied:

       1A    -91.704090     2A    -20.344159     3A    -11.158793
       4A    -11.082699     5A    -11.082539     6A    -11.081410
       7A     -8.706523     8A     -6.388051     9A     -6.386595
      10A     -6.386104    11A     -1.172191    12A     -0.929817
      13A     -0.796178    14A     -0.777417    15A     -0.663384
      16A     -0.538014    17A     -0.478455    18A     -0.460884
      19A     -0.433540    20A     -0.405354    21A     -0.381875
      22A     -0.366539    23A     -0.354203    24A     -0.327966
      25A     -0.313468    26A     -0.205386    27A     -0.142270
      28A     -0.131590

  @DF-RHF Final Energy:  -628.08008426398578

   => Energetics <=

    Nuclear Repulsion Energy =            283.6645414750485656
    One-Electron Energy =               -1437.0902615143177172
    Two-Electron Energy =                 525.3456357752834265
    Total Energy =                       -628.0800842639857819
  Basis Set: (AUG-CC-PVTZ AUX)
    Blend: AUG-CC-PVTZ-RI
    Molecular point group: c1

    Geometry (in Angstrom), charge = -1, multiplicity = 1:

       Center              X                  Y                   Z               Mass
    ------------   -----------------  -----------------  -----------------  -----------------
         S           -1.860084804846    -0.000335677072    -0.453270179460    31.972071174400
         O           -0.118888804846    -0.001799677072     1.581139820540    15.994914619570
         C            0.929139195154    -0.000280677072    -0.542422179460    12.000000000000
         C            1.743894195154     1.256433322928    -0.244362179460    12.000000000000
         C            1.744008195154    -1.257310677072    -0.246026179460    12.000000000000
         C           -0.336287804846    -0.000919677072     0.349207820540    12.000000000000
         H            0.619973195154     0.000401322928    -1.591616179460     1.007825032230
         H            1.981337195154     1.280425322928     0.822916820540     1.007825032230
         H            2.678548195154     1.281799322928    -0.820496179460     1.007825032230
         H            1.165230195154     2.154325322928    -0.486282179460     1.007825032230
         H            2.017844595154    -1.216237877072     0.811974820540     1.007825032230
         H            2.678667195154    -1.281826677072    -0.822189179460     1.007825032230
         H            1.165431195154    -2.154936677072    -0.489137179460     1.007825032230

  Basis Set: AUG-CC-PVTZ
    Blend: AUG-CC-PVTZ
  Basis Set: (AUG-CC-PVTZ AUX)
    Blend: AUG-CC-PVTZ-JKFIT
	 Reference Energy          =    -628.0800842639857819 [Eh]
	 Singles Energy            =      -0.0000000000000000 [Eh]
	 Same-Spin Energy          =      -0.2995127084918072 [Eh]
	 Opposite-Spin Energy      =      -0.9569483740288754 [Eh]
	 Correlation Energy        =      -1.2564610825206826 [Eh]
	 Total Energy              =    -629.3365453465064547 [Eh]

	 ================> DF-SCS-MP2 Energies <==================
	-----------------------------------------------------------
	 SCS Same-Spin Scale       =       0.3333333333333333 [-]
	 SCS Opposite-Spin Scale   =       1.2000000000000000 [-]
	 SCS Same-Spin Energy      =      -0.0998375694972691 [Eh]
	 SCS Opposite-Spin Energy  =      -1.1483380488346504 [Eh]
	 SCS Correlation Energy    =      -1.2481756183319195 [Eh]
	 SCS Total Energy          =    -629.3282598823177523 [Eh]
	-----------------------------------------------------------

  Dipole Moment: [D]
     X:     5.3348      Y:     0.0201      Z:    -1.5285     Total:     5.5495

*** Psi4 exiting successfully. Buy a developer a beer!
