                               Psi4 1.4a3.dev225

  ==> Input File <==

--------------------------------------------------------------------------
#psi4
#
memory 32 gb

molecule  {
-1 1
  S       -1.9699520     0.0002960    -0.4301720
  O       -0.2287560    -0.0011680     1.6042380
  C        0.8192720     0.0003510    -0.5193240
  C        1.6340270     1.2570650    -0.2212640
  C        1.6158594    -1.2640143    -0.2049746
  C       -0.4461550    -0.0002880     0.3723060
  H        0.5101060     0.0010330    -1.5685180
  H        1.8714700     1.2810570     0.8460150
  H        2.5686810     1.2824310    -0.7973980
  H        1.0553630     2.1549570    -0.4631840
  H        1.8715790    -1.2820640     0.8443200
  H        2.5688000    -1.2811950    -0.7990910
  H        1.0555640    -2.1543050    -0.4660390
units angstrom
no_reorient  #important for SAPT in psi4, default
symmetry c1  #important for SAPT in psi4, default
}

set PROPERTIES_ORIGIN ["COM"]
properties('MP2/aug-cc-pvtz', properties = ['dipole'])
--------------------------------------------------------------------------

    Molecular point group: c1
  Charge       = -1
  Multiplicity = 1
  Basis Set: AUG-CC-PVTZ
    Blend: AUG-CC-PVTZ
  Basis Set: (AUG-CC-PVTZ AUX)
    Blend: AUG-CC-PVTZ-JKFIT

    Orbital Energies [Eh]
    ---------------------

    Doubly Occupied:

       1A    -91.703995     2A    -20.343954     3A    -11.158573
       4A    -11.082905     5A    -11.082674     6A    -11.081863
       7A     -8.706434     8A     -6.387961     9A     -6.386506
      10A     -6.386016    11A     -1.172182    12A     -0.929415
      13A     -0.797059    14A     -0.777107    15A     -0.663489
      16A     -0.538760    17A     -0.477735    18A     -0.461023
      19A     -0.430819    20A     -0.408101    21A     -0.379103
      22A     -0.365923    23A     -0.356315    24A     -0.330288
      25A     -0.313298    26A     -0.204908    27A     -0.142268
      28A     -0.131462

  @DF-RHF Final Energy:  -628.08014276878657

   => Energetics <=

    Nuclear Repulsion Energy =            283.7403040486085501
    One-Electron Energy =               -1437.2406209993539505
    Two-Electron Energy =                 525.4201741819588278
    Total Energy =                       -628.0801427687865726
  Basis Set: (AUG-CC-PVTZ AUX)
    Blend: AUG-CC-PVTZ-RI
    Molecular point group: c1

    Geometry (in Angstrom), charge = -1, multiplicity = 1:

       Center              X                  Y                   Z               Mass
    ------------   -----------------  -----------------  -----------------  -----------------
         S           -1.857599287067     0.001168873354    -0.455451855990    31.972071174400
         O           -0.116403287067    -0.000295126646     1.578958144010    15.994914619570
         C            0.931624712933     0.001223873354    -0.544603855990    12.000000000000
         C            1.746379712933     1.257937873354    -0.246543855990    12.000000000000
         C            1.728212112933    -1.263141426646    -0.230254455990    12.000000000000
         C           -0.333802287067     0.000584873354     0.347026144010    12.000000000000
         H            0.622458712933     0.001905873354    -1.593797855990     1.007825032230
         H            1.983822712933     1.281929873354     0.820735144010     1.007825032230
         H            2.681033712933     1.283303873354    -0.822677855990     1.007825032230
         H            1.167715712933     2.155829873354    -0.488463855990     1.007825032230
         H            1.983931712933    -1.281191126646     0.819040144010     1.007825032230
         H            2.681152712933    -1.280322126646    -0.824370855990     1.007825032230
         H            1.167916712933    -2.153432126646    -0.491318855990     1.007825032230

  Basis Set: AUG-CC-PVTZ
    Blend: AUG-CC-PVTZ
  Basis Set: (AUG-CC-PVTZ AUX)
    Blend: AUG-CC-PVTZ-JKFIT
	 Reference Energy          =    -628.0801427687865726 [Eh]
	 Singles Energy            =      -0.0000000000000000 [Eh]
	 Same-Spin Energy          =      -0.2994259234620124 [Eh]
	 Opposite-Spin Energy      =      -0.9568228796182909 [Eh]
	 Correlation Energy        =      -1.2562488030803034 [Eh]
	 Total Energy              =    -629.3363915718668977 [Eh]

	 ================> DF-SCS-MP2 Energies <==================
	-----------------------------------------------------------
	 SCS Same-Spin Scale       =       0.3333333333333333 [-]
	 SCS Opposite-Spin Scale   =       1.2000000000000000 [-]
	 SCS Same-Spin Energy      =      -0.0998086411540041 [Eh]
	 SCS Opposite-Spin Energy  =      -1.1481874555419491 [Eh]
	 SCS Correlation Energy    =      -1.2479960966959531 [Eh]
	 SCS Total Energy          =    -629.3281388654825150 [Eh]
	-----------------------------------------------------------

  Dipole Moment: [D]
     X:     5.3089      Y:    -0.0015      Z:    -1.4944     Total:     5.5152

*** Psi4 exiting successfully. Buy a developer a beer!
