                               Psi4 1.4a3.dev225

  ==> Input File <==

--------------------------------------------------------------------------
#psi4
#
memory 32 gb

molecule  {
-1 1
  S       -1.9699520     0.0002960    -0.4301720
  O       -0.2287560    -0.0011680     1.6042380
  C        0.8192720     0.0003510    -0.5193240
  C        1.6340270     1.2570650    -0.2212640
  C        1.5973352    -1.2709644    -0.1871170
  C       -0.4461550    -0.0002880     0.3723060
  H        0.5101060     0.0010330    -1.5685180
  H        1.8714700     1.2810570     0.8460150
  H        2.5686810     1.2824310    -0.7973980
  H        1.0553630     2.1549570    -0.4631840
  H        1.8715790    -1.2820640     0.8443200
  H        2.5688000    -1.2811950    -0.7990910
  H        1.0555640    -2.1543050    -0.4660390
units angstrom
no_reorient  #important for SAPT in psi4, default
symmetry c1  #important for SAPT in psi4, default
}

set PROPERTIES_ORIGIN ["COM"]
properties('MP2/aug-cc-pvtz', properties = ['dipole'])
--------------------------------------------------------------------------

    Molecular point group: c1
  Charge       = -1
  Multiplicity = 1
  Basis Set: AUG-CC-PVTZ
    Blend: AUG-CC-PVTZ
  Basis Set: (AUG-CC-PVTZ AUX)
    Blend: AUG-CC-PVTZ-JKFIT

    Orbital Energies [Eh]
    ---------------------

    Doubly Occupied:

       1A    -91.703924     2A    -20.343822     3A    -11.158349
       4A    -11.083398     5A    -11.083040     6A    -11.082158
       7A     -8.706366     8A     -6.387894     9A     -6.386439
      10A     -6.385949    11A     -1.172232    12A     -0.929552
      13A     -0.797808    14A     -0.776949    15A     -0.663537
      16A     -0.538914    17A     -0.480055    18A     -0.460444
      19A     -0.430245    20A     -0.409631    21A     -0.376884
      22A     -0.364890    23A     -0.357100    24A     -0.331838
      25A     -0.313145    26A     -0.204431    27A     -0.142289
      28A     -0.131331

  @DF-RHF Final Energy:  -628.07811646668824

   => Energetics <=

    Nuclear Repulsion Energy =            283.8687494288623157
    One-Electron Energy =               -1437.4885069337892674
    Two-Electron Energy =                 525.5416410382385948
    Total Energy =                       -628.0781164666882432
  Basis Set: (AUG-CC-PVTZ AUX)
    Blend: AUG-CC-PVTZ-RI
    Molecular point group: c1

    Geometry (in Angstrom), charge = -1, multiplicity = 1:

       Center              X                  Y                   Z               Mass
    ------------   -----------------  -----------------  -----------------  -----------------
         S           -1.855441583706     0.001978422707    -0.457531913619    31.972071174400
         O           -0.114245583706     0.000514422707     1.576878086381    15.994914619570
         C            0.933782416294     0.002033422707    -0.546683913619    12.000000000000
         C            1.748537416294     1.258747422707    -0.248623913619    12.000000000000
         C            1.711845616294    -1.269281977293    -0.214476913619    12.000000000000
         C           -0.331644583706     0.001394422707     0.344946086381    12.000000000000
         H            0.624616416294     0.002715422707    -1.595877913619     1.007825032230
         H            1.985980416294     1.282739422707     0.818655086381     1.007825032230
         H            2.683191416294     1.284113422707    -0.824757913619     1.007825032230
         H            1.169873416294     2.156639422707    -0.490543913619     1.007825032230
         H            1.986089416294    -1.280381577293     0.816960086381     1.007825032230
         H            2.683310416294    -1.279512577293    -0.826450913619     1.007825032230
         H            1.170074416294    -2.152622577293    -0.493398913619     1.007825032230

  Basis Set: AUG-CC-PVTZ
    Blend: AUG-CC-PVTZ
  Basis Set: (AUG-CC-PVTZ AUX)
    Blend: AUG-CC-PVTZ-JKFIT
	 Reference Energy          =    -628.0781164666882432 [Eh]
	 Singles Energy            =      -0.0000000000000000 [Eh]
	 Same-Spin Energy          =      -0.2994383920305483 [Eh]
	 Opposite-Spin Energy      =      -0.9568726222238748 [Eh]
	 Correlation Energy        =      -1.2563110142544232 [Eh]
	 Total Energy              =    -629.3344274809426224 [Eh]

	 ================> DF-SCS-MP2 Energies <==================
	-----------------------------------------------------------
	 SCS Same-Spin Scale       =       0.3333333333333333 [-]
	 SCS Opposite-Spin Scale   =       1.2000000000000000 [-]
	 SCS Same-Spin Energy      =      -0.0998127973435161 [Eh]
	 SCS Opposite-Spin Energy  =      -1.1482471466686497 [Eh]
	 SCS Correlation Energy    =      -1.2480599440121658 [Eh]
	 SCS Total Energy          =    -629.3261764107004410 [Eh]
	-----------------------------------------------------------

  Dipole Moment: [D]
     X:     5.2862      Y:    -0.0016      Z:    -1.4703     Total:     5.4869

*** Psi4 exiting successfully. Buy a developer a beer!
