                               Psi4 1.4a3.dev225

  ==> Input File <==

--------------------------------------------------------------------------
#psi4
#
memory 32 gb

molecule  {
-1 1
  S       -1.9699520     0.0002960    -0.4301720
  O       -0.2287560    -0.0011680     1.6042380
  C        0.8192720     0.0003510    -0.5193240
  C        1.6340270     1.2570650    -0.2212640
  C        1.6341410    -1.2566790    -0.2229280
  C       -0.4461550    -0.0002880     0.3723060
  H        0.5101060     0.0010330    -1.5685180
  H        1.8714700     1.2810570     0.8460150
  H        2.5686810     1.2824310    -0.7973980
  H        1.0553630     2.1549570    -0.4631840
  H        1.8715790    -1.2820640     0.8443200
  H        2.5688000    -1.2811950    -0.7990910
  H        0.9499126    -2.3182166    -0.5104324
units angstrom
no_reorient  #important for SAPT in psi4, default
symmetry c1  #important for SAPT in psi4, default
}

set PROPERTIES_ORIGIN ["COM"]
properties('MP2/aug-cc-pvtz', properties = ['dipole'])
--------------------------------------------------------------------------

    Molecular point group: c1
  Charge       = -1
  Multiplicity = 1
  Basis Set: AUG-CC-PVTZ
    Blend: AUG-CC-PVTZ
  Basis Set: (AUG-CC-PVTZ AUX)
    Blend: AUG-CC-PVTZ-JKFIT

    Orbital Energies [Eh]
    ---------------------

    Doubly Occupied:

       1A    -91.704296     2A    -20.344796     3A    -11.159726
       4A    -11.106358     5A    -11.085304     6A    -11.084595
       7A     -8.706725     8A     -6.388254     9A     -6.386793
      10A     -6.386304    11A     -1.172877    12A     -0.929307
      13A     -0.789331    14A     -0.776490    15A     -0.661955
      16A     -0.540108    17A     -0.472140    18A     -0.454848
      19A     -0.430740    20A     -0.406504    21A     -0.381149
      22A     -0.367608    23A     -0.341055    24A     -0.327870
      25A     -0.311973    26A     -0.206213    27A     -0.142443
      28A     -0.131903

  @DF-RHF Final Energy:  -628.06112394021943

   => Energetics <=

    Nuclear Repulsion Energy =            282.8641528086818084
    One-Electron Energy =               -1435.4552247080562211
    Two-Electron Energy =                 524.5299479591549243
    Total Energy =                       -628.0611239402194315
  Basis Set: (AUG-CC-PVTZ AUX)
    Blend: AUG-CC-PVTZ-RI
    Molecular point group: c1

    Geometry (in Angstrom), charge = -1, multiplicity = 1:

       Center              X                  Y                   Z               Mass
    ------------   -----------------  -----------------  -----------------  -----------------
         S           -1.858695182471     0.001917944354    -0.452926354802    31.972071174400
         O           -0.117499182471     0.000453944354     1.581483645198    15.994914619570
         C            0.930528817529     0.001972944354    -0.542078354802    12.000000000000
         C            1.745283817529     1.258686944354    -0.244018354802    12.000000000000
         C            1.745397817529    -1.255057055646    -0.245682354802    12.000000000000
         C           -0.334898182471     0.001333944354     0.349551645198    12.000000000000
         H            0.621362817529     0.002654944354    -1.591272354802     1.007825032230
         H            1.982726817529     1.282678944354     0.823260645198     1.007825032230
         H            2.679937817529     1.284052944354    -0.820152354802     1.007825032230
         H            1.166619817529     2.156578944354    -0.485938354802     1.007825032230
         H            1.982835817529    -1.280442055646     0.821565645198     1.007825032230
         H            2.680056817529    -1.279573055646    -0.821845354802     1.007825032230
         H            1.061169417529    -2.316594655646    -0.533186754802     1.007825032230

  Basis Set: AUG-CC-PVTZ
    Blend: AUG-CC-PVTZ
  Basis Set: (AUG-CC-PVTZ AUX)
    Blend: AUG-CC-PVTZ-JKFIT
	 Reference Energy          =    -628.0611239402194315 [Eh]
	 Singles Energy            =      -0.0000000000000000 [Eh]
	 Same-Spin Energy          =      -0.2994156822812170 [Eh]
	 Opposite-Spin Energy      =      -0.9583754020733827 [Eh]
	 Correlation Energy        =      -1.2577910843545996 [Eh]
	 Total Energy              =    -629.3189150245740393 [Eh]

	 ================> DF-SCS-MP2 Energies <==================
	-----------------------------------------------------------
	 SCS Same-Spin Scale       =       0.3333333333333333 [-]
	 SCS Opposite-Spin Scale   =       1.2000000000000000 [-]
	 SCS Same-Spin Energy      =      -0.0998052274270723 [Eh]
	 SCS Opposite-Spin Energy  =      -1.1500504824880591 [Eh]
	 SCS Correlation Energy    =      -1.2498557099151315 [Eh]
	 SCS Total Energy          =    -629.3109796501345272 [Eh]
	-----------------------------------------------------------

  Dipole Moment: [D]
     X:     5.3511      Y:     0.1996      Z:    -1.4845     Total:     5.5568

*** Psi4 exiting successfully. Buy a developer a beer!
