                               Psi4 1.4a3.dev225

  ==> Input File <==

--------------------------------------------------------------------------
#psi4
#
memory 32 gb

molecule  {
-1 1
  S       -1.9699520     0.0002960    -0.4301720
  O       -0.2287560    -0.0011680     1.6042380
  C        0.8192720     0.0003510    -0.5193240
  C        1.6340270     1.2570650    -0.2212640
  C        1.6341410    -1.2566790    -0.2229280
  C       -0.4461550    -0.0002880     0.3723060
  H        0.5101060     0.0010330    -1.5685180
  H        1.8714700     1.2810570     0.8460150
  H        2.5686810     1.2824310    -0.7973980
  H        1.0447963     2.1713530    -0.4676016
  H        1.8715790    -1.2820640     0.8443200
  H        2.5688000    -1.2811950    -0.7990910
  H        1.0555640    -2.1543050    -0.4660390
units angstrom
no_reorient  #important for SAPT in psi4, default
symmetry c1  #important for SAPT in psi4, default
}

set PROPERTIES_ORIGIN ["COM"]
properties('MP2/aug-cc-pvtz', properties = ['dipole'])
--------------------------------------------------------------------------

    Molecular point group: c1
  Charge       = -1
  Multiplicity = 1
  Basis Set: AUG-CC-PVTZ
    Blend: AUG-CC-PVTZ
  Basis Set: (AUG-CC-PVTZ AUX)
    Blend: AUG-CC-PVTZ-JKFIT

    Orbital Energies [Eh]
    ---------------------

    Doubly Occupied:

       1A    -91.704120     2A    -20.344186     3A    -11.158928
       4A    -11.084923     5A    -11.082748     6A    -11.081990
       7A     -8.706554     8A     -6.388081     9A     -6.386625
      10A     -6.386134    11A     -1.172245    12A     -0.929202
      13A     -0.795283    14A     -0.777261    15A     -0.663337
      16A     -0.538719    17A     -0.474855    18A     -0.460921
      19A     -0.432588    20A     -0.405891    21A     -0.381513
      22A     -0.366532    23A     -0.353714    24A     -0.328633
      25A     -0.313252    26A     -0.205475    27A     -0.142298
      28A     -0.131648

  @DF-RHF Final Energy:  -628.08026454910373

   => Energetics <=

    Nuclear Repulsion Energy =            283.5333793101353308
    One-Electron Energy =               -1436.8319813308226003
    Two-Electron Energy =                 525.2183374715834816
    Total Energy =                       -628.0802645491037310
  Basis Set: (AUG-CC-PVTZ AUX)
    Blend: AUG-CC-PVTZ-RI
    Molecular point group: c1

    Geometry (in Angstrom), charge = -1, multiplicity = 1:

       Center              X                  Y                   Z               Mass
    ------------   -----------------  -----------------  -----------------  -----------------
         S           -1.859625362074     0.000154059608    -0.453317423752    31.972071174400
         O           -0.118429362074    -0.001309940392     1.581092576248    15.994914619570
         C            0.929598637926     0.000209059608    -0.542469423752    12.000000000000
         C            1.744353637926     1.256923059608    -0.244409423752    12.000000000000
         C            1.744467637926    -1.256820940392    -0.246073423752    12.000000000000
         C           -0.335828362074    -0.000429940392     0.349160576248    12.000000000000
         H            0.620432637926     0.000891059608    -1.591663423752     1.007825032230
         H            1.981796637926     1.280915059608     0.822869576248     1.007825032230
         H            2.679007637926     1.282289059608    -0.820543423752     1.007825032230
         H            1.155122937926     2.171211059608    -0.490747023752     1.007825032230
         H            1.981905637926    -1.282205940392     0.821174576248     1.007825032230
         H            2.679126637926    -1.281336940392    -0.822236423752     1.007825032230
         H            1.165890637926    -2.154446940392    -0.489184423752     1.007825032230

  Basis Set: AUG-CC-PVTZ
    Blend: AUG-CC-PVTZ
  Basis Set: (AUG-CC-PVTZ AUX)
    Blend: AUG-CC-PVTZ-JKFIT
	 Reference Energy          =    -628.0802645491037310 [Eh]
	 Singles Energy            =      -0.0000000000000000 [Eh]
	 Same-Spin Energy          =      -0.2994363498684332 [Eh]
	 Opposite-Spin Energy      =      -0.9569672409654515 [Eh]
	 Correlation Energy        =      -1.2564035908338846 [Eh]
	 Total Energy              =    -629.3366681399376148 [Eh]

	 ================> DF-SCS-MP2 Energies <==================
	-----------------------------------------------------------
	 SCS Same-Spin Scale       =       0.3333333333333333 [-]
	 SCS Opposite-Spin Scale   =       1.2000000000000000 [-]
	 SCS Same-Spin Energy      =      -0.0998121166228111 [Eh]
	 SCS Opposite-Spin Energy  =      -1.1483606891585418 [Eh]
	 SCS Correlation Energy    =      -1.2481728057813528 [Eh]
	 SCS Total Energy          =    -629.3284373548850681 [Eh]
	-----------------------------------------------------------

  Dipole Moment: [D]
     X:     5.3283      Y:    -0.0153      Z:    -1.5146     Total:     5.5394

*** Psi4 exiting successfully. Buy a developer a beer!
