                               Psi4 1.4a3.dev225

  ==> Input File <==

--------------------------------------------------------------------------
#psi4
#
memory 32 gb

molecule  {
-1 1
  S       -1.9699520     0.0002960    -0.4301720
  O       -0.2287560    -0.0011680     1.6042380
  C        0.8192720     0.0003510    -0.5193240
  C        1.6340270     1.2570650    -0.2212640
  C        1.6341410    -1.2566790    -0.2229280
  C       -0.4461550    -0.0002880     0.3723060
  H        0.5157591     0.0010205    -1.5493336
  H        1.8714700     1.2810570     0.8460150
  H        2.5686810     1.2824310    -0.7973980
  H        1.0553630     2.1549570    -0.4631840
  H        1.8715790    -1.2820640     0.8443200
  H        2.5688000    -1.2811950    -0.7990910
  H        1.0555640    -2.1543050    -0.4660390
units angstrom
no_reorient  #important for SAPT in psi4, default
symmetry c1  #important for SAPT in psi4, default
}

set PROPERTIES_ORIGIN ["COM"]
properties('MP2/aug-cc-pvtz', properties = ['dipole'])
--------------------------------------------------------------------------

    Molecular point group: c1
  Charge       = -1
  Multiplicity = 1
  Basis Set: AUG-CC-PVTZ
    Blend: AUG-CC-PVTZ
  Basis Set: (AUG-CC-PVTZ AUX)
    Blend: AUG-CC-PVTZ-JKFIT

    Orbital Energies [Eh]
    ---------------------

    Doubly Occupied:

       1A    -91.704165     2A    -20.343955     3A    -11.158662
       4A    -11.082255     5A    -11.082197     6A    -11.079385
       7A     -8.706597     8A     -6.388125     9A     -6.386668
      10A     -6.386179    11A     -1.172019    12A     -0.930113
      13A     -0.796303    14A     -0.777407    15A     -0.664897
      16A     -0.540518    17A     -0.476180    18A     -0.461533
      19A     -0.432629    20A     -0.405793    21A     -0.381567
      22A     -0.366581    23A     -0.354739    24A     -0.330697
      25A     -0.313048    26A     -0.205282    27A     -0.142306
      28A     -0.131754

  @DF-RHF Final Energy:  -628.08086395001544

   => Energetics <=

    Nuclear Repulsion Energy =            283.7163732140836601
    One-Electron Energy =               -1437.1913654478937588
    Two-Electron Energy =                 525.3941282837946574
    Total Energy =                       -628.0808639500154413
  Basis Set: (AUG-CC-PVTZ AUX)
    Blend: AUG-CC-PVTZ-RI
    Molecular point group: c1

    Geometry (in Angstrom), charge = -1, multiplicity = 1:

       Center              X                  Y                   Z               Mass
    ------------   -----------------  -----------------  -----------------  -----------------
         S           -1.859784034575     0.000314578094    -0.453548313675    31.972071174400
         O           -0.118588034575    -0.001149421906     1.580861686325    15.994914619570
         C            0.929439965425     0.000369578094    -0.542700313675    12.000000000000
         C            1.744194965425     1.257083578094    -0.244640313675    12.000000000000
         C            1.744308965425    -1.256660421906    -0.246304313675    12.000000000000
         C           -0.335987034575    -0.000269421906     0.348929686325    12.000000000000
         H            0.625927065425     0.001039078094    -1.572709913675     1.007825032230
         H            1.981637965425     1.281075578094     0.822638686325     1.007825032230
         H            2.678848965425     1.282449578094    -0.820774313675     1.007825032230
         H            1.165530965425     2.154975578094    -0.486560313675     1.007825032230
         H            1.981746965425    -1.282045421906     0.820943686325     1.007825032230
         H            2.678967965425    -1.281176421906    -0.822467313675     1.007825032230
         H            1.165731965425    -2.154286421906    -0.489415313675     1.007825032230

  Basis Set: AUG-CC-PVTZ
    Blend: AUG-CC-PVTZ
  Basis Set: (AUG-CC-PVTZ AUX)
    Blend: AUG-CC-PVTZ-JKFIT
	 Reference Energy          =    -628.0808639500154413 [Eh]
	 Singles Energy            =      -0.0000000000000000 [Eh]
	 Same-Spin Energy          =      -0.2994067843415461 [Eh]
	 Opposite-Spin Energy      =      -0.9566826824087804 [Eh]
	 Correlation Energy        =      -1.2560894667503266 [Eh]
	 Total Energy              =    -629.3369534167658230 [Eh]

	 ================> DF-SCS-MP2 Energies <==================
	-----------------------------------------------------------
	 SCS Same-Spin Scale       =       0.3333333333333333 [-]
	 SCS Opposite-Spin Scale   =       1.2000000000000000 [-]
	 SCS Same-Spin Energy      =      -0.0998022614471820 [Eh]
	 SCS Opposite-Spin Energy  =      -1.1480192188905365 [Eh]
	 SCS Correlation Energy    =      -1.2478214803377186 [Eh]
	 SCS Total Energy          =    -629.3286854303531754 [Eh]
	-----------------------------------------------------------

  Dipole Moment: [D]
     X:     5.3256      Y:     0.0011      Z:    -1.5262     Total:     5.5400

*** Psi4 exiting successfully. Buy a developer a beer!
