                               Psi4 1.4a3.dev225

  ==> Input File <==

--------------------------------------------------------------------------
#psi4
#
memory 32 gb

molecule  {
-1 1
  S       -1.9699520     0.0002960    -0.4301720
  O       -0.2287560    -0.0011680     1.6042380
  C        0.8192720     0.0003510    -0.5193240
  C        1.6340270     1.2570650    -0.2212640
  C        1.6341410    -1.2566790    -0.2229280
  C       -0.4461550    -0.0002880     0.3723060
  H        0.5101060     0.0010330    -1.5685180
  H        1.8714700     1.2810570     0.8460150
  H        2.5686810     1.2824310    -0.7973980
  H        1.0553630     2.1549570    -0.4631840
  H        1.8715790    -1.2820640     0.8443200
  H        2.5688000    -1.2811950    -0.7990910
  H        1.0819769    -2.1133271    -0.4549406
units angstrom
no_reorient  #important for SAPT in psi4, default
symmetry c1  #important for SAPT in psi4, default
}

set PROPERTIES_ORIGIN ["COM"]
properties('MP2/aug-cc-pvtz', properties = ['dipole'])
--------------------------------------------------------------------------

    Molecular point group: c1
  Charge       = -1
  Multiplicity = 1
  Basis Set: AUG-CC-PVTZ
    Blend: AUG-CC-PVTZ
  Basis Set: (AUG-CC-PVTZ AUX)
    Blend: AUG-CC-PVTZ-JKFIT

    Orbital Energies [Eh]
    ---------------------

    Doubly Occupied:

       1A    -91.704087     2A    -20.344025     3A    -11.158719
       4A    -11.082015     5A    -11.081272     6A    -11.075961
       7A     -8.706522     8A     -6.388049     9A     -6.386594
      10A     -6.386103    11A     -1.172086    12A     -0.930012
      13A     -0.799851    14A     -0.777497    15A     -0.664541
      16A     -0.538469    17A     -0.479372    18A     -0.463057
      19A     -0.433166    20A     -0.405959    21A     -0.382186
      22A     -0.366277    23A     -0.357481    24A     -0.328407
      25A     -0.313200    26A     -0.205279    27A     -0.142266
      28A     -0.131590

  @DF-RHF Final Energy:  -628.07976960249357

   => Energetics <=

    Nuclear Repulsion Energy =            283.8328502605909307
    One-Electron Energy =               -1437.4171595187151524
    Two-Electron Energy =                 525.5045396556306514
    Total Energy =                       -628.0797696024935703
  Basis Set: (AUG-CC-PVTZ AUX)
    Blend: AUG-CC-PVTZ-RI
    Molecular point group: c1

    Geometry (in Angstrom), charge = -1, multiplicity = 1:

       Center              X                  Y                   Z               Mass
    ------------   -----------------  -----------------  -----------------  -----------------
         S           -1.859987120272    -0.000086416325    -0.453469211230    31.972071174400
         O           -0.118791120272    -0.001550416325     1.580940788770    15.994914619570
         C            0.929236879728    -0.000031416325    -0.542621211230    12.000000000000
         C            1.743991879728     1.256682583675    -0.244561211230    12.000000000000
         C            1.744105879728    -1.257061416325    -0.246225211230    12.000000000000
         C           -0.336190120272    -0.000670416325     0.349008788770    12.000000000000
         H            0.620070879728     0.000650583675    -1.591815211230     1.007825032230
         H            1.981434879728     1.280674583675     0.822717788770     1.007825032230
         H            2.678645879728     1.282048583675    -0.820695211230     1.007825032230
         H            1.165327879728     2.154574583675    -0.486481211230     1.007825032230
         H            1.981543879728    -1.282446416325     0.821022788770     1.007825032230
         H            2.678764879728    -1.281577416325    -0.822388211230     1.007825032230
         H            1.191941779728    -2.113709516325    -0.478237811230     1.007825032230

  Basis Set: AUG-CC-PVTZ
    Blend: AUG-CC-PVTZ
  Basis Set: (AUG-CC-PVTZ AUX)
    Blend: AUG-CC-PVTZ-JKFIT
	 Reference Energy          =    -628.0797696024935703 [Eh]
	 Singles Energy            =      -0.0000000000000000 [Eh]
	 Same-Spin Energy          =      -0.2994461386351374 [Eh]
	 Opposite-Spin Energy      =      -0.9565673911923375 [Eh]
	 Correlation Energy        =      -1.2560135298274748 [Eh]
	 Total Energy              =    -629.3357831323210121 [Eh]

	 ================> DF-SCS-MP2 Energies <==================
	-----------------------------------------------------------
	 SCS Same-Spin Scale       =       0.3333333333333333 [-]
	 SCS Opposite-Spin Scale   =       1.2000000000000000 [-]
	 SCS Same-Spin Energy      =      -0.0998153795450458 [Eh]
	 SCS Opposite-Spin Energy  =      -1.1478808694308049 [Eh]
	 SCS Correlation Energy    =      -1.2476962489758507 [Eh]
	 SCS Total Energy          =    -629.3274658514694693 [Eh]
	-----------------------------------------------------------

  Dipole Moment: [D]
     X:     5.3229      Y:    -0.0367      Z:    -1.5233     Total:     5.5367

*** Psi4 exiting successfully. Buy a developer a beer!
