                               Psi4 1.4a3.dev225

  ==> Input File <==

--------------------------------------------------------------------------
#psi4
#
memory 32 gb

molecule  {
-1 1
  S       -1.9699520     0.0002960    -0.4301720
  O       -0.2287560    -0.0011680     1.6042380
  C        0.8192720     0.0003510    -0.5193240
  C        1.6340270     1.2570650    -0.2212640
  C        1.6341410    -1.2566790    -0.2229280
  C       -0.4461550    -0.0002880     0.3723060
  H        0.5101060     0.0010330    -1.5685180
  H        1.8714700     1.2810570     0.8460150
  H        2.5686810     1.2824310    -0.7973980
  H        1.0553630     2.1549570    -0.4631840
  H        1.8715790    -1.2820640     0.8443200
  H        2.5787430    -1.2478010    -0.7831069
  H        1.0555640    -2.1543050    -0.4660390
units angstrom
no_reorient  #important for SAPT in psi4, default
symmetry c1  #important for SAPT in psi4, default
}

set PROPERTIES_ORIGIN ["COM"]
properties('MP2/aug-cc-pvtz', properties = ['dipole'])
--------------------------------------------------------------------------

    Molecular point group: c1
  Charge       = -1
  Multiplicity = 1
  Basis Set: AUG-CC-PVTZ
    Blend: AUG-CC-PVTZ
  Basis Set: (AUG-CC-PVTZ AUX)
    Blend: AUG-CC-PVTZ-JKFIT

    Orbital Energies [Eh]
    ---------------------

    Doubly Occupied:

       1A    -91.704059     2A    -20.344021     3A    -11.158703
       4A    -11.082636     5A    -11.082429     6A    -11.081525
       7A     -8.706494     8A     -6.388021     9A     -6.386565
      10A     -6.386075    11A     -1.172083    12A     -0.929572
      13A     -0.796294    14A     -0.777332    15A     -0.663465
      16A     -0.538659    17A     -0.475313    18A     -0.462641
      19A     -0.433199    20A     -0.404913    21A     -0.382072
      22A     -0.366021    23A     -0.355805    24A     -0.328508
      25A     -0.312809    26A     -0.205283    27A     -0.142252
      28A     -0.131561

  @DF-RHF Final Energy:  -628.08063085448225

   => Energetics <=

    Nuclear Repulsion Energy =            283.6483670383371418
    One-Electron Energy =               -1437.0613779372520185
    Two-Electron Energy =                 525.3323800444325116
    Total Energy =                       -628.0806308544822514
  Basis Set: (AUG-CC-PVTZ AUX)
    Blend: AUG-CC-PVTZ-RI
    Molecular point group: c1

    Geometry (in Angstrom), charge = -1, multiplicity = 1:

       Center              X                  Y                   Z               Mass
    ------------   -----------------  -----------------  -----------------  -----------------
         S           -1.859826001132    -0.000012225745    -0.453517006285    31.972071174400
         O           -0.118630001132    -0.001476225745     1.580892993715    15.994914619570
         C            0.929397998868     0.000042774255    -0.542669006285    12.000000000000
         C            1.744152998868     1.256756774255    -0.244609006285    12.000000000000
         C            1.744266998868    -1.256987225745    -0.246273006285    12.000000000000
         C           -0.336029001132    -0.000596225745     0.348960993715    12.000000000000
         H            0.620231998868     0.000724774255    -1.591863006285     1.007825032230
         H            1.981595998868     1.280748774255     0.822669993715     1.007825032230
         H            2.678806998868     1.282122774255    -0.820743006285     1.007825032230
         H            1.165488998868     2.154648774255    -0.486529006285     1.007825032230
         H            1.981704998868    -1.282372225745     0.820974993715     1.007825032230
         H            2.688868998868    -1.248109225745    -0.806451906285     1.007825032230
         H            1.165689998868    -2.154613225745    -0.489384006285     1.007825032230

  Basis Set: AUG-CC-PVTZ
    Blend: AUG-CC-PVTZ
  Basis Set: (AUG-CC-PVTZ AUX)
    Blend: AUG-CC-PVTZ-JKFIT
	 Reference Energy          =    -628.0806308544822514 [Eh]
	 Singles Energy            =      -0.0000000000000000 [Eh]
	 Same-Spin Energy          =      -0.2994673435909576 [Eh]
	 Opposite-Spin Energy      =      -0.9568866620596657 [Eh]
	 Correlation Energy        =      -1.2563540056506233 [Eh]
	 Total Energy              =    -629.3369848601329295 [Eh]

	 ================> DF-SCS-MP2 Energies <==================
	-----------------------------------------------------------
	 SCS Same-Spin Scale       =       0.3333333333333333 [-]
	 SCS Opposite-Spin Scale   =       1.2000000000000000 [-]
	 SCS Same-Spin Energy      =      -0.0998224478636525 [Eh]
	 SCS Opposite-Spin Energy  =      -1.1482639944715987 [Eh]
	 SCS Correlation Energy    =      -1.2480864423352511 [Eh]
	 SCS Total Energy          =    -629.3287172968175582 [Eh]
	-----------------------------------------------------------

  Dipole Moment: [D]
     X:     5.3302      Y:     0.0100      Z:    -1.5098     Total:     5.5400

*** Psi4 exiting successfully. Buy a developer a beer!
