                               Psi4 1.4a3.dev225

  ==> Input File <==

--------------------------------------------------------------------------
#psi4
#
memory 32 gb

molecule  {
-1 1
  S       -1.9699520     0.0002960    -0.4301720
  O       -0.2287560    -0.0011680     1.6042380
  C        0.8192720     0.0003510    -0.5193240
  C        1.6607038     1.2982124    -0.2115049
  C        1.6341410    -1.2566790    -0.2229280
  C       -0.4461550    -0.0002880     0.3723060
  H        0.5101060     0.0010330    -1.5685180
  H        1.8714700     1.2810570     0.8460150
  H        2.5686810     1.2824310    -0.7973980
  H        1.0553630     2.1549570    -0.4631840
  H        1.8715790    -1.2820640     0.8443200
  H        2.5688000    -1.2811950    -0.7990910
  H        1.0555640    -2.1543050    -0.4660390
units angstrom
no_reorient  #important for SAPT in psi4, default
symmetry c1  #important for SAPT in psi4, default
}

set PROPERTIES_ORIGIN ["COM"]
properties('MP2/aug-cc-pvtz', properties = ['dipole'])
--------------------------------------------------------------------------

    Molecular point group: c1
  Charge       = -1
  Multiplicity = 1
  Basis Set: AUG-CC-PVTZ
    Blend: AUG-CC-PVTZ
  Basis Set: (AUG-CC-PVTZ AUX)
    Blend: AUG-CC-PVTZ-JKFIT

    Orbital Energies [Eh]
    ---------------------

    Doubly Occupied:

       1A    -91.704010     2A    -20.343860     3A    -11.158624
       4A    -11.084452     5A    -11.082356     6A    -11.080454
       7A     -8.706448     8A     -6.387975     9A     -6.386520
      10A     -6.386029    11A     -1.171758    12A     -0.923226
      13A     -0.797435    14A     -0.777428    15A     -0.664182
      16A     -0.536723    17A     -0.474662    18A     -0.462098
      19A     -0.432472    20A     -0.410701    21A     -0.383415
      22A     -0.367954    23A     -0.354023    24A     -0.328736
      25A     -0.308210    26A     -0.205178    27A     -0.142171
      28A     -0.131447

  @DF-RHF Final Energy:  -628.07925488373405

   => Energetics <=

    Nuclear Repulsion Energy =            282.8183107927904416
    One-Electron Energy =               -1435.4100373605883760
    Two-Electron Energy =                 524.5124716840638257
    Total Energy =                       -628.0792548837340519
  Basis Set: (AUG-CC-PVTZ AUX)
    Blend: AUG-CC-PVTZ-RI
    Molecular point group: c1

    Geometry (in Angstrom), charge = -1, multiplicity = 1:

       Center              X                  Y                   Z               Mass
    ------------   -----------------  -----------------  -----------------  -----------------
         S           -1.862836052529    -0.004478403437    -0.454497381915    31.972071174400
         O           -0.121640052529    -0.005942403437     1.579912618085    15.994914619570
         C            0.926387947471    -0.004423403437    -0.543649381915    12.000000000000
         C            1.767819747471     1.293437996563    -0.235830281915    12.000000000000
         C            1.741256947471    -1.261453403437    -0.247253381915    12.000000000000
         C           -0.339039052529    -0.005062403437     0.347980618085    12.000000000000
         H            0.617221947471    -0.003741403437    -1.592843381915     1.007825032230
         H            1.978585947471     1.276282596563     0.821689618085     1.007825032230
         H            2.675796947471     1.277656596563    -0.821723381915     1.007825032230
         H            1.162478947471     2.150182596563    -0.487509381915     1.007825032230
         H            1.978694947471    -1.286838403437     0.819994618085     1.007825032230
         H            2.675915947471    -1.285969403437    -0.823416381915     1.007825032230
         H            1.162679947471    -2.159079403437    -0.490364381915     1.007825032230

  Basis Set: AUG-CC-PVTZ
    Blend: AUG-CC-PVTZ
  Basis Set: (AUG-CC-PVTZ AUX)
    Blend: AUG-CC-PVTZ-JKFIT
	 Reference Energy          =    -628.0792548837340519 [Eh]
	 Singles Energy            =      -0.0000000000000000 [Eh]
	 Same-Spin Energy          =      -0.2991899523404464 [Eh]
	 Opposite-Spin Energy      =      -0.9566647427509771 [Eh]
	 Correlation Energy        =      -1.2558546950914236 [Eh]
	 Total Energy              =    -629.3351095788254952 [Eh]

	 ================> DF-SCS-MP2 Energies <==================
	-----------------------------------------------------------
	 SCS Same-Spin Scale       =       0.3333333333333333 [-]
	 SCS Opposite-Spin Scale   =       1.2000000000000000 [-]
	 SCS Same-Spin Energy      =      -0.0997299841134821 [Eh]
	 SCS Opposite-Spin Energy  =      -1.1479976913011725 [Eh]
	 SCS Correlation Energy    =      -1.2477276754146547 [Eh]
	 SCS Total Energy          =    -629.3269825591487461 [Eh]
	-----------------------------------------------------------

  Dipole Moment: [D]
     X:     5.3475      Y:     0.0099      Z:    -1.5271     Total:     5.5613

*** Psi4 exiting successfully. Buy a developer a beer!
