                               Psi4 1.4a3.dev225

  ==> Input File <==

--------------------------------------------------------------------------
#psi4
#
memory 32 gb

molecule  {
-1 1
  S       -1.9699520     0.0002960    -0.4301720
  O       -0.2287560    -0.0011680     1.6042380
  C        0.8192720     0.0003510    -0.5193240
  C        1.6204342     1.2855067    -0.3230852
  C        1.6341410    -1.2566790    -0.2229280
  C       -0.4461550    -0.0002880     0.3723060
  H        0.5101060     0.0010330    -1.5685180
  H        1.8714700     1.2810570     0.8460150
  H        2.5686810     1.2824310    -0.7973980
  H        1.0553630     2.1549570    -0.4631840
  H        1.8715790    -1.2820640     0.8443200
  H        2.5688000    -1.2811950    -0.7990910
  H        1.0555640    -2.1543050    -0.4660390
units angstrom
no_reorient  #important for SAPT in psi4, default
symmetry c1  #important for SAPT in psi4, default
}

set PROPERTIES_ORIGIN ["COM"]
properties('MP2/aug-cc-pvtz', properties = ['dipole'])
--------------------------------------------------------------------------

    Molecular point group: c1
  Charge       = -1
  Multiplicity = 1
  Basis Set: AUG-CC-PVTZ
    Blend: AUG-CC-PVTZ
  Basis Set: (AUG-CC-PVTZ AUX)
    Blend: AUG-CC-PVTZ-JKFIT

    Orbital Energies [Eh]
    ---------------------

    Doubly Occupied:

       1A    -91.704304     2A    -20.344565     3A    -11.159430
       4A    -11.083987     5A    -11.083402     6A    -11.082362
       7A     -8.706731     8A     -6.388259     9A     -6.386800
      10A     -6.386308    11A     -1.172160    12A     -0.929105
      13A     -0.798865    14A     -0.777341    15A     -0.664469
      16A     -0.537835    17A     -0.478377    18A     -0.467029
      19A     -0.441327    20A     -0.390938    21A     -0.387395
      22A     -0.365002    23A     -0.360757    24A     -0.316148
      25A     -0.310961    26A     -0.206283    27A     -0.142300
      28A     -0.131727

  @DF-RHF Final Energy:  -628.06963417821521

   => Energetics <=

    Nuclear Repulsion Energy =            283.2499745992985254
    One-Electron Energy =               -1436.2308820617013225
    Two-Electron Energy =                 524.9112732841874731
    Total Energy =                       -628.0696341782152103
  Basis Set: (AUG-CC-PVTZ AUX)
    Blend: AUG-CC-PVTZ-RI
    Molecular point group: c1

    Geometry (in Angstrom), charge = -1, multiplicity = 1:

       Center              X                  Y                   Z               Mass
    ------------   -----------------  -----------------  -----------------  -----------------
         S           -1.858145439641    -0.002998440384    -0.441500481195    31.972071174400
         O           -0.116949439641    -0.004462440384     1.592909518805    15.994914619570
         C            0.931078560359    -0.002943440384    -0.530652481195    12.000000000000
         C            1.732240760359     1.282212259616    -0.334413681195    12.000000000000
         C            1.745947560359    -1.259973440384    -0.234256481195    12.000000000000
         C           -0.334348439641    -0.003582440384     0.360977518805    12.000000000000
         H            0.621912560359    -0.002261440384    -1.579846481195     1.007825032230
         H            1.983276560359     1.277762559616     0.834686518805     1.007825032230
         H            2.680487560359     1.279136559616    -0.808726481195     1.007825032230
         H            1.167169560359     2.151662559616    -0.474512481195     1.007825032230
         H            1.983385560359    -1.285358440384     0.832991518805     1.007825032230
         H            2.680606560359    -1.284489440384    -0.810419481195     1.007825032230
         H            1.167370560359    -2.157599440384    -0.477367481195     1.007825032230

  Basis Set: AUG-CC-PVTZ
    Blend: AUG-CC-PVTZ
  Basis Set: (AUG-CC-PVTZ AUX)
    Blend: AUG-CC-PVTZ-JKFIT
	 Reference Energy          =    -628.0696341782152103 [Eh]
	 Singles Energy            =      -0.0000000000000000 [Eh]
	 Same-Spin Energy          =      -0.2997118263310382 [Eh]
	 Opposite-Spin Energy      =      -0.9575187572581414 [Eh]
	 Correlation Energy        =      -1.2572305835891795 [Eh]
	 Total Energy              =    -629.3268647618043587 [Eh]

	 ================> DF-SCS-MP2 Energies <==================
	-----------------------------------------------------------
	 SCS Same-Spin Scale       =       0.3333333333333333 [-]
	 SCS Opposite-Spin Scale   =       1.2000000000000000 [-]
	 SCS Same-Spin Energy      =      -0.0999039421103460 [Eh]
	 SCS Opposite-Spin Energy  =      -1.1490225087097696 [Eh]
	 SCS Correlation Energy    =      -1.2489264508201157 [Eh]
	 SCS Total Energy          =    -629.3185606290353462 [Eh]
	-----------------------------------------------------------

  Dipole Moment: [D]
     X:     5.2964      Y:     0.0026      Z:    -1.6280     Total:     5.5410

*** Psi4 exiting successfully. Buy a developer a beer!
