                               Psi4 1.4a3.dev225

  ==> Input File <==

--------------------------------------------------------------------------
#psi4
#
memory 32 gb

molecule  {
-1 1
  S       -1.9699520     0.0002960    -0.4301720
  O       -0.2287560    -0.0011680     1.6042380
  C        0.8192720     0.0003510    -0.5193240
  C        1.6446977     1.2735240    -0.2173604
  C        1.6341410    -1.2566790    -0.2229280
  C       -0.4461550    -0.0002880     0.3723060
  H        0.5101060     0.0010330    -1.5685180
  H        1.8714700     1.2810570     0.8460150
  H        2.5686810     1.2824310    -0.7973980
  H        1.0553630     2.1549570    -0.4631840
  H        1.8715790    -1.2820640     0.8443200
  H        2.5688000    -1.2811950    -0.7990910
  H        1.0555640    -2.1543050    -0.4660390
units angstrom
no_reorient  #important for SAPT in psi4, default
symmetry c1  #important for SAPT in psi4, default
}

set PROPERTIES_ORIGIN ["COM"]
properties('MP2/aug-cc-pvtz', properties = ['dipole'])
--------------------------------------------------------------------------

    Molecular point group: c1
  Charge       = -1
  Multiplicity = 1
  Basis Set: AUG-CC-PVTZ
    Blend: AUG-CC-PVTZ
  Basis Set: (AUG-CC-PVTZ AUX)
    Blend: AUG-CC-PVTZ-JKFIT

    Orbital Energies [Eh]
    ---------------------

    Doubly Occupied:

       1A    -91.704056     2A    -20.344014     3A    -11.158746
       4A    -11.083113     5A    -11.082245     6A    -11.081463
       7A     -8.706492     8A     -6.388019     9A     -6.386564
      10A     -6.386073    11A     -1.172004    12A     -0.926779
      13A     -0.796800    14A     -0.777369    15A     -0.663881
      16A     -0.537813    17A     -0.475263    18A     -0.461715
      19A     -0.432559    20A     -0.407770    21A     -0.382151
      22A     -0.367101    23A     -0.354764    24A     -0.328646
      25A     -0.311603    26A     -0.205318    27A     -0.142231
      28A     -0.131547

  @DF-RHF Final Energy:  -628.08066429775818

   => Energetics <=

    Nuclear Repulsion Energy =            283.2944149623731960
    One-Electron Energy =               -1436.3579579027011732
    Two-Electron Energy =                 524.9828786425698581
    Total Energy =                       -628.0806642977581760
  Basis Set: (AUG-CC-PVTZ AUX)
    Blend: AUG-CC-PVTZ-RI
    Molecular point group: c1

    Geometry (in Angstrom), charge = -1, multiplicity = 1:

       Center              X                  Y                   Z               Mass
    ------------   -----------------  -----------------  -----------------  -----------------
         S           -1.860971658074    -0.001602692548    -0.453815331839    31.972071174400
         O           -0.119775658074    -0.003066692548     1.580594668161    15.994914619570
         C            0.928252341926    -0.001547692548    -0.542967331839    12.000000000000
         C            1.753678041926     1.271625307452    -0.241003731839    12.000000000000
         C            1.743121341926    -1.258577692548    -0.246571331839    12.000000000000
         C           -0.337174658074    -0.002186692548     0.348662668161    12.000000000000
         H            0.619086341926    -0.000865692548    -1.592161331839     1.007825032230
         H            1.980450341926     1.279158307452     0.822371668161     1.007825032230
         H            2.677661341926     1.280532307452    -0.821041331839     1.007825032230
         H            1.164343341926     2.153058307452    -0.486827331839     1.007825032230
         H            1.980559341926    -1.283962692548     0.820676668161     1.007825032230
         H            2.677780341926    -1.283093692548    -0.822734331839     1.007825032230
         H            1.164544341926    -2.156203692548    -0.489682331839     1.007825032230

  Basis Set: AUG-CC-PVTZ
    Blend: AUG-CC-PVTZ
  Basis Set: (AUG-CC-PVTZ AUX)
    Blend: AUG-CC-PVTZ-JKFIT
	 Reference Energy          =    -628.0806642977581760 [Eh]
	 Singles Energy            =      -0.0000000000000000 [Eh]
	 Same-Spin Energy          =      -0.2993150790240903 [Eh]
	 Opposite-Spin Energy      =      -0.9567304784922119 [Eh]
	 Correlation Energy        =      -1.2560455575163023 [Eh]
	 Total Energy              =    -629.3367098552745347 [Eh]

	 ================> DF-SCS-MP2 Energies <==================
	-----------------------------------------------------------
	 SCS Same-Spin Scale       =       0.3333333333333333 [-]
	 SCS Opposite-Spin Scale   =       1.2000000000000000 [-]
	 SCS Same-Spin Energy      =      -0.0997716930080301 [Eh]
	 SCS Opposite-Spin Energy  =      -1.1480765741906542 [Eh]
	 SCS Correlation Energy    =      -1.2478482671986844 [Eh]
	 SCS Total Energy          =    -629.3285125649568954 [Eh]
	-----------------------------------------------------------

  Dipole Moment: [D]
     X:     5.3367      Y:     0.0064      Z:    -1.5211     Total:     5.5493

*** Psi4 exiting successfully. Buy a developer a beer!
