                               Psi4 1.4a3.dev225

  ==> Input File <==

--------------------------------------------------------------------------
#psi4
#
memory 32 gb

molecule  {
-1 1
  S       -1.9699520     0.0002960    -0.4301720
  O       -0.2287560    -0.0011680     1.6042380
  C        0.8192720     0.0003510    -0.5193240
  C        1.6340270     1.2570650    -0.2212640
  C        1.5209256    -1.2948729    -0.1167525
  C       -0.4461550    -0.0002880     0.3723060
  H        0.5101060     0.0010330    -1.5685180
  H        1.8714700     1.2810570     0.8460150
  H        2.5686810     1.2824310    -0.7973980
  H        1.0553630     2.1549570    -0.4631840
  H        1.8715790    -1.2820640     0.8443200
  H        2.5688000    -1.2811950    -0.7990910
  H        1.0555640    -2.1543050    -0.4660390
units angstrom
no_reorient  #important for SAPT in psi4, default
symmetry c1  #important for SAPT in psi4, default
}

set PROPERTIES_ORIGIN ["COM"]
properties('MP2/aug-cc-pvtz', properties = ['dipole'])
--------------------------------------------------------------------------

    Molecular point group: c1
  Charge       = -1
  Multiplicity = 1
  Basis Set: AUG-CC-PVTZ
    Blend: AUG-CC-PVTZ
  Basis Set: (AUG-CC-PVTZ AUX)
    Blend: AUG-CC-PVTZ-JKFIT

    Orbital Energies [Eh]
    ---------------------

    Doubly Occupied:

       1A    -91.704068     2A    -20.343819     3A    -11.158137
       4A    -11.088301     5A    -11.084738     6A    -11.084123
       7A     -8.706523     8A     -6.388050     9A     -6.386597
      10A     -6.386108    11A     -1.173099    12A     -0.931021
      13A     -0.801754    14A     -0.777012    15A     -0.665301
      16A     -0.540056    17A     -0.492162    18A     -0.458887
      19A     -0.438278    20A     -0.410334    21A     -0.374927
      22A     -0.366273    23A     -0.344509    24A     -0.336902
      25A     -0.308836    26A     -0.202791    27A     -0.142784
      28A     -0.131178

  @DF-RHF Final Energy:  -628.05834293037958

   => Energetics <=

    Nuclear Repulsion Energy =            284.4204525521948312
    One-Electron Energy =               -1438.5044557826090568
    Two-Electron Energy =                 526.0256603000347013
    Total Energy =                       -628.0583429303795810
  Basis Set: (AUG-CC-PVTZ AUX)
    Blend: AUG-CC-PVTZ-RI
    Molecular point group: c1

    Geometry (in Angstrom), charge = -1, multiplicity = 1:

       Center              X                  Y                   Z               Mass
    ------------   -----------------  -----------------  -----------------  -----------------
         S           -1.846541374751     0.004763290653    -0.465727987843    31.972071174400
         O           -0.105345374751     0.003299290653     1.568682012157    15.994914619570
         C            0.942682625249     0.004818290653    -0.554879987843    12.000000000000
         C            1.757437625249     1.261532290653    -0.256819987843    12.000000000000
         C            1.644336225249    -1.290405609347    -0.152308487843    12.000000000000
         C           -0.322744374751     0.004179290653     0.336750012157    12.000000000000
         H            0.633516625249     0.005500290653    -1.604073987843     1.007825032230
         H            1.994880625249     1.285524290653     0.810459012157     1.007825032230
         H            2.692091625249     1.286898290653    -0.832953987843     1.007825032230
         H            1.178773625249     2.159424290653    -0.498739987843     1.007825032230
         H            1.994989625249    -1.277596709347     0.808764012157     1.007825032230
         H            2.692210625249    -1.276727709347    -0.834646987843     1.007825032230
         H            1.178974625249    -2.149837709347    -0.501594987843     1.007825032230

  Basis Set: AUG-CC-PVTZ
    Blend: AUG-CC-PVTZ
  Basis Set: (AUG-CC-PVTZ AUX)
    Blend: AUG-CC-PVTZ-JKFIT
	 Reference Energy          =    -628.0583429303795810 [Eh]
	 Singles Energy            =      -0.0000000000000000 [Eh]
	 Same-Spin Energy          =      -0.2997266365019868 [Eh]
	 Opposite-Spin Energy      =      -0.9577150287837504 [Eh]
	 Correlation Energy        =      -1.2574416652857372 [Eh]
	 Total Energy              =    -629.3157845956652636 [Eh]

	 ================> DF-SCS-MP2 Energies <==================
	-----------------------------------------------------------
	 SCS Same-Spin Scale       =       0.3333333333333333 [-]
	 SCS Opposite-Spin Scale   =       1.2000000000000000 [-]
	 SCS Same-Spin Energy      =      -0.0999088788339956 [Eh]
	 SCS Opposite-Spin Energy  =      -1.1492580345405004 [Eh]
	 SCS Correlation Energy    =      -1.2491669133744960 [Eh]
	 SCS Total Energy          =    -629.3075098437541328 [Eh]
	-----------------------------------------------------------

  Dipole Moment: [D]
     X:     5.1452      Y:     0.0225      Z:    -1.3625     Total:     5.3226

*** Psi4 exiting successfully. Buy a developer a beer!
