                               Psi4 1.4a3.dev225

  ==> Input File <==

--------------------------------------------------------------------------
#psi4
#
memory 32 gb

molecule  {
-1 1
  S       -1.9699520     0.0002960    -0.4301720
  O       -0.2287560    -0.0011680     1.6042380
  C        0.8192720     0.0003510    -0.5193240
  C        1.6340270     1.2570650    -0.2212640
  C        1.6341410    -1.2566790    -0.2229280
  C       -0.4461550    -0.0002880     0.3723060
  H        0.5101060     0.0010330    -1.5685180
  H        1.8714700     1.2810570     0.8460150
  H        2.5686810     1.2824310    -0.7973980
  H        1.0553630     2.1549570    -0.4631840
  H        1.8148695    -1.3814177     0.8484342
  H        2.5688000    -1.2811950    -0.7990910
  H        1.0555640    -2.1543050    -0.4660390
units angstrom
no_reorient  #important for SAPT in psi4, default
symmetry c1  #important for SAPT in psi4, default
}

set PROPERTIES_ORIGIN ["COM"]
properties('MP2/aug-cc-pvtz', properties = ['dipole'])
--------------------------------------------------------------------------

    Molecular point group: c1
  Charge       = -1
  Multiplicity = 1
  Basis Set: AUG-CC-PVTZ
    Blend: AUG-CC-PVTZ
  Basis Set: (AUG-CC-PVTZ AUX)
    Blend: AUG-CC-PVTZ-JKFIT

    Orbital Energies [Eh]
    ---------------------

    Doubly Occupied:

       1A    -91.704142     2A    -20.344089     3A    -11.158974
       4A    -11.082854     5A    -11.082186     6A    -11.081898
       7A     -8.706578     8A     -6.388106     9A     -6.386649
      10A     -6.386159    11A     -1.172186    12A     -0.928912
      13A     -0.797068    14A     -0.777268    15A     -0.664174
      16A     -0.539639    17A     -0.472811    18A     -0.463402
      19A     -0.432015    20A     -0.405580    21A     -0.381336
      22A     -0.366742    23A     -0.355313    24A     -0.328466
      25A     -0.312593    26A     -0.205448    27A     -0.142312
      28A     -0.131691

  @DF-RHF Final Energy:  -628.07962775102135

   => Energetics <=

    Nuclear Repulsion Energy =            283.5510869537868075
    One-Electron Energy =               -1436.8642437008184061
    Two-Electron Energy =                 525.2335289960102500
    Total Energy =                       -628.0796277510213486
  Basis Set: (AUG-CC-PVTZ AUX)
    Blend: AUG-CC-PVTZ-RI
    Molecular point group: c1

    Geometry (in Angstrom), charge = -1, multiplicity = 1:

       Center              X                  Y                   Z               Mass
    ------------   -----------------  -----------------  -----------------  -----------------
         S           -1.859173963570     0.001286397514    -0.453400887300    31.972071174400
         O           -0.117977963570    -0.000177602486     1.581009112700    15.994914619570
         C            0.930050036430     0.001341397514    -0.542552887300    12.000000000000
         C            1.744805036430     1.258055397514    -0.244492887300    12.000000000000
         C            1.744919036430    -1.255688602486    -0.246156887300    12.000000000000
         C           -0.335376963570     0.000702397514     0.349077112700    12.000000000000
         H            0.620884036430     0.002023397514    -1.591746887300     1.007825032230
         H            1.982248036430     1.282047397514     0.822786112700     1.007825032230
         H            2.679459036430     1.283421397514    -0.820626887300     1.007825032230
         H            1.166141036430     2.155947397514    -0.486412887300     1.007825032230
         H            1.925647536430    -1.380427302486     0.825205312700     1.007825032230
         H            2.679578036430    -1.280204602486    -0.822319887300     1.007825032230
         H            1.166342036430    -2.153314602486    -0.489267887300     1.007825032230

  Basis Set: AUG-CC-PVTZ
    Blend: AUG-CC-PVTZ
  Basis Set: (AUG-CC-PVTZ AUX)
    Blend: AUG-CC-PVTZ-JKFIT
	 Reference Energy          =    -628.0796277510213486 [Eh]
	 Singles Energy            =      -0.0000000000000000 [Eh]
	 Same-Spin Energy          =      -0.2994282834523233 [Eh]
	 Opposite-Spin Energy      =      -0.9568338123708985 [Eh]
	 Correlation Energy        =      -1.2562620958232218 [Eh]
	 Total Energy              =    -629.3358898468445659 [Eh]

	 ================> DF-SCS-MP2 Energies <==================
	-----------------------------------------------------------
	 SCS Same-Spin Scale       =       0.3333333333333333 [-]
	 SCS Opposite-Spin Scale   =       1.2000000000000000 [-]
	 SCS Same-Spin Energy      =      -0.0998094278174411 [Eh]
	 SCS Opposite-Spin Energy  =      -1.1482005748450781 [Eh]
	 SCS Correlation Energy    =      -1.2480100026625192 [Eh]
	 SCS Total Energy          =    -629.3276377536839163 [Eh]
	-----------------------------------------------------------

  Dipole Moment: [D]
     X:     5.3107      Y:    -0.0289      Z:    -1.5044     Total:     5.5198

*** Psi4 exiting successfully. Buy a developer a beer!
