                               Psi4 1.4a3.dev225

  ==> Input File <==

--------------------------------------------------------------------------
#psi4
#
memory 32 gb

molecule  {
-1 1
  S       -1.9699520     0.0002960    -0.4301720
  O       -0.2287560    -0.0011680     1.6042380
  C        0.8192720     0.0003510    -0.5193240
  C        1.6340270     1.2570650    -0.2212640
  C        1.6341410    -1.2566790    -0.2229280
  C       -0.4461550    -0.0002880     0.3723060
  H        0.5101060     0.0010330    -1.5685180
  H        1.8714700     1.2810570     0.8460150
  H        2.5686810     1.2824310    -0.7973980
  H        1.0553630     2.1549570    -0.4631840
  H        1.9150008    -1.2867063     1.0394943
  H        2.5688000    -1.2811950    -0.7990910
  H        1.0555640    -2.1543050    -0.4660390
units angstrom
no_reorient  #important for SAPT in psi4, default
symmetry c1  #important for SAPT in psi4, default
}

set PROPERTIES_ORIGIN ["COM"]
properties('MP2/aug-cc-pvtz', properties = ['dipole'])
--------------------------------------------------------------------------

    Molecular point group: c1
  Charge       = -1
  Multiplicity = 1
  Basis Set: AUG-CC-PVTZ
    Blend: AUG-CC-PVTZ
  Basis Set: (AUG-CC-PVTZ AUX)
    Blend: AUG-CC-PVTZ-JKFIT

    Orbital Energies [Eh]
    ---------------------

    Doubly Occupied:

       1A    -91.704811     2A    -20.344161     3A    -11.159520
       4A    -11.104975     5A    -11.084832     6A    -11.082835
       7A     -8.707244     8A     -6.388771     9A     -6.387313
      10A     -6.386824    11A     -1.172246    12A     -0.928006
      13A     -0.790271    14A     -0.775907    15A     -0.660353
      16A     -0.535939    17A     -0.474797    18A     -0.462249
      19A     -0.434165    20A     -0.387807    21A     -0.383210
      22A     -0.359602    23A     -0.355914    24A     -0.320400
      25A     -0.312103    26A     -0.205930    27A     -0.142765
      28A     -0.132428

  @DF-RHF Final Energy:  -628.06056770874841

   => Energetics <=

    Nuclear Repulsion Energy =            282.8908086534523818
    One-Electron Energy =               -1435.5319976697485345
    Two-Electron Energy =                 524.5806213075478581
    Total Energy =                       -628.0605677087484082
  Basis Set: (AUG-CC-PVTZ AUX)
    Blend: AUG-CC-PVTZ-RI
    Molecular point group: c1

    Geometry (in Angstrom), charge = -1, multiplicity = 1:

       Center              X                  Y                   Z               Mass
    ------------   -----------------  -----------------  -----------------  -----------------
         S           -1.860153512256     0.000359869771    -0.455269959907    31.972071174400
         O           -0.118957512256    -0.001104130229     1.579140040093    15.994914619570
         C            0.929070487744     0.000414869771    -0.544421959907    12.000000000000
         C            1.743825487744     1.257128869771    -0.246361959907    12.000000000000
         C            1.743939487744    -1.256615130229    -0.248025959907    12.000000000000
         C           -0.336356512256    -0.000224130229     0.347208040093    12.000000000000
         H            0.619904487744     0.001096869771    -1.593615959907     1.007825032230
         H            1.981268487744     1.281120869771     0.820917040093     1.007825032230
         H            2.678479487744     1.282494869771    -0.822495959907     1.007825032230
         H            1.165161487744     2.155020869771    -0.488281959907     1.007825032230
         H            2.024799287744    -1.286642430229     1.014396340093     1.007825032230
         H            2.678598487744    -1.281131130229    -0.824188959907     1.007825032230
         H            1.165362487744    -2.154241130229    -0.491136959907     1.007825032230

  Basis Set: AUG-CC-PVTZ
    Blend: AUG-CC-PVTZ
  Basis Set: (AUG-CC-PVTZ AUX)
    Blend: AUG-CC-PVTZ-JKFIT
	 Reference Energy          =    -628.0605677087484082 [Eh]
	 Singles Energy            =      -0.0000000000000000 [Eh]
	 Same-Spin Energy          =      -0.2996898423308497 [Eh]
	 Opposite-Spin Energy      =      -0.9586804716739216 [Eh]
	 Correlation Energy        =      -1.2583703140047713 [Eh]
	 Total Energy              =    -629.3189380227531728 [Eh]

	 ================> DF-SCS-MP2 Energies <==================
	-----------------------------------------------------------
	 SCS Same-Spin Scale       =       0.3333333333333333 [-]
	 SCS Opposite-Spin Scale   =       1.2000000000000000 [-]
	 SCS Same-Spin Energy      =      -0.0998966141102832 [Eh]
	 SCS Opposite-Spin Energy  =      -1.1504165660087058 [Eh]
	 SCS Correlation Energy    =      -1.2503131801189891 [Eh]
	 SCS Total Energy          =    -629.3108808888673593 [Eh]
	-----------------------------------------------------------

  Dipole Moment: [D]
     X:     5.2226      Y:     0.0619      Z:    -1.6145     Total:     5.4669

*** Psi4 exiting successfully. Buy a developer a beer!
