                               Psi4 1.4a3.dev225

  ==> Input File <==

--------------------------------------------------------------------------
#psi4
#
memory 32 gb

molecule  {
-1 1
  S       -1.9699520     0.0002960    -0.4301720
  O       -0.2287560    -0.0011680     1.6042380
  C        0.8192720     0.0003510    -0.5193240
  C        1.6340270     1.2570650    -0.2212640
  C        1.6341410    -1.2566790    -0.2229280
  C       -0.4461550    -0.0002880     0.3723060
  H        0.4535752     0.0011577    -1.7603624
  H        1.8714700     1.2810570     0.8460150
  H        2.5686810     1.2824310    -0.7973980
  H        1.0553630     2.1549570    -0.4631840
  H        1.8715790    -1.2820640     0.8443200
  H        2.5688000    -1.2811950    -0.7990910
  H        1.0555640    -2.1543050    -0.4660390
units angstrom
no_reorient  #important for SAPT in psi4, default
symmetry c1  #important for SAPT in psi4, default
}

set PROPERTIES_ORIGIN ["COM"]
properties('MP2/aug-cc-pvtz', properties = ['dipole'])
--------------------------------------------------------------------------

    Molecular point group: c1
  Charge       = -1
  Multiplicity = 1
  Basis Set: AUG-CC-PVTZ
    Blend: AUG-CC-PVTZ
  Basis Set: (AUG-CC-PVTZ AUX)
    Blend: AUG-CC-PVTZ-JKFIT

    Orbital Energies [Eh]
    ---------------------

    Doubly Occupied:

       1A    -91.703702     2A    -20.346406     3A    -11.161470
       4A    -11.105426     5A    -11.084738     6A    -11.084719
       7A     -8.706149     8A     -6.387669     9A     -6.386218
      10A     -6.385711    11A     -1.174433    12A     -0.925432
      13A     -0.798372    14A     -0.777176    15A     -0.656297
      16A     -0.524397    17A     -0.472257    18A     -0.462972
      19A     -0.434789    20A     -0.407395    21A     -0.383372
      22A     -0.366264    23A     -0.357105    24A     -0.315839
      25A     -0.304131    26A     -0.207131    27A     -0.142224
      28A     -0.130251

  @DF-RHF Final Energy:  -628.06034476119692

   => Energetics <=

    Nuclear Repulsion Energy =            282.7170795966824812
    One-Electron Energy =               -1435.1707611343122153
    Two-Electron Energy =                 524.3933367764328750
    Total Energy =                       -628.0603447611969159
  Basis Set: (AUG-CC-PVTZ AUX)
    Blend: AUG-CC-PVTZ-RI
    Molecular point group: c1

    Geometry (in Angstrom), charge = -1, multiplicity = 1:

       Center              X                  Y                   Z               Mass
    ------------   -----------------  -----------------  -----------------  -----------------
         S           -1.859175711728     0.000313235915    -0.451483894420    31.972071174400
         O           -0.117979711728    -0.001150764085     1.582926105580    15.994914619570
         C            0.930048288272     0.000368235915    -0.540635894420    12.000000000000
         C            1.744803288272     1.257082235915    -0.242575894420    12.000000000000
         C            1.744917288272    -1.256661764085    -0.244239894420    12.000000000000
         C           -0.335378711728    -0.000270764085     0.350994105580    12.000000000000
         H            0.564351488272     0.001174935915    -1.781674294420     1.007825032230
         H            1.982246288272     1.281074235915     0.824703105580     1.007825032230
         H            2.679457288272     1.282448235915    -0.818709894420     1.007825032230
         H            1.166139288272     2.154974235915    -0.484495894420     1.007825032230
         H            1.982355288272    -1.282046764085     0.823008105580     1.007825032230
         H            2.679576288272    -1.281177764085    -0.820402894420     1.007825032230
         H            1.166340288272    -2.154287764085    -0.487350894420     1.007825032230

  Basis Set: AUG-CC-PVTZ
    Blend: AUG-CC-PVTZ
  Basis Set: (AUG-CC-PVTZ AUX)
    Blend: AUG-CC-PVTZ-JKFIT
	 Reference Energy          =    -628.0603447611969159 [Eh]
	 Singles Energy            =      -0.0000000000000000 [Eh]
	 Same-Spin Energy          =      -0.2998042120380601 [Eh]
	 Opposite-Spin Energy      =      -0.9588837118672697 [Eh]
	 Correlation Energy        =      -1.2586879239053297 [Eh]
	 Total Energy              =    -629.3190326851022292 [Eh]

	 ================> DF-SCS-MP2 Energies <==================
	-----------------------------------------------------------
	 SCS Same-Spin Scale       =       0.3333333333333333 [-]
	 SCS Opposite-Spin Scale   =       1.2000000000000000 [-]
	 SCS Same-Spin Energy      =      -0.0999347373460200 [Eh]
	 SCS Opposite-Spin Energy  =      -1.1506604542407237 [Eh]
	 SCS Correlation Energy    =      -1.2505951915867437 [Eh]
	 SCS Total Energy          =    -629.3109399527836558 [Eh]
	-----------------------------------------------------------

  Dipole Moment: [D]
     X:     5.3354      Y:     0.0010      Z:    -1.3777     Total:     5.5105

*** Psi4 exiting successfully. Buy a developer a beer!
