                               Psi4 1.4a3.dev225

  ==> Input File <==

--------------------------------------------------------------------------
#psi4
#
memory 32 gb

molecule  {
-1 1
  S       -1.9699520     0.0002960    -0.4301720
  O       -0.2287560    -0.0011680     1.6042380
  C        0.8192720     0.0003510    -0.5193240
  C        1.6340270     1.2570650    -0.2212640
  C        1.6341410    -1.2566790    -0.2229280
  C       -0.4461550    -0.0002880     0.3723060
  H        0.5101060     0.0010330    -1.5685180
  H        1.8714700     1.2810570     0.8460150
  H        2.5686810     1.2824310    -0.7973980
  H        1.0553630     2.1549570    -0.4631840
  H        1.8715790    -1.2820640     0.8443200
  H        2.4836956    -1.2789627    -0.7466291
  H        1.0555640    -2.1543050    -0.4660390
units angstrom
no_reorient  #important for SAPT in psi4, default
symmetry c1  #important for SAPT in psi4, default
}

set PROPERTIES_ORIGIN ["COM"]
properties('MP2/aug-cc-pvtz', properties = ['dipole'])
--------------------------------------------------------------------------

    Molecular point group: c1
  Charge       = -1
  Multiplicity = 1
  Basis Set: AUG-CC-PVTZ
    Blend: AUG-CC-PVTZ
  Basis Set: (AUG-CC-PVTZ AUX)
    Blend: AUG-CC-PVTZ-JKFIT

    Orbital Energies [Eh]
    ---------------------

    Doubly Occupied:

       1A    -91.703342     2A    -20.343159     3A    -11.157787
       4A    -11.082311     5A    -11.080738     6A    -11.068883
       7A     -8.705779     8A     -6.387308     9A     -6.385853
      10A     -6.385364    11A     -1.171198    12A     -0.931243
      13A     -0.802959    14A     -0.777603    15A     -0.667129
      16A     -0.538328    17A     -0.476134    18A     -0.464236
      19A     -0.440788    20A     -0.407028    21A     -0.384198
      22A     -0.366470    23A     -0.354891    24A     -0.327712
      25A     -0.312424    26A     -0.204643    27A     -0.141572
      28A     -0.130884

  @DF-RHF Final Energy:  -628.07493040371810

   => Energetics <=

    Nuclear Repulsion Energy =            284.0957840176228046
    One-Electron Energy =               -1437.9415018994807269
    Two-Electron Energy =                 525.7707874781399369
    Total Energy =                       -628.0749304037180991
  Basis Set: (AUG-CC-PVTZ AUX)
    Blend: AUG-CC-PVTZ-RI
    Molecular point group: c1

    Geometry (in Angstrom), charge = -1, multiplicity = 1:

       Center              X                  Y                   Z               Mass
    ------------   -----------------  -----------------  -----------------  -----------------
         S           -1.858896186421     0.000292618018    -0.453873855552    31.972071174400
         O           -0.117700186421    -0.001171381982     1.580536144448    15.994914619570
         C            0.930327813579     0.000347618018    -0.543025855552    12.000000000000
         C            1.745082813579     1.257061618018    -0.244965855552    12.000000000000
         C            1.745196813579    -1.256682381982    -0.246629855552    12.000000000000
         C           -0.335099186421    -0.000291381982     0.348604144448    12.000000000000
         H            0.621161813579     0.001029618018    -1.592219855552     1.007825032230
         H            1.982525813579     1.281053618018     0.822313144448     1.007825032230
         H            2.679736813579     1.282427618018    -0.821099855552     1.007825032230
         H            1.166418813579     2.154953618018    -0.486885855552     1.007825032230
         H            1.982634813579    -1.282067381982     0.820618144448     1.007825032230
         H            2.594751413579    -1.278966081982    -0.770330955552     1.007825032230
         H            1.166619813579    -2.154308381982    -0.489740855552     1.007825032230

  Basis Set: AUG-CC-PVTZ
    Blend: AUG-CC-PVTZ
  Basis Set: (AUG-CC-PVTZ AUX)
    Blend: AUG-CC-PVTZ-JKFIT
	 Reference Energy          =    -628.0749304037180991 [Eh]
	 Singles Energy            =      -0.0000000000000000 [Eh]
	 Same-Spin Energy          =      -0.2994877105601024 [Eh]
	 Opposite-Spin Energy      =      -0.9563691364184330 [Eh]
	 Correlation Energy        =      -1.2558568469785354 [Eh]
	 Total Energy              =    -629.3307872506966305 [Eh]

	 ================> DF-SCS-MP2 Energies <==================
	-----------------------------------------------------------
	 SCS Same-Spin Scale       =       0.3333333333333333 [-]
	 SCS Opposite-Spin Scale   =       1.2000000000000000 [-]
	 SCS Same-Spin Energy      =      -0.0998292368533675 [Eh]
	 SCS Opposite-Spin Energy  =      -1.1476429637021195 [Eh]
	 SCS Correlation Energy    =      -1.2474722005554870 [Eh]
	 SCS Total Energy          =    -629.3224026042736341 [Eh]
	-----------------------------------------------------------

  Dipole Moment: [D]
     X:     5.4376      Y:    -0.0272      Z:    -1.5566     Total:     5.6561

*** Psi4 exiting successfully. Buy a developer a beer!
