                               Psi4 1.4a3.dev225

  ==> Input File <==

--------------------------------------------------------------------------
#psi4
#
memory 32 gb

molecule  {
-1 1
  S       -1.9699520     0.0002960    -0.4301720
  O       -0.2287560    -0.0011680     1.6042380
  C        0.8192720     0.0003510    -0.5193240
  C        1.6340270     1.2570650    -0.2212640
  C        1.6341410    -1.2566790    -0.2229280
  C       -0.4461550    -0.0002880     0.3723060
  H        0.5101060     0.0010330    -1.5685180
  H        1.8714700     1.2810570     0.8460150
  H        2.5686810     1.2824310    -0.7973980
  H        1.0553630     2.1549570    -0.4631840
  H        1.8281572    -1.2774217     0.6491457
  H        2.5688000    -1.2811950    -0.7990910
  H        1.0555640    -2.1543050    -0.4660390
units angstrom
no_reorient  #important for SAPT in psi4, default
symmetry c1  #important for SAPT in psi4, default
}

set PROPERTIES_ORIGIN ["COM"]
properties('MP2/aug-cc-pvtz', properties = ['dipole'])
--------------------------------------------------------------------------

    Molecular point group: c1
  Charge       = -1
  Multiplicity = 1
  Basis Set: AUG-CC-PVTZ
    Blend: AUG-CC-PVTZ
  Basis Set: (AUG-CC-PVTZ AUX)
    Blend: AUG-CC-PVTZ-JKFIT

    Orbital Energies [Eh]
    ---------------------

    Doubly Occupied:

       1A    -91.703691     2A    -20.344263     3A    -11.158534
       4A    -11.082226     5A    -11.080131     6A    -11.058004
       7A     -8.706128     8A     -6.387656     9A     -6.386201
      10A     -6.385709    11A     -1.172269    12A     -0.935551
      13A     -0.813025    14A     -0.778363    15A     -0.670329
      16A     -0.544745    17A     -0.480508    18A     -0.461971
      19A     -0.436882    20A     -0.425510    21A     -0.380882
      22A     -0.369662    23A     -0.354079    24A     -0.331679
      25A     -0.312862    26A     -0.205086    27A     -0.142021
      28A     -0.131155

  @DF-RHF Final Energy:  -628.04677035084069

   => Energetics <=

    Nuclear Repulsion Energy =            284.5400201601331105
    One-Electron Energy =               -1438.6953275151947764
    Two-Electron Energy =                 526.1085370042210343
    Total Energy =                       -628.0467703508406885
  Basis Set: (AUG-CC-PVTZ AUX)
    Blend: AUG-CC-PVTZ-RI
    Molecular point group: c1

    Geometry (in Angstrom), charge = -1, multiplicity = 1:

       Center              X                  Y                   Z               Mass
    ------------   -----------------  -----------------  -----------------  -----------------
         S           -1.859303952385     0.000269041850    -0.451451319199    31.972071174400
         O           -0.118107952385    -0.001194958150     1.582958680801    15.994914619570
         C            0.929920047615     0.000324041850    -0.540603319199    12.000000000000
         C            1.744675047615     1.257038041850    -0.242543319199    12.000000000000
         C            1.744789047615    -1.256705958150    -0.244207319199    12.000000000000
         C           -0.335506952385    -0.000314958150     0.351026680801    12.000000000000
         H            0.620754047615     0.001006041850    -1.589797319199     1.007825032230
         H            1.982118047615     1.281030041850     0.824735680801     1.007825032230
         H            2.679329047615     1.282404041850    -0.818677319199     1.007825032230
         H            1.166011047615     2.154930041850    -0.484463319199     1.007825032230
         H            1.938805247615    -1.277448658150     0.627866380801     1.007825032230
         H            2.679448047615    -1.281221958150    -0.820370319199     1.007825032230
         H            1.166212047615    -2.154331958150    -0.487318319199     1.007825032230

  Basis Set: AUG-CC-PVTZ
    Blend: AUG-CC-PVTZ
  Basis Set: (AUG-CC-PVTZ AUX)
    Blend: AUG-CC-PVTZ-JKFIT
	 Reference Energy          =    -628.0467703508406885 [Eh]
	 Singles Energy            =      -0.0000000000000000 [Eh]
	 Same-Spin Energy          =      -0.2993281502349737 [Eh]
	 Opposite-Spin Energy      =      -0.9560632923482493 [Eh]
	 Correlation Energy        =      -1.2553914425832229 [Eh]
	 Total Energy              =    -629.3021617934239202 [Eh]

	 ================> DF-SCS-MP2 Energies <==================
	-----------------------------------------------------------
	 SCS Same-Spin Scale       =       0.3333333333333333 [-]
	 SCS Opposite-Spin Scale   =       1.2000000000000000 [-]
	 SCS Same-Spin Energy      =      -0.0997760500783245 [Eh]
	 SCS Opposite-Spin Energy  =      -1.1472759508178991 [Eh]
	 SCS Correlation Energy    =      -1.2470520008962236 [Eh]
	 SCS Total Energy          =    -629.2938223517369352 [Eh]
	-----------------------------------------------------------

  Dipole Moment: [D]
     X:     5.3972      Y:    -0.0402      Z:    -1.4708     Total:     5.5942

*** Psi4 exiting successfully. Buy a developer a beer!
