                               Psi4 1.4a3.dev225

  ==> Input File <==

--------------------------------------------------------------------------
#psi4
#
memory 32 gb

molecule  {
-1 1
  S       -1.9699520     0.0002960    -0.4301720
  O       -0.2287560    -0.0011680     1.6042380
  C        0.8192720     0.0003510    -0.5193240
  C        1.6340270     1.2570650    -0.2212640
  C        1.6341410    -1.2566790    -0.2229280
  C       -0.4461550    -0.0002880     0.3723060
  H        0.5101060     0.0010330    -1.5685180
  H        1.8714700     1.2810570     0.8460150
  H        2.5686810     1.2824310    -0.7973980
  H        1.0553630     2.1549570    -0.4631840
  H        1.8622916    -1.2986718     0.8458205
  H        2.5688000    -1.2811950    -0.7990910
  H        1.0555640    -2.1543050    -0.4660390
units angstrom
no_reorient  #important for SAPT in psi4, default
symmetry c1  #important for SAPT in psi4, default
}

set PROPERTIES_ORIGIN ["COM"]
properties('MP2/aug-cc-pvtz', properties = ['dipole'])
--------------------------------------------------------------------------

    Molecular point group: c1
  Charge       = -1
  Multiplicity = 1
  Basis Set: AUG-CC-PVTZ
    Blend: AUG-CC-PVTZ
  Basis Set: (AUG-CC-PVTZ AUX)
    Blend: AUG-CC-PVTZ-JKFIT

    Orbital Energies [Eh]
    ---------------------

    Doubly Occupied:

       1A    -91.704114     2A    -20.344129     3A    -11.158881
       4A    -11.082644     5A    -11.082336     6A    -11.081730
       7A     -8.706548     8A     -6.388076     9A     -6.386620
      10A     -6.386129    11A     -1.172195    12A     -0.929281
      13A     -0.796525    14A     -0.777320    15A     -0.663718
      16A     -0.538790    17A     -0.475292    18A     -0.461873
      19A     -0.432603    20A     -0.405939    21A     -0.381629
      22A     -0.366460    23A     -0.355028    24A     -0.328639
      25A     -0.313167    26A     -0.205420    27A     -0.142292
      28A     -0.131640

  @DF-RHF Final Energy:  -628.08075512528740

   => Energetics <=

    Nuclear Repulsion Energy =            283.6048614295854691
    One-Electron Energy =               -1436.9731958459633461
    Two-Electron Energy =                 525.2875792910904238
    Total Energy =                       -628.0807551252873964
  Basis Set: (AUG-CC-PVTZ AUX)
    Blend: AUG-CC-PVTZ-RI
    Molecular point group: c1

    Geometry (in Angstrom), charge = -1, multiplicity = 1:

       Center              X                  Y                   Z               Mass
    ------------   -----------------  -----------------  -----------------  -----------------
         S           -1.859637877009     0.000476923976    -0.453375318408    31.972071174400
         O           -0.118441877009    -0.000987076024     1.581034681592    15.994914619570
         C            0.929586122991     0.000531923976    -0.542527318408    12.000000000000
         C            1.744341122991     1.257245923976    -0.244467318408    12.000000000000
         C            1.744455122991    -1.256498076024    -0.246131318408    12.000000000000
         C           -0.335840877009    -0.000107076024     0.349102681592    12.000000000000
         H            0.620420122991     0.001213923976    -1.591721318408     1.007825032230
         H            1.981784122991     1.281237923976     0.822811681592     1.007825032230
         H            2.678995122991     1.282611923976    -0.820601318408     1.007825032230
         H            1.165677122991     2.155137923976    -0.486387318408     1.007825032230
         H            1.972605722991    -1.298490876024     0.822617181592     1.007825032230
         H            2.679114122991    -1.281014076024    -0.822294318408     1.007825032230
         H            1.165878122991    -2.154124076024    -0.489242318408     1.007825032230

  Basis Set: AUG-CC-PVTZ
    Blend: AUG-CC-PVTZ
  Basis Set: (AUG-CC-PVTZ AUX)
    Blend: AUG-CC-PVTZ-JKFIT
	 Reference Energy          =    -628.0807551252873964 [Eh]
	 Singles Energy            =      -0.0000000000000000 [Eh]
	 Same-Spin Energy          =      -0.2994278560045873 [Eh]
	 Opposite-Spin Energy      =      -0.9568269068170073 [Eh]
	 Correlation Energy        =      -1.2562547628215945 [Eh]
	 Total Energy              =    -629.3370098881090371 [Eh]

	 ================> DF-SCS-MP2 Energies <==================
	-----------------------------------------------------------
	 SCS Same-Spin Scale       =       0.3333333333333333 [-]
	 SCS Opposite-Spin Scale   =       1.2000000000000000 [-]
	 SCS Same-Spin Energy      =      -0.0998092853348624 [Eh]
	 SCS Opposite-Spin Energy  =      -1.1481922881804087 [Eh]
	 SCS Correlation Energy    =      -1.2480015735152712 [Eh]
	 SCS Total Energy          =    -629.3287566988026356 [Eh]
	-----------------------------------------------------------

  Dipole Moment: [D]
     X:     5.3242      Y:    -0.0037      Z:    -1.5148     Total:     5.5355

*** Psi4 exiting successfully. Buy a developer a beer!
