                               Psi4 1.4a3.dev225

  ==> Input File <==

--------------------------------------------------------------------------
#psi4
#
memory 32 gb

molecule  {
-1 1
  S       -1.9699520     0.0002960    -0.4301720
  O       -0.2287560    -0.0011680     1.6042380
  C        0.8192720     0.0003510    -0.5193240
  C        1.6340270     1.2570650    -0.2212640
  C        1.6341410    -1.2566790    -0.2229280
  C       -0.4461550    -0.0002880     0.3723060
  H        0.5383714     0.0009706    -1.4725958
  H        1.8714700     1.2810570     0.8460150
  H        2.5686810     1.2824310    -0.7973980
  H        1.0553630     2.1549570    -0.4631840
  H        1.8715790    -1.2820640     0.8443200
  H        2.5688000    -1.2811950    -0.7990910
  H        1.0555640    -2.1543050    -0.4660390
units angstrom
no_reorient  #important for SAPT in psi4, default
symmetry c1  #important for SAPT in psi4, default
}

set PROPERTIES_ORIGIN ["COM"]
properties('MP2/aug-cc-pvtz', properties = ['dipole'])
--------------------------------------------------------------------------

    Molecular point group: c1
  Charge       = -1
  Multiplicity = 1
  Basis Set: AUG-CC-PVTZ
    Blend: AUG-CC-PVTZ
  Basis Set: (AUG-CC-PVTZ AUX)
    Blend: AUG-CC-PVTZ-JKFIT

    Orbital Energies [Eh]
    ---------------------

    Doubly Occupied:

       1A    -91.704410     2A    -20.343313     3A    -11.157966
       4A    -11.081609     5A    -11.081602     6A    -11.069293
       7A     -8.706830     8A     -6.388360     9A     -6.386901
      10A     -6.386417    11A     -1.171405    12A     -0.933862
      13A     -0.795841    14A     -0.777802    15A     -0.671159
      16A     -0.548601    17A     -0.477279    18A     -0.461194
      19A     -0.432172    20A     -0.405459    21A     -0.381199
      22A     -0.367404    23A     -0.354199    24A     -0.338402
      25A     -0.312360    26A     -0.204835    27A     -0.142396
      28A     -0.132220

  @DF-RHF Final Energy:  -628.07513853119508

   => Energetics <=

    Nuclear Repulsion Energy =            284.1398618226476174
    One-Electron Energy =               -1438.0010200215333498
    Two-Electron Energy =                 525.7860196676906526
    Total Energy =                       -628.0751385311950798
  Basis Set: (AUG-CC-PVTZ AUX)
    Blend: AUG-CC-PVTZ-RI
    Molecular point group: c1

    Geometry (in Angstrom), charge = -1, multiplicity = 1:

       Center              X                  Y                   Z               Mass
    ------------   -----------------  -----------------  -----------------  -----------------
         S           -1.860005242617     0.000315066247    -0.454299012119    31.972071174400
         O           -0.118809242617    -0.001148933753     1.580110987881    15.994914619570
         C            0.929218757383     0.000370066247    -0.543451012119    12.000000000000
         C            1.743973757383     1.257084066247    -0.245391012119    12.000000000000
         C            1.744087757383    -1.256659933753    -0.247055012119    12.000000000000
         C           -0.336208242617    -0.000268933753     0.348178987881    12.000000000000
         H            0.648318157383     0.000989666247    -1.496722812119     1.007825032230
         H            1.981416757383     1.281076066247     0.821887987881     1.007825032230
         H            2.678627757383     1.282450066247    -0.821525012119     1.007825032230
         H            1.165309757383     2.154976066247    -0.487311012119     1.007825032230
         H            1.981525757383    -1.282044933753     0.820192987881     1.007825032230
         H            2.678746757383    -1.281175933753    -0.823218012119     1.007825032230
         H            1.165510757383    -2.154285933753    -0.490166012119     1.007825032230

  Basis Set: AUG-CC-PVTZ
    Blend: AUG-CC-PVTZ
  Basis Set: (AUG-CC-PVTZ AUX)
    Blend: AUG-CC-PVTZ-JKFIT
	 Reference Energy          =    -628.0751385311950798 [Eh]
	 Singles Energy            =      -0.0000000000000000 [Eh]
	 Same-Spin Energy          =      -0.2993046883891097 [Eh]
	 Opposite-Spin Energy      =      -0.9561880123263312 [Eh]
	 Correlation Energy        =      -1.2554927007154411 [Eh]
	 Total Energy              =    -629.3306312319105018 [Eh]

	 ================> DF-SCS-MP2 Energies <==================
	-----------------------------------------------------------
	 SCS Same-Spin Scale       =       0.3333333333333333 [-]
	 SCS Opposite-Spin Scale   =       1.2000000000000000 [-]
	 SCS Same-Spin Energy      =      -0.0997682294630366 [Eh]
	 SCS Opposite-Spin Energy  =      -1.1474256147915973 [Eh]
	 SCS Correlation Energy    =      -1.2471938442546340 [Eh]
	 SCS Total Energy          =    -629.3223323754497187 [Eh]
	-----------------------------------------------------------

  Dipole Moment: [D]
     X:     5.3224      Y:     0.0012      Z:    -1.5536     Total:     5.5445

*** Psi4 exiting successfully. Buy a developer a beer!
