                               Psi4 1.4a3.dev225

  ==> Input File <==

--------------------------------------------------------------------------
#psi4
#
memory 32 gb

molecule  {
-1 1
  S       -1.9699520     0.0002960    -0.4301720
  O       -0.2287560    -0.0011680     1.6042380
  C        0.8192720     0.0003510    -0.5193240
  C        1.6340270     1.2570650    -0.2212640
  C        1.6341410    -1.2566790    -0.2229280
  C       -0.4461550    -0.0002880     0.3723060
  H        0.5101060     0.0010330    -1.5685180
  H        1.8714700     1.2810570     0.8460150
  H        2.5686810     1.2824310    -0.7973980
  H        1.0553630     2.1549570    -0.4631840
  H        1.8715790    -1.2820640     0.8443200
  H        2.5577182    -1.3145591    -0.8143731
  H        1.0555640    -2.1543050    -0.4660390
units angstrom
no_reorient  #important for SAPT in psi4, default
symmetry c1  #important for SAPT in psi4, default
}

set PROPERTIES_ORIGIN ["COM"]
properties('MP2/aug-cc-pvtz', properties = ['dipole'])
--------------------------------------------------------------------------

    Molecular point group: c1
  Charge       = -1
  Multiplicity = 1
  Basis Set: AUG-CC-PVTZ
    Blend: AUG-CC-PVTZ
  Basis Set: (AUG-CC-PVTZ AUX)
    Blend: AUG-CC-PVTZ-JKFIT

    Orbital Energies [Eh]
    ---------------------

    Doubly Occupied:

       1A    -91.704158     2A    -20.344246     3A    -11.159018
       4A    -11.082680     5A    -11.082316     6A    -11.081798
       7A     -8.706591     8A     -6.388118     9A     -6.386661
      10A     -6.386171    11A     -1.172302    12A     -0.929202
      13A     -0.796615    14A     -0.777345    15A     -0.663837
      16A     -0.538606    17A     -0.476636    18A     -0.460670
      19A     -0.432211    20A     -0.406871    21A     -0.381237
      22A     -0.366849    23A     -0.353858    24A     -0.328645
      25A     -0.313659    26A     -0.205534    27A     -0.142323
      28A     -0.131695

  @DF-RHF Final Energy:  -628.08061867140259

   => Energetics <=

    Nuclear Repulsion Energy =            283.5863510702500321
    One-Electron Energy =               -1436.9342342593063222
    Two-Electron Energy =                 525.2672645176537571
    Total Energy =                       -628.0806186714025898
  Basis Set: (AUG-CC-PVTZ AUX)
    Blend: AUG-CC-PVTZ-RI
    Molecular point group: c1

    Geometry (in Angstrom), charge = -1, multiplicity = 1:

       Center              X                  Y                   Z               Mass
    ------------   -----------------  -----------------  -----------------  -----------------
         S           -1.859620323035     0.000640844865    -0.453211140236    31.972071174400
         O           -0.118424323035    -0.000823155135     1.581198859764    15.994914619570
         C            0.929603676965     0.000695844865    -0.542363140236    12.000000000000
         C            1.744358676965     1.257409844865    -0.244303140236    12.000000000000
         C            1.744472676965    -1.256334155135    -0.245967140236    12.000000000000
         C           -0.335823323035     0.000056844865     0.349266859764    12.000000000000
         H            0.620437676965     0.001377844865    -1.591557140236     1.007825032230
         H            1.981801676965     1.281401844865     0.822975859764     1.007825032230
         H            2.679012676965     1.282775844865    -0.820437140236     1.007825032230
         H            1.165694676965     2.155301844865    -0.486223140236     1.007825032230
         H            1.981910676965    -1.281719155135     0.821280859764     1.007825032230
         H            2.668049876965    -1.314214255135    -0.837412240236     1.007825032230
         H            1.165895676965    -2.153960155135    -0.489078140236     1.007825032230

  Basis Set: AUG-CC-PVTZ
    Blend: AUG-CC-PVTZ
  Basis Set: (AUG-CC-PVTZ AUX)
    Blend: AUG-CC-PVTZ-JKFIT
	 Reference Energy          =    -628.0806186714025898 [Eh]
	 Singles Energy            =      -0.0000000000000000 [Eh]
	 Same-Spin Energy          =      -0.2994232423560252 [Eh]
	 Opposite-Spin Energy      =      -0.9568154400044364 [Eh]
	 Correlation Energy        =      -1.2562386823604617 [Eh]
	 Total Energy              =    -629.3368573537630937 [Eh]

	 ================> DF-SCS-MP2 Energies <==================
	-----------------------------------------------------------
	 SCS Same-Spin Scale       =       0.3333333333333333 [-]
	 SCS Opposite-Spin Scale   =       1.2000000000000000 [-]
	 SCS Same-Spin Energy      =      -0.0998077474520084 [Eh]
	 SCS Opposite-Spin Energy  =      -1.1481785280053236 [Eh]
	 SCS Correlation Energy    =      -1.2479862754573321 [Eh]
	 SCS Total Energy          =    -629.3286049468599685 [Eh]
	-----------------------------------------------------------

  Dipole Moment: [D]
     X:     5.3220      Y:    -0.0079      Z:    -1.5246     Total:     5.5361

*** Psi4 exiting successfully. Buy a developer a beer!
