                               Psi4 1.4a3.dev225

  ==> Input File <==

--------------------------------------------------------------------------
#psi4
#
memory 32 gb

molecule  {
-1 1
  S       -1.9699520     0.0002960    -0.4301720
  O       -0.2287560    -0.0011680     1.6042380
  C        0.8192720     0.0003510    -0.5193240
  C        1.6340270     1.2570650    -0.2212640
  C        1.6341410    -1.2566790    -0.2229280
  C       -0.4461550    -0.0002880     0.3723060
  H        0.4818406     0.0010954    -1.6644402
  H        1.8714700     1.2810570     0.8460150
  H        2.5686810     1.2824310    -0.7973980
  H        1.0553630     2.1549570    -0.4631840
  H        1.8715790    -1.2820640     0.8443200
  H        2.5688000    -1.2811950    -0.7990910
  H        1.0555640    -2.1543050    -0.4660390
units angstrom
no_reorient  #important for SAPT in psi4, default
symmetry c1  #important for SAPT in psi4, default
}

set PROPERTIES_ORIGIN ["COM"]
properties('MP2/aug-cc-pvtz', properties = ['dipole'])
--------------------------------------------------------------------------

    Molecular point group: c1
  Charge       = -1
  Multiplicity = 1
  Basis Set: AUG-CC-PVTZ
    Blend: AUG-CC-PVTZ
  Basis Set: (AUG-CC-PVTZ AUX)
    Blend: AUG-CC-PVTZ-JKFIT

    Orbital Energies [Eh]
    ---------------------

    Doubly Occupied:

       1A    -91.703866     2A    -20.345165     3A    -11.160032
       4A    -11.094059     5A    -11.083414     6A    -11.083386
       7A     -8.706309     8A     -6.387833     9A     -6.386380
      10A     -6.385881    11A     -1.173203    12A     -0.926694
      13A     -0.797274    14A     -0.777132    15A     -0.658929
      16A     -0.530368    17A     -0.474126    18A     -0.462233
      19A     -0.433634    20A     -0.406530    21A     -0.382398
      22A     -0.366138    23A     -0.355865    24A     -0.316972
      25A     -0.314407    26A     -0.206185    27A     -0.142224
      28A     -0.130968

  @DF-RHF Final Energy:  -628.07398416150875

   => Energetics <=

    Nuclear Repulsion Energy =            283.1457119849291075
    One-Electron Energy =               -1436.0561835980909109
    Two-Electron Energy =                 524.8364874516531700
    Total Energy =                       -628.0739841615087471
  Basis Set: (AUG-CC-PVTZ AUX)
    Blend: AUG-CC-PVTZ-RI
    Molecular point group: c1

    Geometry (in Angstrom), charge = -1, multiplicity = 1:

       Center              X                  Y                   Z               Mass
    ------------   -----------------  -----------------  -----------------  -----------------
         S           -1.859452222024     0.000313845374    -0.452422266986    31.972071174400
         O           -0.118256222024    -0.001150154626     1.581987733014    15.994914619570
         C            0.929771777976     0.000368845374    -0.541574266986    12.000000000000
         C            1.744526777976     1.257082845374    -0.243514266986    12.000000000000
         C            1.744640777976    -1.256661154626    -0.245178266986    12.000000000000
         C           -0.335655222024    -0.000270154626     0.350055733014    12.000000000000
         H            0.592340377976     0.001113245374    -1.686690466986     1.007825032230
         H            1.981969777976     1.281074845374     0.823764733014     1.007825032230
         H            2.679180777976     1.282448845374    -0.819648266986     1.007825032230
         H            1.165862777976     2.154974845374    -0.485434266986     1.007825032230
         H            1.982078777976    -1.282046154626     0.822069733014     1.007825032230
         H            2.679299777976    -1.281177154626    -0.821341266986     1.007825032230
         H            1.166063777976    -2.154287154626    -0.488289266986     1.007825032230

  Basis Set: AUG-CC-PVTZ
    Blend: AUG-CC-PVTZ
  Basis Set: (AUG-CC-PVTZ AUX)
    Blend: AUG-CC-PVTZ-JKFIT
	 Reference Energy          =    -628.0739841615087471 [Eh]
	 Singles Energy            =      -0.0000000000000000 [Eh]
	 Same-Spin Energy          =      -0.2996141988532682 [Eh]
	 Opposite-Spin Energy      =      -0.9577806147089536 [Eh]
	 Correlation Energy        =      -1.2573948135622217 [Eh]
	 Total Energy              =    -629.3313789750709475 [Eh]

	 ================> DF-SCS-MP2 Energies <==================
	-----------------------------------------------------------
	 SCS Same-Spin Scale       =       0.3333333333333333 [-]
	 SCS Opposite-Spin Scale   =       1.2000000000000000 [-]
	 SCS Same-Spin Energy      =      -0.0998713996177561 [Eh]
	 SCS Opposite-Spin Energy  =      -1.1493367376507442 [Eh]
	 SCS Correlation Energy    =      -1.2492081372685002 [Eh]
	 SCS Total Energy          =    -629.3231922987772577 [Eh]
	-----------------------------------------------------------

  Dipole Moment: [D]
     X:     5.3310      Y:     0.0011      Z:    -1.4590     Total:     5.5270

*** Psi4 exiting successfully. Buy a developer a beer!
