                               Psi4 1.4a3.dev225

  ==> Input File <==

--------------------------------------------------------------------------
#psi4
#
memory 32 gb

molecule  {
-1 1
  S       -1.9699520     0.0002960    -0.4301720
  O       -0.2287560    -0.0011680     1.6042380
  C        0.8192720     0.0003510    -0.5193240
  C        1.6340270     1.2570650    -0.2212640
  C        1.6341410    -1.2566790    -0.2229280
  C       -0.4461550    -0.0002880     0.3723060
  H        0.5101060     0.0010330    -1.5685180
  H        1.8714700     1.2810570     0.8460150
  H        2.5686810     1.2824310    -0.7973980
  H        1.0553630     2.1549570    -0.4631840
  H        1.8715790    -1.2820640     0.8443200
  H        2.5688000    -1.2811950    -0.7990910
  H        1.0661291    -2.1379138    -0.4615997
units angstrom
no_reorient  #important for SAPT in psi4, default
symmetry c1  #important for SAPT in psi4, default
}

set PROPERTIES_ORIGIN ["COM"]
properties('MP2/aug-cc-pvtz', properties = ['dipole'])
--------------------------------------------------------------------------

    Molecular point group: c1
  Charge       = -1
  Multiplicity = 1
  Basis Set: AUG-CC-PVTZ
    Blend: AUG-CC-PVTZ
  Basis Set: (AUG-CC-PVTZ AUX)
    Blend: AUG-CC-PVTZ-JKFIT

    Orbital Energies [Eh]
    ---------------------

    Doubly Occupied:

       1A    -91.704099     2A    -20.344089     3A    -11.158802
       4A    -11.082323     5A    -11.081608     6A    -11.079775
       7A     -8.706534     8A     -6.388061     9A     -6.386605
      10A     -6.386114    11A     -1.172148    12A     -0.929592
      13A     -0.797715    14A     -0.777404    15A     -0.663978
      16A     -0.538554    17A     -0.477103    18A     -0.462269
      19A     -0.432937    20A     -0.405912    21A     -0.381870
      22A     -0.366375    23A     -0.355999    24A     -0.328509
      25A     -0.313233    26A     -0.205357    27A     -0.142278
      28A     -0.131613

  @DF-RHF Final Energy:  -628.08078161279025

   => Energetics <=

    Nuclear Repulsion Energy =            283.7013071932140065
    One-Electron Energy =               -1437.1624633594719853
    Two-Electron Energy =                 525.3803745534677319
    Total Energy =                       -628.0807816127902470
  Basis Set: (AUG-CC-PVTZ AUX)
    Blend: AUG-CC-PVTZ-RI
    Molecular point group: c1

    Geometry (in Angstrom), charge = -1, multiplicity = 1:

       Center              X                  Y                   Z               Mass
    ------------   -----------------  -----------------  -----------------  -----------------
         S           -1.859832086914     0.000154106565    -0.453404067637    31.972071174400
         O           -0.118636086914    -0.001309893435     1.581005932363    15.994914619570
         C            0.929391913086     0.000209106565    -0.542556067637    12.000000000000
         C            1.744146913086     1.256923106565    -0.244496067637    12.000000000000
         C            1.744260913086    -1.256820893435    -0.246160067637    12.000000000000
         C           -0.336035086914    -0.000429893435     0.349073932363    12.000000000000
         H            0.620225913086     0.000891106565    -1.591750067637     1.007825032230
         H            1.981589913086     1.280915106565     0.822782932363     1.007825032230
         H            2.678800913086     1.282289106565    -0.820630067637     1.007825032230
         H            1.165482913086     2.154815106565    -0.486416067637     1.007825032230
         H            1.981698913086    -1.282205893435     0.821087932363     1.007825032230
         H            2.678919913086    -1.281336893435    -0.822323067637     1.007825032230
         H            1.176249013086    -2.138055693435    -0.484831767637     1.007825032230

  Basis Set: AUG-CC-PVTZ
    Blend: AUG-CC-PVTZ
  Basis Set: (AUG-CC-PVTZ AUX)
    Blend: AUG-CC-PVTZ-JKFIT
	 Reference Energy          =    -628.0807816127902470 [Eh]
	 Singles Energy            =      -0.0000000000000000 [Eh]
	 Same-Spin Energy          =      -0.2994404608546425 [Eh]
	 Opposite-Spin Energy      =      -0.9567240463974511 [Eh]
	 Correlation Energy        =      -1.2561645072520937 [Eh]
	 Total Energy              =    -629.3369461200422847 [Eh]

	 ================> DF-SCS-MP2 Energies <==================
	-----------------------------------------------------------
	 SCS Same-Spin Scale       =       0.3333333333333333 [-]
	 SCS Opposite-Spin Scale   =       1.2000000000000000 [-]
	 SCS Same-Spin Energy      =      -0.0998134869515475 [Eh]
	 SCS Opposite-Spin Energy  =      -1.1480688556769414 [Eh]
	 SCS Correlation Energy    =      -1.2478823426284888 [Eh]
	 SCS Total Energy          =    -629.3286639554187332 [Eh]
	-----------------------------------------------------------

  Dipole Moment: [D]
     X:     5.3249      Y:    -0.0146      Z:    -1.5198     Total:     5.5376

*** Psi4 exiting successfully. Buy a developer a beer!
