                               Psi4 1.4a3.dev225

  ==> Input File <==

--------------------------------------------------------------------------
#psi4
#
memory 32 gb

molecule  {
-1 1
  S       -1.9699520     0.0002960    -0.4301720
  O       -0.2287560    -0.0011680     1.6042380
  C        0.8192720     0.0003510    -0.5193240
  C        1.6340270     1.2570650    -0.2212640
  C        1.6341410    -1.2566790    -0.2229280
  C       -0.4461550    -0.0002880     0.3723060
  H        0.5101060     0.0010330    -1.5685180
  H        1.8714700     1.2810570     0.8460150
  H        2.5686810     1.2824310    -0.7973980
  H        1.0553630     2.1549570    -0.4631840
  H        1.8932899    -1.2843852     0.9419071
  H        2.5688000    -1.2811950    -0.7990910
  H        1.0555640    -2.1543050    -0.4660390
units angstrom
no_reorient  #important for SAPT in psi4, default
symmetry c1  #important for SAPT in psi4, default
}

set PROPERTIES_ORIGIN ["COM"]
properties('MP2/aug-cc-pvtz', properties = ['dipole'])
--------------------------------------------------------------------------

    Molecular point group: c1
  Charge       = -1
  Multiplicity = 1
  Basis Set: AUG-CC-PVTZ
    Blend: AUG-CC-PVTZ
  Basis Set: (AUG-CC-PVTZ AUX)
    Blend: AUG-CC-PVTZ-JKFIT

    Orbital Energies [Eh]
    ---------------------

    Doubly Occupied:

       1A    -91.704420     2A    -20.344120     3A    -11.159143
       4A    -11.094041     5A    -11.083348     6A    -11.082453
       7A     -8.706853     8A     -6.388380     9A     -6.386923
      10A     -6.386433    11A     -1.172195    12A     -0.928266
      13A     -0.792346    14A     -0.776588    15A     -0.661568
      16A     -0.536916    17A     -0.474994    18A     -0.461836
      19A     -0.433213    20A     -0.395115    21A     -0.382364
      22A     -0.363262    23A     -0.355572    24A     -0.325252
      25A     -0.313282    26A     -0.205645    27A     -0.142496
      28A     -0.131984

  @DF-RHF Final Energy:  -628.07418712622348

   => Energetics <=

    Nuclear Repulsion Energy =            283.2349563465514848
    One-Electron Energy =               -1436.2402688804456830
    Two-Electron Energy =                 524.9311254076706064
    Total Energy =                       -628.0741871262234781
  Basis Set: (AUG-CC-PVTZ AUX)
    Blend: AUG-CC-PVTZ-RI
    Molecular point group: c1

    Geometry (in Angstrom), charge = -1, multiplicity = 1:

       Center              X                  Y                   Z               Mass
    ------------   -----------------  -----------------  -----------------  -----------------
         S           -1.859941122288     0.000337163280    -0.454315299241    31.972071174400
         O           -0.118745122288    -0.001126836720     1.580094700759    15.994914619570
         C            0.929282877712     0.000392163280    -0.543467299241    12.000000000000
         C            1.744037877712     1.257106163280    -0.245407299241    12.000000000000
         C            1.744151877712    -1.256637836720    -0.247071299241    12.000000000000
         C           -0.336144122288    -0.000246836720     0.348162700759    12.000000000000
         H            0.620116877712     0.001074163280    -1.592661299241     1.007825032230
         H            1.981480877712     1.281098163280     0.821871700759     1.007825032230
         H            2.678691877712     1.282472163280    -0.821541299241     1.007825032230
         H            1.165373877712     2.154998163280    -0.487327299241     1.007825032230
         H            2.003300777712    -1.284344036720     0.917763800759     1.007825032230
         H            2.678810877712    -1.281153836720    -0.823234299241     1.007825032230
         H            1.165574877712    -2.154263836720    -0.490182299241     1.007825032230

  Basis Set: AUG-CC-PVTZ
    Blend: AUG-CC-PVTZ
  Basis Set: (AUG-CC-PVTZ AUX)
    Blend: AUG-CC-PVTZ-JKFIT
	 Reference Energy          =    -628.0741871262234781 [Eh]
	 Singles Energy            =      -0.0000000000000000 [Eh]
	 Same-Spin Energy          =      -0.2995620174792428 [Eh]
	 Opposite-Spin Energy      =      -0.9576754920241517 [Eh]
	 Correlation Energy        =      -1.2572375095033945 [Eh]
	 Total Energy              =    -629.3314246357268757 [Eh]

	 ================> DF-SCS-MP2 Energies <==================
	-----------------------------------------------------------
	 SCS Same-Spin Scale       =       0.3333333333333333 [-]
	 SCS Opposite-Spin Scale   =       1.2000000000000000 [-]
	 SCS Same-Spin Energy      =      -0.0998540058264143 [Eh]
	 SCS Opposite-Spin Energy  =      -1.1492105904289820 [Eh]
	 SCS Correlation Energy    =      -1.2490645962553963 [Eh]
	 SCS Total Energy          =    -629.3232517224788580 [Eh]
	-----------------------------------------------------------

  Dipole Moment: [D]
     X:     5.2788      Y:     0.0290      Z:    -1.5597     Total:     5.5044

*** Psi4 exiting successfully. Buy a developer a beer!
