                               Psi4 1.4a3.dev225

  ==> Input File <==

--------------------------------------------------------------------------
#psi4
#
memory 32 gb

molecule  {
-1 1
  S       -1.9699520     0.0002960    -0.4301720
  O       -0.2287560    -0.0011680     1.6042380
  C        0.8192720     0.0003510    -0.5193240
  C        1.6340270     1.2570650    -0.2212640
  C        1.6341410    -1.2566790    -0.2229280
  C       -0.4461550    -0.0002880     0.3723060
  H        0.5101060     0.0010330    -1.5685180
  H        1.8714700     1.2810570     0.8460150
  H        2.5686810     1.2824310    -0.7973980
  H        1.0553630     2.1549570    -0.4631840
  H        1.8715790    -1.2820640     0.8443200
  H        2.5688000    -1.2811950    -0.7990910
  H        1.1083897    -2.0723492    -0.4438423
units angstrom
no_reorient  #important for SAPT in psi4, default
symmetry c1  #important for SAPT in psi4, default
}

set PROPERTIES_ORIGIN ["COM"]
properties('MP2/aug-cc-pvtz', properties = ['dipole'])
--------------------------------------------------------------------------

    Molecular point group: c1
  Charge       = -1
  Multiplicity = 1
  Basis Set: AUG-CC-PVTZ
    Blend: AUG-CC-PVTZ
  Basis Set: (AUG-CC-PVTZ AUX)
    Blend: AUG-CC-PVTZ-JKFIT

    Orbital Energies [Eh]
    ---------------------

    Doubly Occupied:

       1A    -91.704072     2A    -20.343932     3A    -11.158599
       4A    -11.081563     5A    -11.080805     6A    -11.069504
       7A     -8.706507     8A     -6.388034     9A     -6.386580
      10A     -6.386088    11A     -1.171996    12A     -0.930990
      13A     -0.804034    14A     -0.777624    15A     -0.665628
      16A     -0.538406    17A     -0.484146    18A     -0.463957
      19A     -0.433490    20A     -0.406091    21A     -0.382779
      22A     -0.366155    23A     -0.359528    24A     -0.328238
      25A     -0.313130    26A     -0.205166    27A     -0.142248
      28A     -0.131559

  @DF-RHF Final Energy:  -628.07474223421298

   => Energetics <=

    Nuclear Repulsion Energy =            284.0639518668983783
    One-Electron Energy =               -1437.8556949369212816
    Two-Electron Energy =                 525.7170008358099267
    Total Energy =                       -628.0747422342129767
  Basis Set: (AUG-CC-PVTZ AUX)
    Blend: AUG-CC-PVTZ-RI
    Molecular point group: c1

    Geometry (in Angstrom), charge = -1, multiplicity = 1:

       Center              X                  Y                   Z               Mass
    ------------   -----------------  -----------------  -----------------  -----------------
         S           -1.860245507245    -0.000487288461    -0.453577781928    31.972071174400
         O           -0.119049507245    -0.001951288461     1.580832218072    15.994914619570
         C            0.928978492755    -0.000432288461    -0.542729781928    12.000000000000
         C            1.743733492755     1.256281711539    -0.244669781928    12.000000000000
         C            1.743847492755    -1.257462288461    -0.246333781928    12.000000000000
         C           -0.336448507245    -0.001071288461     0.348900218072    12.000000000000
         H            0.619812492755     0.000249711539    -1.591923781928     1.007825032230
         H            1.981176492755     1.280273711539     0.822609218072     1.007825032230
         H            2.678387492755     1.281647711539    -0.820803781928     1.007825032230
         H            1.165069492755     2.154173711539    -0.486589781928     1.007825032230
         H            1.981285492755    -1.282847288461     0.820914218072     1.007825032230
         H            2.678506492755    -1.281978288461    -0.822496781928     1.007825032230
         H            1.218096192755    -2.073132488461    -0.467248081928     1.007825032230

  Basis Set: AUG-CC-PVTZ
    Blend: AUG-CC-PVTZ
  Basis Set: (AUG-CC-PVTZ AUX)
    Blend: AUG-CC-PVTZ-JKFIT
	 Reference Energy          =    -628.0747422342129767 [Eh]
	 Singles Energy            =      -0.0000000000000000 [Eh]
	 Same-Spin Energy          =      -0.2994636888603177 [Eh]
	 Opposite-Spin Energy      =      -0.9563662128356221 [Eh]
	 Correlation Energy        =      -1.2558299016959398 [Eh]
	 Total Energy              =    -629.3305721359089375 [Eh]

	 ================> DF-SCS-MP2 Energies <==================
	-----------------------------------------------------------
	 SCS Same-Spin Scale       =       0.3333333333333333 [-]
	 SCS Opposite-Spin Scale   =       1.2000000000000000 [-]
	 SCS Same-Spin Energy      =      -0.0998212296201059 [Eh]
	 SCS Opposite-Spin Energy  =      -1.1476394554027465 [Eh]
	 SCS Correlation Energy    =      -1.2474606850228525 [Eh]
	 SCS Total Energy          =    -629.3222029192357923 [Eh]
	-----------------------------------------------------------

  Dipole Moment: [D]
     X:     5.3206      Y:    -0.0697      Z:    -1.5285     Total:     5.5362

*** Psi4 exiting successfully. Buy a developer a beer!
