                               Psi4 1.4a3.dev225

  ==> Input File <==

--------------------------------------------------------------------------
#psi4
#
memory 32 gb

molecule  {
-1 1
  S       -1.9699520     0.0002960    -0.4301720
  O       -0.2287560    -0.0011680     1.6042380
  C        0.8192720     0.0003510    -0.5193240
  C        1.6340270     1.2570650    -0.2212640
  C        1.6341410    -1.2566790    -0.2229280
  C       -0.4461550    -0.0002880     0.3723060
  H        0.5101060     0.0010330    -1.5685180
  H        1.8714700     1.2810570     0.8460150
  H        2.5686810     1.2824310    -0.7973980
  H        1.0025294     2.2369370    -0.4852720
  H        1.8715790    -1.2820640     0.8443200
  H        2.5688000    -1.2811950    -0.7990910
  H        1.0555640    -2.1543050    -0.4660390
units angstrom
no_reorient  #important for SAPT in psi4, default
symmetry c1  #important for SAPT in psi4, default
}

set PROPERTIES_ORIGIN ["COM"]
properties('MP2/aug-cc-pvtz', properties = ['dipole'])
--------------------------------------------------------------------------

    Molecular point group: c1
  Charge       = -1
  Multiplicity = 1
  Basis Set: AUG-CC-PVTZ
    Blend: AUG-CC-PVTZ
  Basis Set: (AUG-CC-PVTZ AUX)
    Blend: AUG-CC-PVTZ-JKFIT

    Orbital Energies [Eh]
    ---------------------

    Doubly Occupied:

       1A    -91.704179     2A    -20.344419     3A    -11.159234
       4A    -11.094722     5A    -11.083775     6A    -11.083045
       7A     -8.706611     8A     -6.388139     9A     -6.386681
      10A     -6.386191    11A     -1.172483    12A     -0.928914
      13A     -0.791732    14A     -0.776918    15A     -0.662425
      16A     -0.539212    17A     -0.472615    18A     -0.457782
      19A     -0.431768    20A     -0.406012    21A     -0.381082
      22A     -0.366937    23A     -0.348214    24A     -0.328729
      25A     -0.313105    26A     -0.205760    27A     -0.142349
      28A     -0.131740

  @DF-RHF Final Energy:  -628.07439250417804

   => Energetics <=

    Nuclear Repulsion Energy =            283.2201029553814351
    One-Electron Energy =               -1436.1994448849466153
    Two-Electron Energy =                 524.9049494253871444
    Total Energy =                       -628.0743925041780358
  Basis Set: (AUG-CC-PVTZ AUX)
    Blend: AUG-CC-PVTZ-RI
    Molecular point group: c1

    Geometry (in Angstrom), charge = -1, multiplicity = 1:

       Center              X                  Y                   Z               Mass
    ------------   -----------------  -----------------  -----------------  -----------------
         S           -1.859211880113    -0.000487525201    -0.453144560551    31.972071174400
         O           -0.118015880113    -0.001951525201     1.581265439449    15.994914619570
         C            0.930012119887    -0.000432525201    -0.542296560551    12.000000000000
         C            1.744767119887     1.256281474799    -0.244236560551    12.000000000000
         C            1.744881119887    -1.257462525201    -0.245900560551    12.000000000000
         C           -0.335414880113    -0.001071525201     0.349333439449    12.000000000000
         H            0.620846119887     0.000249474799    -1.591490560551     1.007825032230
         H            1.982210119887     1.280273474799     0.823042439449     1.007825032230
         H            2.679421119887     1.281647474799    -0.820370560551     1.007825032230
         H            1.113269519887     2.236153474799    -0.508244560551     1.007825032230
         H            1.982319119887    -1.282847525201     0.821347439449     1.007825032230
         H            2.679540119887    -1.281978525201    -0.822063560551     1.007825032230
         H            1.166304119887    -2.155088525201    -0.489011560551     1.007825032230

  Basis Set: AUG-CC-PVTZ
    Blend: AUG-CC-PVTZ
  Basis Set: (AUG-CC-PVTZ AUX)
    Blend: AUG-CC-PVTZ-JKFIT
	 Reference Energy          =    -628.0743925041780358 [Eh]
	 Singles Energy            =      -0.0000000000000000 [Eh]
	 Same-Spin Energy          =      -0.2994313966641726 [Eh]
	 Opposite-Spin Energy      =      -0.9575421308463581 [Eh]
	 Correlation Energy        =      -1.2569735275105307 [Eh]
	 Total Energy              =    -629.3313660316886171 [Eh]

	 ================> DF-SCS-MP2 Energies <==================
	-----------------------------------------------------------
	 SCS Same-Spin Scale       =       0.3333333333333333 [-]
	 SCS Opposite-Spin Scale   =       1.2000000000000000 [-]
	 SCS Same-Spin Energy      =      -0.0998104655547242 [Eh]
	 SCS Opposite-Spin Energy  =      -1.1490505570156297 [Eh]
	 SCS Correlation Energy    =      -1.2488610225703540 [Eh]
	 SCS Total Energy          =    -629.3232535267484309 [Eh]
	-----------------------------------------------------------

  Dipole Moment: [D]
     X:     5.3370      Y:    -0.0889      Z:    -1.5027     Total:     5.5452

*** Psi4 exiting successfully. Buy a developer a beer!
