                               Psi4 1.4a3.dev225

  ==> Input File <==

--------------------------------------------------------------------------
#psi4
#
memory 32 gb

molecule  {
-1 1
  S       -1.9699520     0.0002960    -0.4301720
  O       -0.2287560    -0.0011680     1.6042380
  C        0.8192720     0.0003510    -0.5193240
  C        1.6340270     1.2570650    -0.2212640
  C        1.6341410    -1.2566790    -0.2229280
  C       -0.4461550    -0.0002880     0.3723060
  H        0.5101060     0.0010330    -1.5685180
  H        1.8714700     1.2810570     0.8460150
  H        2.5686810     1.2824310    -0.7973980
  H        1.0553630     2.1549570    -0.4631840
  H        1.8715790    -1.2820640     0.8443200
  H        2.5875352    -1.2144179    -0.7664404
  H        1.0555640    -2.1543050    -0.4660390
units angstrom
no_reorient  #important for SAPT in psi4, default
symmetry c1  #important for SAPT in psi4, default
}

set PROPERTIES_ORIGIN ["COM"]
properties('MP2/aug-cc-pvtz', properties = ['dipole'])
--------------------------------------------------------------------------

    Molecular point group: c1
  Charge       = -1
  Multiplicity = 1
  Basis Set: AUG-CC-PVTZ
    Blend: AUG-CC-PVTZ
  Basis Set: (AUG-CC-PVTZ AUX)
    Blend: AUG-CC-PVTZ-JKFIT

    Orbital Energies [Eh]
    ---------------------

    Doubly Occupied:

       1A    -91.704007     2A    -20.343902     3A    -11.158538
       4A    -11.082671     5A    -11.082479     6A    -11.081367
       7A     -8.706443     8A     -6.387970     9A     -6.386515
      10A     -6.386024    11A     -1.171967    12A     -0.929798
      13A     -0.796175    14A     -0.777333    15A     -0.663305
      16A     -0.538695    17A     -0.475035    18A     -0.463617
      19A     -0.433507    20A     -0.403937    21A     -0.382398
      22A     -0.365562    23A     -0.356584    24A     -0.328449
      25A     -0.312343    26A     -0.205142    27A     -0.142215
      28A     -0.131490

  @DF-RHF Final Energy:  -628.08021495204844

   => Energetics <=

    Nuclear Repulsion Energy =            283.6824975181084483
    One-Electron Energy =               -1437.1304928223105435
    Two-Electron Energy =                 525.3677803521536589
    Total Energy =                       -628.0802149520484363
  Basis Set: (AUG-CC-PVTZ AUX)
    Blend: AUG-CC-PVTZ-RI
    Molecular point group: c1

    Geometry (in Angstrom), charge = -1, multiplicity = 1:

       Center              X                  Y                   Z               Mass
    ------------   -----------------  -----------------  -----------------  -----------------
         S           -1.859912012079    -0.000338800669    -0.453680048692    31.972071174400
         O           -0.118716012079    -0.001802800669     1.580729951308    15.994914619570
         C            0.929311987921    -0.000283800669    -0.542832048692    12.000000000000
         C            1.744066987921     1.256430199331    -0.244772048692    12.000000000000
         C            1.744180987921    -1.257313800669    -0.246436048692    12.000000000000
         C           -0.336115012079    -0.000922800669     0.348797951308    12.000000000000
         H            0.620145987921     0.000398199331    -1.592026048692     1.007825032230
         H            1.981509987921     1.280422199331     0.822506951308     1.007825032230
         H            2.678720987921     1.281796199331    -0.820906048692     1.007825032230
         H            1.165402987921     2.154322199331    -0.486692048692     1.007825032230
         H            1.981618987921    -1.282698800669     0.820811951308     1.007825032230
         H            2.697575187921    -1.215052700669    -0.789948448692     1.007825032230
         H            1.165603987921    -2.154939800669    -0.489547048692     1.007825032230

  Basis Set: AUG-CC-PVTZ
    Blend: AUG-CC-PVTZ
  Basis Set: (AUG-CC-PVTZ AUX)
    Blend: AUG-CC-PVTZ-JKFIT
	 Reference Energy          =    -628.0802149520484363 [Eh]
	 Singles Energy            =      -0.0000000000000000 [Eh]
	 Same-Spin Energy          =      -0.2995111475386686 [Eh]
	 Opposite-Spin Energy      =      -0.9569513513398472 [Eh]
	 Correlation Energy        =      -1.2564624988785158 [Eh]
	 Total Energy              =    -629.3366774509269135 [Eh]

	 ================> DF-SCS-MP2 Energies <==================
	-----------------------------------------------------------
	 SCS Same-Spin Scale       =       0.3333333333333333 [-]
	 SCS Opposite-Spin Scale   =       1.2000000000000000 [-]
	 SCS Same-Spin Energy      =      -0.0998370491795562 [Eh]
	 SCS Opposite-Spin Energy  =      -1.1483416216078166 [Eh]
	 SCS Correlation Energy    =      -1.2481786707873728 [Eh]
	 SCS Total Energy          =    -629.3283936228358471 [Eh]
	-----------------------------------------------------------

  Dipole Moment: [D]
     X:     5.3332      Y:     0.0186      Z:    -1.5021     Total:     5.5407

*** Psi4 exiting successfully. Buy a developer a beer!
