                               Psi4 1.4a3.dev225

  ==> Input File <==

--------------------------------------------------------------------------
#psi4
#
memory 32 gb

molecule  {
-1 1
  S       -1.9699520     0.0002960    -0.4301720
  O       -0.2287560    -0.0011680     1.6042380
  C        0.8192720     0.0003510    -0.5193240
  C        1.7407341     1.4216547    -0.1822276
  C        1.6341410    -1.2566790    -0.2229280
  C       -0.4461550    -0.0002880     0.3723060
  H        0.5101060     0.0010330    -1.5685180
  H        1.8714700     1.2810570     0.8460150
  H        2.5686810     1.2824310    -0.7973980
  H        1.0553630     2.1549570    -0.4631840
  H        1.8715790    -1.2820640     0.8443200
  H        2.5688000    -1.2811950    -0.7990910
  H        1.0555640    -2.1543050    -0.4660390
units angstrom
no_reorient  #important for SAPT in psi4, default
symmetry c1  #important for SAPT in psi4, default
}

set PROPERTIES_ORIGIN ["COM"]
properties('MP2/aug-cc-pvtz', properties = ['dipole'])
--------------------------------------------------------------------------

    Molecular point group: c1
  Charge       = -1
  Multiplicity = 1
  Basis Set: AUG-CC-PVTZ
    Blend: AUG-CC-PVTZ
  Basis Set: (AUG-CC-PVTZ AUX)
    Blend: AUG-CC-PVTZ-JKFIT

    Orbital Energies [Eh]
    ---------------------

    Doubly Occupied:

       1A    -91.704389     2A    -20.343650     3A    -11.158928
       4A    -11.091560     5A    -11.083462     6A    -11.079158
       7A     -8.706829     8A     -6.388354     9A     -6.386899
      10A     -6.386407    11A     -1.171238    12A     -0.910535
      13A     -0.801414    14A     -0.778039    15A     -0.665401
      16A     -0.533359    17A     -0.475360    18A     -0.468408
      19A     -0.435296    20A     -0.423241    21A     -0.391360
      22A     -0.370754    23A     -0.350096    24A     -0.329146
      25A     -0.279630    26A     -0.204601    27A     -0.142332
      28A     -0.131374

  @DF-RHF Final Energy:  -628.05533572641957

   => Energetics <=

    Nuclear Repulsion Energy =            280.5286894465927503
    One-Electron Energy =               -1430.7856091843150352
    Two-Electron Energy =                 522.2015840113026570
    Total Energy =                       -628.0553357264195711
  Basis Set: (AUG-CC-PVTZ AUX)
    Blend: AUG-CC-PVTZ-RI
    Molecular point group: c1

    Geometry (in Angstrom), charge = -1, multiplicity = 1:

       Center              X                  Y                   Z               Mass
    ------------   -----------------  -----------------  -----------------  -----------------
         S           -1.872158001509    -0.018856992828    -0.457907609002    31.972071174400
         O           -0.130962001509    -0.020320992828     1.576502390998    15.994914619570
         C            0.917065998491    -0.018801992828    -0.547059609002    12.000000000000
         C            1.838528098491     1.402501707172    -0.209963209002    12.000000000000
         C            1.731934998491    -1.275831992828    -0.250663609002    12.000000000000
         C           -0.348361001509    -0.019440992828     0.344570390998    12.000000000000
         H            0.607899998491    -0.018119992828    -1.596253609002     1.007825032230
         H            1.969263998491     1.261904007172     0.818279390998     1.007825032230
         H            2.666474998491     1.263278007172    -0.825133609002     1.007825032230
         H            1.153156998491     2.135804007172    -0.490919609002     1.007825032230
         H            1.969372998491    -1.301216992828     0.816584390998     1.007825032230
         H            2.666593998491    -1.300347992828    -0.826826609002     1.007825032230
         H            1.153357998491    -2.173457992828    -0.493774609002     1.007825032230

  Basis Set: AUG-CC-PVTZ
    Blend: AUG-CC-PVTZ
  Basis Set: (AUG-CC-PVTZ AUX)
    Blend: AUG-CC-PVTZ-JKFIT
	 Reference Energy          =    -628.0553357264195711 [Eh]
	 Singles Energy            =      -0.0000000000000000 [Eh]
	 Same-Spin Energy          =      -0.2995149254121628 [Eh]
	 Opposite-Spin Energy      =      -0.9580198808748646 [Eh]
	 Correlation Energy        =      -1.2575348062870275 [Eh]
	 Total Energy              =    -629.3128705327065973 [Eh]

	 ================> DF-SCS-MP2 Energies <==================
	-----------------------------------------------------------
	 SCS Same-Spin Scale       =       0.3333333333333333 [-]
	 SCS Opposite-Spin Scale   =       1.2000000000000000 [-]
	 SCS Same-Spin Energy      =      -0.0998383084707209 [Eh]
	 SCS Opposite-Spin Energy  =      -1.1496238570498374 [Eh]
	 SCS Correlation Energy    =      -1.2494621655205582 [Eh]
	 SCS Total Energy          =    -629.3047978919400975 [Eh]
	-----------------------------------------------------------

  Dipole Moment: [D]
     X:     5.3163      Y:    -0.0614      Z:    -1.5607     Total:     5.5410

*** Psi4 exiting successfully. Buy a developer a beer!
