                               Psi4 1.4a3.dev225

  ==> Input File <==

--------------------------------------------------------------------------
#psi4
#
memory 32 gb

molecule  {
-1 1
  S       -1.9699520     0.0002960    -0.4301720
  O       -0.2287560    -0.0011680     1.6042380
  C        0.8192720     0.0003510    -0.5193240
  C        1.6340270     1.2570650    -0.2212640
  C        1.6341410    -1.2566790    -0.2229280
  C       -0.4461550    -0.0002880     0.3723060
  H        0.5101060     0.0010330    -1.5685180
  H        1.8714700     1.2810570     0.8460150
  H        2.5686810     1.2824310    -0.7973980
  H        1.0553630     2.1549570    -0.4631840
  H        1.8715790    -1.2820640     0.8443200
  H        2.5688000    -1.2811950    -0.7990910
  H        1.0291511    -2.1952829    -0.4771374
units angstrom
no_reorient  #important for SAPT in psi4, default
symmetry c1  #important for SAPT in psi4, default
}

set PROPERTIES_ORIGIN ["COM"]
properties('MP2/aug-cc-pvtz', properties = ['dipole'])
--------------------------------------------------------------------------

    Molecular point group: c1
  Charge       = -1
  Multiplicity = 1
  Basis Set: AUG-CC-PVTZ
    Blend: AUG-CC-PVTZ
  Basis Set: (AUG-CC-PVTZ AUX)
    Blend: AUG-CC-PVTZ-JKFIT

    Orbital Energies [Eh]
    ---------------------

    Doubly Occupied:

       1A    -91.704139     2A    -20.344266     3A    -11.159034
       4A    -11.088637     5A    -11.083115     6A    -11.082371
       7A     -8.706572     8A     -6.388100     9A     -6.386643
      10A     -6.386153    11A     -1.172326    12A     -0.929022
      13A     -0.793757    14A     -0.777140    15A     -0.662937
      16A     -0.538879    17A     -0.473715    18A     -0.459754
      19A     -0.432296    20A     -0.405910    21A     -0.381304
      22A     -0.366670    23A     -0.351778    24A     -0.328704
      25A     -0.313235    26A     -0.205574    27A     -0.142315
      28A     -0.131679

  @DF-RHF Final Energy:  -628.07871885854058

   => Energetics <=

    Nuclear Repulsion Energy =            283.4125708518197371
    One-Electron Energy =               -1436.5905287038792721
    Two-Electron Energy =                 525.0992389935189522
    Total Energy =                       -628.0787188585405829
  Basis Set: (AUG-CC-PVTZ AUX)
    Blend: AUG-CC-PVTZ-RI
    Molecular point group: c1

    Geometry (in Angstrom), charge = -1, multiplicity = 1:

       Center              X                  Y                   Z               Mass
    ------------   -----------------  -----------------  -----------------  -----------------
         S           -1.859470344369     0.000715327946    -0.453252067876    31.972071174400
         O           -0.118274344369    -0.000748672054     1.581157932124    15.994914619570
         C            0.929753655631     0.000770327946    -0.542404067876    12.000000000000
         C            1.744508655631     1.257484327946    -0.244344067876    12.000000000000
         C            1.744622655631    -1.256259672054    -0.246008067876    12.000000000000
         C           -0.335673344369     0.000131327946     0.349225932124    12.000000000000
         H            0.620587655631     0.001452327946    -1.591598067876     1.007825032230
         H            1.981951655631     1.281476327946     0.822934932124     1.007825032230
         H            2.679162655631     1.282850327946    -0.820478067876     1.007825032230
         H            1.165844655631     2.155376327946    -0.486264067876     1.007825032230
         H            1.982060655631    -1.281644672054     0.821239932124     1.007825032230
         H            2.679281655631    -1.280775672054    -0.822171067876     1.007825032230
         H            1.139632755631    -2.194863572054    -0.500217467876     1.007825032230

  Basis Set: AUG-CC-PVTZ
    Blend: AUG-CC-PVTZ
  Basis Set: (AUG-CC-PVTZ AUX)
    Blend: AUG-CC-PVTZ-JKFIT
	 Reference Energy          =    -628.0787188585405829 [Eh]
	 Singles Energy            =      -0.0000000000000000 [Eh]
	 Same-Spin Energy          =      -0.2994345318551871 [Eh]
	 Opposite-Spin Energy      =      -0.9571708612024226 [Eh]
	 Correlation Energy        =      -1.2566053930576095 [Eh]
	 Total Energy              =    -629.3353242515981947 [Eh]

	 ================> DF-SCS-MP2 Energies <==================
	-----------------------------------------------------------
	 SCS Same-Spin Scale       =       0.3333333333333333 [-]
	 SCS Opposite-Spin Scale   =       1.2000000000000000 [-]
	 SCS Same-Spin Energy      =      -0.0998115106183957 [Eh]
	 SCS Opposite-Spin Energy  =      -1.1486050334429070 [Eh]
	 SCS Correlation Energy    =      -1.2484165440613026 [Eh]
	 SCS Total Energy          =    -629.3271354026019253 [Eh]
	-----------------------------------------------------------

  Dipole Moment: [D]
     X:     5.3312      Y:     0.0438      Z:    -1.5103     Total:     5.5412

*** Psi4 exiting successfully. Buy a developer a beer!
