                               Psi4 1.4a3.dev225

  ==> Input File <==

--------------------------------------------------------------------------
#psi4
#
memory 32 gb

molecule  {
-1 1
  S       -1.9699520     0.0002960    -0.4301720
  O       -0.2287560    -0.0011680     1.6042380
  C        0.8192720     0.0003510    -0.5193240
  C        1.6340270     1.2570650    -0.2212640
  C        1.6341410    -1.2566790    -0.2229280
  C       -0.4461550    -0.0002880     0.3723060
  H        0.5044529     0.0010455    -1.5877024
  H        1.8714700     1.2810570     0.8460150
  H        2.5686810     1.2824310    -0.7973980
  H        1.0553630     2.1549570    -0.4631840
  H        1.8715790    -1.2820640     0.8443200
  H        2.5688000    -1.2811950    -0.7990910
  H        1.0555640    -2.1543050    -0.4660390
units angstrom
no_reorient  #important for SAPT in psi4, default
symmetry c1  #important for SAPT in psi4, default
}

set PROPERTIES_ORIGIN ["COM"]
properties('MP2/aug-cc-pvtz', properties = ['dipole'])
--------------------------------------------------------------------------

    Molecular point group: c1
  Charge       = -1
  Multiplicity = 1
  Basis Set: AUG-CC-PVTZ
    Blend: AUG-CC-PVTZ
  Basis Set: (AUG-CC-PVTZ AUX)
    Blend: AUG-CC-PVTZ-JKFIT

    Orbital Energies [Eh]
    ---------------------

    Doubly Occupied:

       1A    -91.704055     2A    -20.344325     3A    -11.159075
       4A    -11.084516     5A    -11.082558     6A    -11.082453
       7A     -8.706491     8A     -6.388018     9A     -6.386562
      10A     -6.386070    11A     -1.172379    12A     -0.928708
      13A     -0.796588    14A     -0.777275    15A     -0.662499
      16A     -0.536812    17A     -0.475543    18A     -0.461741
      19A     -0.432919    20A     -0.406006    21A     -0.381805
      22A     -0.366344    23A     -0.355072    24A     -0.326379
      25A     -0.313457    26A     -0.205553    27A     -0.142271
      28A     -0.131502

  @DF-RHF Final Energy:  -628.08018186673598

   => Energetics <=

    Nuclear Repulsion Energy =            283.5183733082996014
    One-Electron Energy =               -1436.8031607528671429
    Two-Electron Energy =                 525.2046055778314440
    Total Energy =                       -628.0801818667359839
  Basis Set: (AUG-CC-PVTZ AUX)
    Blend: AUG-CC-PVTZ-RI
    Molecular point group: c1

    Geometry (in Angstrom), charge = -1, multiplicity = 1:

       Center              X                  Y                   Z               Mass
    ------------   -----------------  -----------------  -----------------  -----------------
         S           -1.859673430065     0.000314333527    -0.453172965431    31.972071174400
         O           -0.118477430065    -0.001149666473     1.581237034569    15.994914619570
         C            0.929550569935     0.000369333527    -0.542324965431    12.000000000000
         C            1.744305569935     1.257083333527    -0.244264965431    12.000000000000
         C            1.744419569935    -1.256660666473    -0.245928965431    12.000000000000
         C           -0.335876430065    -0.000269666473     0.349305034569    12.000000000000
         H            0.614731469935     0.001063833527    -1.610703365431     1.007825032230
         H            1.981748569935     1.281075333527     0.823014034569     1.007825032230
         H            2.678959569935     1.282449333527    -0.820398965431     1.007825032230
         H            1.165641569935     2.154975333527    -0.486184965431     1.007825032230
         H            1.981857569935    -1.282045666473     0.821319034569     1.007825032230
         H            2.679078569935    -1.281176666473    -0.822091965431     1.007825032230
         H            1.165842569935    -2.154286666473    -0.489039965431     1.007825032230

  Basis Set: AUG-CC-PVTZ
    Blend: AUG-CC-PVTZ
  Basis Set: (AUG-CC-PVTZ AUX)
    Blend: AUG-CC-PVTZ-JKFIT
	 Reference Energy          =    -628.0801818667359839 [Eh]
	 Singles Energy            =      -0.0000000000000000 [Eh]
	 Same-Spin Energy          =      -0.2994709891191003 [Eh]
	 Opposite-Spin Energy      =      -0.9570110532449050 [Eh]
	 Correlation Energy        =      -1.2564820423640053 [Eh]
	 Total Energy              =    -629.3366639091000252 [Eh]

	 ================> DF-SCS-MP2 Energies <==================
	-----------------------------------------------------------
	 SCS Same-Spin Scale       =       0.3333333333333333 [-]
	 SCS Opposite-Spin Scale   =       1.2000000000000000 [-]
	 SCS Same-Spin Energy      =      -0.0998236630397001 [Eh]
	 SCS Opposite-Spin Energy  =      -1.1484132638938860 [Eh]
	 SCS Correlation Energy    =      -1.2482369269335860 [Eh]
	 SCS Total Energy          =    -629.3284187936695844 [Eh]
	-----------------------------------------------------------

  Dipole Moment: [D]
     X:     5.3274      Y:     0.0011      Z:    -1.5074     Total:     5.5366

*** Psi4 exiting successfully. Buy a developer a beer!
