                               Psi4 1.4a3.dev225

  ==> Input File <==

--------------------------------------------------------------------------
#psi4
#
memory 32 gb

molecule  {
-1 1
  S       -1.9699520     0.0002960    -0.4301720
  O       -0.2287560    -0.0011680     1.6042380
  C        0.8192720     0.0003510    -0.5193240
  C        1.6340270     1.2570650    -0.2212640
  C        1.6341410    -1.2566790    -0.2229280
  C       -0.4461550    -0.0002880     0.3723060
  H        0.5101060     0.0010330    -1.5685180
  H        1.8714700     1.2810570     0.8460150
  H        2.5686810     1.2824310    -0.7973980
  H        1.0553630     2.1549570    -0.4631840
  H        1.8498681    -1.2797428     0.7467329
  H        2.5688000    -1.2811950    -0.7990910
  H        1.0555640    -2.1543050    -0.4660390
units angstrom
no_reorient  #important for SAPT in psi4, default
symmetry c1  #important for SAPT in psi4, default
}

set PROPERTIES_ORIGIN ["COM"]
properties('MP2/aug-cc-pvtz', properties = ['dipole'])
--------------------------------------------------------------------------

    Molecular point group: c1
  Charge       = -1
  Multiplicity = 1
  Basis Set: AUG-CC-PVTZ
    Blend: AUG-CC-PVTZ
  Basis Set: (AUG-CC-PVTZ AUX)
    Blend: AUG-CC-PVTZ-JKFIT

    Orbital Energies [Eh]
    ---------------------

    Doubly Occupied:

       1A    -91.703870     2A    -20.344191     3A    -11.158666
       4A    -11.082312     5A    -11.080869     6A    -11.070141
       7A     -8.706305     8A     -6.387832     9A     -6.386377
      10A     -6.385886    11A     -1.172226    12A     -0.931637
      13A     -0.803220    14A     -0.777945    15A     -0.666598
      16A     -0.541212    17A     -0.477622    18A     -0.461669
      19A     -0.433346    20A     -0.417541    21A     -0.381188
      22A     -0.368447    23A     -0.354383    24A     -0.330506
      25A     -0.313044    26A     -0.205231    27A     -0.142133
      28A     -0.131356

  @DF-RHF Final Energy:  -628.07475221495724

   => Energetics <=

    Nuclear Repulsion Energy =            284.0459815065029261
    One-Electron Energy =               -1437.8099640053330859
    Two-Electron Energy =                 525.6892302838728028
    Total Energy =                       -628.0747522149572433
  Basis Set: (AUG-CC-PVTZ AUX)
    Blend: AUG-CC-PVTZ-RI
    Molecular point group: c1

    Geometry (in Angstrom), charge = -1, multiplicity = 1:

       Center              X                  Y                   Z               Mass
    ------------   -----------------  -----------------  -----------------  -----------------
         S           -1.859516342353     0.000291748341    -0.452405979865    31.972071174400
         O           -0.118320342353    -0.001172251659     1.582004020135    15.994914619570
         C            0.929707657647     0.000346748341    -0.541557979865    12.000000000000
         C            1.744462657647     1.257060748341    -0.243497979865    12.000000000000
         C            1.744576657647    -1.256683251659    -0.245161979865    12.000000000000
         C           -0.335719342353    -0.000292251659     0.350072020135    12.000000000000
         H            0.620541657647     0.001028748341    -1.590751979865     1.007825032230
         H            1.981905657647     1.281052748341     0.823781020135     1.007825032230
         H            2.679116657647     1.282426748341    -0.819631979865     1.007825032230
         H            1.165798657647     2.154952748341    -0.485417979865     1.007825032230
         H            1.960303757647    -1.279747051659     0.724498920135     1.007825032230
         H            2.679235657647    -1.281199251659    -0.821324979865     1.007825032230
         H            1.165999657647    -2.154309251659    -0.488272979865     1.007825032230

  Basis Set: AUG-CC-PVTZ
    Blend: AUG-CC-PVTZ
  Basis Set: (AUG-CC-PVTZ AUX)
    Blend: AUG-CC-PVTZ-JKFIT
	 Reference Energy          =    -628.0747522149572433 [Eh]
	 Singles Energy            =      -0.0000000000000000 [Eh]
	 Same-Spin Energy          =      -0.2993477059979211 [Eh]
	 Opposite-Spin Energy      =      -0.9562673248884386 [Eh]
	 Correlation Energy        =      -1.2556150308863596 [Eh]
	 Total Energy              =    -629.3303672458436040 [Eh]

	 ================> DF-SCS-MP2 Energies <==================
	-----------------------------------------------------------
	 SCS Same-Spin Scale       =       0.3333333333333333 [-]
	 SCS Opposite-Spin Scale   =       1.2000000000000000 [-]
	 SCS Same-Spin Energy      =      -0.0997825686659737 [Eh]
	 SCS Opposite-Spin Energy  =      -1.1475207898661262 [Eh]
	 SCS Correlation Energy    =      -1.2473033585320998 [Eh]
	 SCS Total Energy          =    -629.3220555734893651 [Eh]
	-----------------------------------------------------------

  Dipole Moment: [D]
     X:     5.3658      Y:    -0.0217      Z:    -1.4877     Total:     5.5683

*** Psi4 exiting successfully. Buy a developer a beer!
