                               Psi4 1.4a3.dev225

  ==> Input File <==

--------------------------------------------------------------------------
#psi4
#
memory 32 gb

molecule  {
-1 1
  S       -1.9699520     0.0002960    -0.4301720
  O       -0.2287560    -0.0011680     1.6042380
  C        0.8192720     0.0003510    -0.5193240
  C        1.6340270     1.2570650    -0.2212640
  C        1.6341410    -1.2566790    -0.2229280
  C       -0.4461550    -0.0002880     0.3723060
  H        0.5101060     0.0010330    -1.5685180
  H        1.8714700     1.2810570     0.8460150
  H        2.5686810     1.2824310    -0.7973980
  H        1.0553630     2.1549570    -0.4631840
  H        1.8672368    -1.2815998     0.8248026
  H        2.5688000    -1.2811950    -0.7990910
  H        1.0555640    -2.1543050    -0.4660390
units angstrom
no_reorient  #important for SAPT in psi4, default
symmetry c1  #important for SAPT in psi4, default
}

set PROPERTIES_ORIGIN ["COM"]
properties('MP2/aug-cc-pvtz', properties = ['dipole'])
--------------------------------------------------------------------------

    Molecular point group: c1
  Charge       = -1
  Multiplicity = 1
  Basis Set: AUG-CC-PVTZ
    Blend: AUG-CC-PVTZ
  Basis Set: (AUG-CC-PVTZ AUX)
    Blend: AUG-CC-PVTZ-JKFIT

    Orbital Energies [Eh]
    ---------------------

    Doubly Occupied:

       1A    -91.704056     2A    -20.344144     3A    -11.158817
       4A    -11.082470     5A    -11.081643     6A    -11.079903
       7A     -8.706490     8A     -6.388017     9A     -6.386561
      10A     -6.386071    11A     -1.172199    12A     -0.929722
      13A     -0.797564    14A     -0.777472    15A     -0.664164
      16A     -0.539073    17A     -0.476141    18A     -0.461621
      19A     -0.432771    20A     -0.408275    21A     -0.381567
      22A     -0.366934    23A     -0.354781    24A     -0.329048
      25A     -0.313210    26A     -0.205374    27A     -0.142253
      28A     -0.131569

  @DF-RHF Final Energy:  -628.08080123637399

   => Energetics <=

    Nuclear Repulsion Energy =            283.6979628063258474
    One-Electron Energy =               -1437.1537091380130278
    Two-Electron Energy =                 525.3749450953131372
    Total Energy =                       -628.0808012363739863
  Basis Set: (AUG-CC-PVTZ AUX)
    Blend: AUG-CC-PVTZ-RI
    Molecular point group: c1

    Geometry (in Angstrom), charge = -1, multiplicity = 1:

       Center              X                  Y                   Z               Mass
    ------------   -----------------  -----------------  -----------------  -----------------
         S           -1.859686254131     0.000309914708    -0.453169707811    31.972071174400
         O           -0.118490254131    -0.001154085292     1.581240292189    15.994914619570
         C            0.929537745869     0.000364914708    -0.542321707811    12.000000000000
         C            1.744292745869     1.257078914708    -0.244261707811    12.000000000000
         C            1.744406745869    -1.256665085292    -0.245925707811    12.000000000000
         C           -0.335889254131    -0.000274085292     0.349308292189    12.000000000000
         H            0.620371745869     0.001046914708    -1.591515707811     1.007825032230
         H            1.981735745869     1.281070914708     0.823017292189     1.007825032230
         H            2.678946745869     1.282444914708    -0.820395707811     1.007825032230
         H            1.165628745869     2.154970914708    -0.486181707811     1.007825032230
         H            1.977502545869    -1.281585885292     0.801804892189     1.007825032230
         H            2.679065745869    -1.281181085292    -0.822088707811     1.007825032230
         H            1.165829745869    -2.154291085292    -0.489036707811     1.007825032230

  Basis Set: AUG-CC-PVTZ
    Blend: AUG-CC-PVTZ
  Basis Set: (AUG-CC-PVTZ AUX)
    Blend: AUG-CC-PVTZ-JKFIT
	 Reference Energy          =    -628.0808012363739863 [Eh]
	 Singles Energy            =      -0.0000000000000000 [Eh]
	 Same-Spin Energy          =      -0.2994160522709772 [Eh]
	 Opposite-Spin Energy      =      -0.9567018150910293 [Eh]
	 Correlation Energy        =      -1.2561178673620064 [Eh]
	 Total Energy              =    -629.3369191037360224 [Eh]

	 ================> DF-SCS-MP2 Energies <==================
	-----------------------------------------------------------
	 SCS Same-Spin Scale       =       0.3333333333333333 [-]
	 SCS Opposite-Spin Scale   =       1.2000000000000000 [-]
	 SCS Same-Spin Energy      =      -0.0998053507569924 [Eh]
	 SCS Opposite-Spin Energy  =      -1.1480421781092351 [Eh]
	 SCS Correlation Energy    =      -1.2478475288662276 [Eh]
	 SCS Total Energy          =    -629.3286487652402457 [Eh]
	-----------------------------------------------------------

  Dipole Moment: [D]
     X:     5.3350      Y:    -0.0038      Z:    -1.5103     Total:     5.5447

*** Psi4 exiting successfully. Buy a developer a beer!
