                               Psi4 1.4a3.dev225

  ==> Input File <==

--------------------------------------------------------------------------
#psi4
#
memory 32 gb

molecule  {
-1 1
  S       -1.9699520     0.0002960    -0.4301720
  O       -0.2287560    -0.0011680     1.6042380
  C        0.8192720     0.0003510    -0.5193240
  C        1.6340270     1.2570650    -0.2212640
  C        1.6341410    -1.2566790    -0.2229280
  C       -0.4461550    -0.0002880     0.3723060
  H        0.5101060     0.0010330    -1.5685180
  H        1.8714700     1.2810570     0.8460150
  H        2.5686810     1.2824310    -0.7973980
  H        1.0553630     2.1549570    -0.4631840
  H        1.8824344    -1.2832246     0.8931136
  H        2.5688000    -1.2811950    -0.7990910
  H        1.0555640    -2.1543050    -0.4660390
units angstrom
no_reorient  #important for SAPT in psi4, default
symmetry c1  #important for SAPT in psi4, default
}

set PROPERTIES_ORIGIN ["COM"]
properties('MP2/aug-cc-pvtz', properties = ['dipole'])
--------------------------------------------------------------------------

    Molecular point group: c1
  Charge       = -1
  Multiplicity = 1
  Basis Set: AUG-CC-PVTZ
    Blend: AUG-CC-PVTZ
  Basis Set: (AUG-CC-PVTZ AUX)
    Blend: AUG-CC-PVTZ-JKFIT

    Orbital Energies [Eh]
    ---------------------

    Doubly Occupied:

       1A    -91.704255     2A    -20.344122     3A    -11.158992
       4A    -11.088302     5A    -11.082811     6A    -11.082190
       7A     -8.706689     8A     -6.388216     9A     -6.386759
      10A     -6.386269    11A     -1.172190    12A     -0.928699
      13A     -0.794096    14A     -0.776970    15A     -0.662494
      16A     -0.537672    17A     -0.475336    18A     -0.461707
      19A     -0.432911    20A     -0.400182    21A     -0.381999
      22A     -0.365014    23A     -0.355226    24A     -0.327131
      25A     -0.313311    26A     -0.205523    27A     -0.142385
      28A     -0.131796

  @DF-RHF Final Energy:  -628.07863696465563

   => Energetics <=

    Nuclear Repulsion Energy =            283.4203865297261586
    One-Electron Energy =               -1436.6115574718683092
    Two-Electron Energy =                 525.1125339774865779
    Total Energy =                       -628.0786369646556295
  Basis Set: (AUG-CC-PVTZ AUX)
    Blend: AUG-CC-PVTZ-RI
    Molecular point group: c1

    Geometry (in Angstrom), charge = -1, multiplicity = 1:

       Center              X                  Y                   Z               Mass
    ------------   -----------------  -----------------  -----------------  -----------------
         S           -1.859834926815     0.000325809545    -0.453837969886    31.972071174400
         O           -0.118638926815    -0.001138190455     1.580572030114    15.994914619570
         C            0.929389073185     0.000380809545    -0.542989969886    12.000000000000
         C            1.744144073185     1.257094809545    -0.244929969886    12.000000000000
         C            1.744258073185    -1.256649190455    -0.246593969886    12.000000000000
         C           -0.336037926815    -0.000258190455     0.348640030114    12.000000000000
         H            0.620223073185     0.001062809545    -1.592183969886     1.007825032230
         H            1.981587073185     1.281086809545     0.822349030114     1.007825032230
         H            2.678798073185     1.282460809545    -0.821063969886     1.007825032230
         H            1.165480073185     2.154986809545    -0.486849969886     1.007825032230
         H            1.992551473185    -1.283194790455     0.869447630114     1.007825032230
         H            2.678917073185    -1.281165190455    -0.822756969886     1.007825032230
         H            1.165681073185    -2.154275190455    -0.489704969886     1.007825032230

  Basis Set: AUG-CC-PVTZ
    Blend: AUG-CC-PVTZ
  Basis Set: (AUG-CC-PVTZ AUX)
    Blend: AUG-CC-PVTZ-JKFIT
	 Reference Energy          =    -628.0786369646556295 [Eh]
	 Singles Energy            =      -0.0000000000000000 [Eh]
	 Same-Spin Energy          =      -0.2994981042972939 [Eh]
	 Opposite-Spin Energy      =      -0.9572327805822162 [Eh]
	 Correlation Energy        =      -1.2567308848795100 [Eh]
	 Total Energy              =    -629.3353678495351460 [Eh]

	 ================> DF-SCS-MP2 Energies <==================
	-----------------------------------------------------------
	 SCS Same-Spin Scale       =       0.3333333333333333 [-]
	 SCS Opposite-Spin Scale   =       1.2000000000000000 [-]
	 SCS Same-Spin Energy      =      -0.0998327014324313 [Eh]
	 SCS Opposite-Spin Energy  =      -1.1486793366986594 [Eh]
	 SCS Correlation Energy    =      -1.2485120381310908 [Eh]
	 SCS Total Energy          =    -629.3271490027867685 [Eh]
	-----------------------------------------------------------

  Dipole Moment: [D]
     X:     5.3037      Y:     0.0144      Z:    -1.5369     Total:     5.5219

*** Psi4 exiting successfully. Buy a developer a beer!
