                               Psi4 1.4a3.dev225

  ==> Input File <==

--------------------------------------------------------------------------
#psi4
#
memory 32 gb

molecule  {
-1 1
  S       -1.9699520     0.0002960    -0.4301720
  O       -0.2287560    -0.0011680     1.6042380
  C        0.8192720     0.0003510    -0.5193240
  C        1.6340270     1.2570650    -0.2212640
  C        1.5595814    -1.2837008    -0.1517108
  C       -0.4461550    -0.0002880     0.3723060
  H        0.5101060     0.0010330    -1.5685180
  H        1.8714700     1.2810570     0.8460150
  H        2.5686810     1.2824310    -0.7973980
  H        1.0553630     2.1549570    -0.4631840
  H        1.8715790    -1.2820640     0.8443200
  H        2.5688000    -1.2811950    -0.7990910
  H        1.0555640    -2.1543050    -0.4660390
units angstrom
no_reorient  #important for SAPT in psi4, default
symmetry c1  #important for SAPT in psi4, default
}

set PROPERTIES_ORIGIN ["COM"]
properties('MP2/aug-cc-pvtz', properties = ['dipole'])
--------------------------------------------------------------------------

    Molecular point group: c1
  Charge       = -1
  Multiplicity = 1
  Basis Set: AUG-CC-PVTZ
    Blend: AUG-CC-PVTZ
  Basis Set: (AUG-CC-PVTZ AUX)
    Blend: AUG-CC-PVTZ-JKFIT

    Orbital Energies [Eh]
    ---------------------

    Doubly Occupied:

       1A    -91.703909     2A    -20.343712     3A    -11.158104
       4A    -11.085296     5A    -11.083781     6A    -11.083021
       7A     -8.706358     8A     -6.387886     9A     -6.386432
      10A     -6.385943    11A     -1.172527    12A     -0.930106
      13A     -0.799624    14A     -0.776844    15A     -0.664147
      16A     -0.539347    17A     -0.485671    18A     -0.459508
      19A     -0.433006    20A     -0.410525    21A     -0.374832
      22A     -0.364290    23A     -0.353243    24A     -0.334556
      25A     -0.311980    26A     -0.203562    27A     -0.142453
      28A     -0.131181

  @DF-RHF Final Energy:  -628.07032150743714

   => Energetics <=

    Nuclear Repulsion Energy =            284.1377047162174563
    One-Electron Energy =               -1437.9923689074928461
    Two-Electron Energy =                 525.7843426838381902
    Total Energy =                       -628.0703215074371428
  Basis Set: (AUG-CC-PVTZ AUX)
    Blend: AUG-CC-PVTZ-RI
    Molecular point group: c1

    Geometry (in Angstrom), charge = -1, multiplicity = 1:

       Center              X                  Y                   Z               Mass
    ------------   -----------------  -----------------  -----------------  -----------------
         S           -1.851044011819     0.003461961704    -0.461656036482    31.972071174400
         O           -0.109848011819     0.001997961704     1.572753963518    15.994914619570
         C            0.938179988181     0.003516961704    -0.550808036482    12.000000000000
         C            1.752934988181     1.260230961704    -0.252748036482    12.000000000000
         C            1.678489388181    -1.280534838296    -0.183194836482    12.000000000000
         C           -0.327247011819     0.002877961704     0.340821963518    12.000000000000
         H            0.629013988181     0.004198961704    -1.600002036482     1.007825032230
         H            1.990377988181     1.284222961704     0.814530963518     1.007825032230
         H            2.687588988181     1.285596961704    -0.828882036482     1.007825032230
         H            1.174270988181     2.158122961704    -0.494668036482     1.007825032230
         H            1.990486988181    -1.278898038296     0.812835963518     1.007825032230
         H            2.687707988181    -1.278029038296    -0.830575036482     1.007825032230
         H            1.174471988181    -2.151139038296    -0.497523036482     1.007825032230

  Basis Set: AUG-CC-PVTZ
    Blend: AUG-CC-PVTZ
  Basis Set: (AUG-CC-PVTZ AUX)
    Blend: AUG-CC-PVTZ-JKFIT
	 Reference Energy          =    -628.0703215074371428 [Eh]
	 Singles Energy            =      -0.0000000000000000 [Eh]
	 Same-Spin Energy          =      -0.2995353779021135 [Eh]
	 Opposite-Spin Energy      =      -0.9571680898497614 [Eh]
	 Correlation Energy        =      -1.2567034677518749 [Eh]
	 Total Energy              =    -629.3270249751890333 [Eh]

	 ================> DF-SCS-MP2 Energies <==================
	-----------------------------------------------------------
	 SCS Same-Spin Scale       =       0.3333333333333333 [-]
	 SCS Opposite-Spin Scale   =       1.2000000000000000 [-]
	 SCS Same-Spin Energy      =      -0.0998451259673712 [Eh]
	 SCS Opposite-Spin Energy  =      -1.1486017078197137 [Eh]
	 SCS Correlation Energy    =      -1.2484468337870849 [Eh]
	 SCS Total Energy          =    -629.3187683412241995 [Eh]
	-----------------------------------------------------------

  Dipole Moment: [D]
     X:     5.2255      Y:     0.0056      Z:    -1.4185     Total:     5.4146

*** Psi4 exiting successfully. Buy a developer a beer!
