                               Psi4 1.4a3.dev225

  ==> Input File <==

--------------------------------------------------------------------------
#psi4
#
memory 32 gb

molecule  {
-1 1
  S       -1.9699520     0.0002960    -0.4301720
  O       -0.2287560    -0.0011680     1.6042380
  C        0.8192720     0.0003510    -0.5193240
  C        1.6340270     1.2570650    -0.2212640
  C        1.6341410    -1.2566790    -0.2229280
  C       -0.4461550    -0.0002880     0.3723060
  H        0.5101060     0.0010330    -1.5685180
  H        1.8714700     1.2810570     0.8460150
  H        2.5686810     1.2824310    -0.7973980
  H        1.0553630     2.1549570    -0.4631840
  H        1.8607236    -1.2809034     0.7955264
  H        2.5688000    -1.2811950    -0.7990910
  H        1.0555640    -2.1543050    -0.4660390
units angstrom
no_reorient  #important for SAPT in psi4, default
symmetry c1  #important for SAPT in psi4, default
}

set PROPERTIES_ORIGIN ["COM"]
properties('MP2/aug-cc-pvtz', properties = ['dipole'])
--------------------------------------------------------------------------

    Molecular point group: c1
  Charge       = -1
  Multiplicity = 1
  Basis Set: AUG-CC-PVTZ
    Blend: AUG-CC-PVTZ
  Basis Set: (AUG-CC-PVTZ AUX)
    Blend: AUG-CC-PVTZ-JKFIT

    Orbital Energies [Eh]
    ---------------------

    Doubly Occupied:

       1A    -91.703981     2A    -20.344160     3A    -11.158755
       4A    -11.082394     5A    -11.081327     6A    -11.076285
       7A     -8.706416     8A     -6.387943     9A     -6.386487
      10A     -6.385996    11A     -1.172208    12A     -0.930336
      13A     -0.799462    14A     -0.777664    15A     -0.665013
      16A     -0.539805    17A     -0.476619    18A     -0.461620
      19A     -0.432860    20A     -0.411852    21A     -0.381411
      22A     -0.367575    23A     -0.354616    24A     -0.329668
      25A     -0.313149    26A     -0.205317    27A     -0.142204
      28A     -0.131483

  @DF-RHF Final Energy:  -628.07980305936803

   => Energetics <=

    Nuclear Repulsion Energy =            283.8242555779275449
    One-Electron Energy =               -1437.3949075475086374
    Two-Electron Energy =                 525.4908489102131171
    Total Energy =                       -628.0798030593680323
  Basis Set: (AUG-CC-PVTZ AUX)
    Blend: AUG-CC-PVTZ-RI
    Molecular point group: c1

    Geometry (in Angstrom), charge = -1, multiplicity = 1:

       Center              X                  Y                   Z               Mass
    ------------   -----------------  -----------------  -----------------  -----------------
         S           -1.859622537826     0.000303102076    -0.452883309220    31.972071174400
         O           -0.118426537826    -0.001160897924     1.581526690780    15.994914619570
         C            0.929601462174     0.000358102076    -0.542035309220    12.000000000000
         C            1.744356462174     1.257072102076    -0.243975309220    12.000000000000
         C            1.744470462174    -1.256671897924    -0.245639309220    12.000000000000
         C           -0.335825537826    -0.000280897924     0.349594690780    12.000000000000
         H            0.620435462174     0.001040102076    -1.591229309220     1.007825032230
         H            1.981799462174     1.281064102076     0.823303690780     1.007825032230
         H            2.679010462174     1.282438102076    -0.820109309220     1.007825032230
         H            1.165692462174     2.154964102076    -0.485895309220     1.007825032230
         H            1.971053062174    -1.280896297924     0.772815090780     1.007825032230
         H            2.679129462174    -1.281187897924    -0.821802309220     1.007825032230
         H            1.165893462174    -2.154297897924    -0.488750309220     1.007825032230

  Basis Set: AUG-CC-PVTZ
    Blend: AUG-CC-PVTZ
  Basis Set: (AUG-CC-PVTZ AUX)
    Blend: AUG-CC-PVTZ-JKFIT
	 Reference Energy          =    -628.0798030593680323 [Eh]
	 Singles Energy            =      -0.0000000000000000 [Eh]
	 Same-Spin Energy          =      -0.2993862415423963 [Eh]
	 Opposite-Spin Energy      =      -0.9565142967865659 [Eh]
	 Correlation Energy        =      -1.2559005383289621 [Eh]
	 Total Energy              =    -629.3357035976970337 [Eh]

	 ================> DF-SCS-MP2 Energies <==================
	-----------------------------------------------------------
	 SCS Same-Spin Scale       =       0.3333333333333333 [-]
	 SCS Opposite-Spin Scale   =       1.2000000000000000 [-]
	 SCS Same-Spin Energy      =      -0.0997954138474654 [Eh]
	 SCS Opposite-Spin Energy  =      -1.1478171561438790 [Eh]
	 SCS Correlation Energy    =      -1.2476125699913445 [Eh]
	 SCS Total Energy          =    -629.3274156293593933 [Eh]
	-----------------------------------------------------------

  Dipole Moment: [D]
     X:     5.3472      Y:    -0.0109      Z:    -1.5009     Total:     5.5539

*** Psi4 exiting successfully. Buy a developer a beer!
