                               Psi4 1.4a3.dev225

  ==> Input File <==

--------------------------------------------------------------------------
#psi4
#
memory 32 gb

molecule  {
-1 1
  S       -1.9699520     0.0002960    -0.4301720
  O       -0.2287560    -0.0011680     1.6042380
  C        0.8192720     0.0003510    -0.5193240
  C        1.6340270     1.2570650    -0.2212640
  C        1.6341410    -1.2566790    -0.2229280
  C       -0.4461550    -0.0002880     0.3723060
  H        0.5101060     0.0010330    -1.5685180
  H        1.8714700     1.2810570     0.8460150
  H        2.5686810     1.2824310    -0.7973980
  H        1.0553630     2.1549570    -0.4631840
  H        1.8715790    -1.2820640     0.8443200
  H        2.5321938    -1.3810352    -0.8427578
  H        1.0555640    -2.1543050    -0.4660390
units angstrom
no_reorient  #important for SAPT in psi4, default
symmetry c1  #important for SAPT in psi4, default
}

set PROPERTIES_ORIGIN ["COM"]
properties('MP2/aug-cc-pvtz', properties = ['dipole'])
--------------------------------------------------------------------------

    Molecular point group: c1
  Charge       = -1
  Multiplicity = 1
  Basis Set: AUG-CC-PVTZ
    Blend: AUG-CC-PVTZ
  Basis Set: (AUG-CC-PVTZ AUX)
    Blend: AUG-CC-PVTZ-JKFIT

    Orbital Energies [Eh]
    ---------------------

    Doubly Occupied:

       1A    -91.704250     2A    -20.344448     3A    -11.159307
       4A    -11.082916     5A    -11.082226     6A    -11.081927
       7A     -8.706681     8A     -6.388209     9A     -6.386750
      10A     -6.386260    11A     -1.172502    12A     -0.928930
      13A     -0.797056    14A     -0.777376    15A     -0.664281
      16A     -0.538575    17A     -0.478648    18A     -0.459037
      19A     -0.430733    20A     -0.408766    21A     -0.380243
      22A     -0.367567    23A     -0.351308    24A     -0.328804
      25A     -0.314411    26A     -0.205739    27A     -0.142388
      28A     -0.131816

  @DF-RHF Final Energy:  -628.07948586515806

   => Energetics <=

    Nuclear Repulsion Energy =            283.5325809204028360
    One-Electron Energy =               -1436.8218246064316190
    Two-Electron Energy =                 525.2097578208707773
    Total Energy =                       -628.0794858651580626
  Basis Set: (AUG-CC-PVTZ AUX)
    Blend: AUG-CC-PVTZ-RI
    Molecular point group: c1

    Geometry (in Angstrom), charge = -1, multiplicity = 1:

       Center              X                  Y                   Z               Mass
    ------------   -----------------  -----------------  -----------------  -----------------
         S           -1.859370626961     0.001291156769    -0.452933462870    31.972071174400
         O           -0.118174626961    -0.000172843231     1.581476537130    15.994914619570
         C            0.929853373039     0.001346156769    -0.542085462870    12.000000000000
         C            1.744608373039     1.258060156769    -0.244025462870    12.000000000000
         C            1.744722373039    -1.255683843231    -0.245689462870    12.000000000000
         C           -0.335573626961     0.000707156769     0.349544537130    12.000000000000
         H            0.620687373039     0.002028156769    -1.591279462870     1.007825032230
         H            1.982051373039     1.282052156769     0.823253537130     1.007825032230
         H            2.679262373039     1.283426156769    -0.820159462870     1.007825032230
         H            1.165944373039     2.155952156769    -0.485945462870     1.007825032230
         H            1.982160373039    -1.281068843231     0.821558537130     1.007825032230
         H            2.642775173039    -1.380040043231    -0.865519262870     1.007825032230
         H            1.166145373039    -2.153309843231    -0.488800462870     1.007825032230

  Basis Set: AUG-CC-PVTZ
    Blend: AUG-CC-PVTZ
  Basis Set: (AUG-CC-PVTZ AUX)
    Blend: AUG-CC-PVTZ-JKFIT
	 Reference Energy          =    -628.0794858651580626 [Eh]
	 Singles Energy            =      -0.0000000000000000 [Eh]
	 Same-Spin Energy          =      -0.2994373625659102 [Eh]
	 Opposite-Spin Energy      =      -0.9568253739683455 [Eh]
	 Correlation Energy        =      -1.2562627365342558 [Eh]
	 Total Energy              =    -629.3357486016923303 [Eh]

	 ================> DF-SCS-MP2 Energies <==================
	-----------------------------------------------------------
	 SCS Same-Spin Scale       =       0.3333333333333333 [-]
	 SCS Opposite-Spin Scale   =       1.2000000000000000 [-]
	 SCS Same-Spin Energy      =      -0.0998124541886367 [Eh]
	 SCS Opposite-Spin Energy  =      -1.1481904487620147 [Eh]
	 SCS Correlation Energy    =      -1.2480029029506514 [Eh]
	 SCS Total Energy          =    -629.3274887681087648 [Eh]
	-----------------------------------------------------------

  Dipole Moment: [D]
     X:     5.3107      Y:    -0.0272      Z:    -1.5387     Total:     5.5292

*** Psi4 exiting successfully. Buy a developer a beer!
