                               Psi4 1.4a3.dev225

  ==> Input File <==

--------------------------------------------------------------------------
#psi4
#
memory 32 gb

molecule  {
-1 1
  S       -1.9699520     0.0002960    -0.4301720
  O       -0.2287560    -0.0011680     1.6042380
  C        0.8192720     0.0003510    -0.5193240
  C        1.6340270     1.2570650    -0.2212640
  C        1.6341410    -1.2566790    -0.2229280
  C       -0.4461550    -0.0002880     0.3723060
  H        0.5101060     0.0010330    -1.5685180
  H        1.8714700     1.2810570     0.8460150
  H        2.5686810     1.2824310    -0.7973980
  H        1.0553630     2.1549570    -0.4631840
  H        1.8715790    -1.2820640     0.8443200
  H        2.5688000    -1.2811950    -0.7990910
  H        1.0027383    -2.2362608    -0.4882357
units angstrom
no_reorient  #important for SAPT in psi4, default
symmetry c1  #important for SAPT in psi4, default
}

set PROPERTIES_ORIGIN ["COM"]
properties('MP2/aug-cc-pvtz', properties = ['dipole'])
--------------------------------------------------------------------------

    Molecular point group: c1
  Charge       = -1
  Multiplicity = 1
  Basis Set: AUG-CC-PVTZ
    Blend: AUG-CC-PVTZ
  Basis Set: (AUG-CC-PVTZ AUX)
    Blend: AUG-CC-PVTZ-JKFIT

    Orbital Energies [Eh]
    ---------------------

    Doubly Occupied:

       1A    -91.704179     2A    -20.344419     3A    -11.159234
       4A    -11.094720     5A    -11.083776     6A    -11.083045
       7A     -8.706611     8A     -6.388139     9A     -6.386681
      10A     -6.386191    11A     -1.172483    12A     -0.928914
      13A     -0.791732    14A     -0.776919    15A     -0.662425
      16A     -0.539212    17A     -0.472615    18A     -0.457782
      19A     -0.431768    20A     -0.406012    21A     -0.381083
      22A     -0.366937    23A     -0.348213    24A     -0.328730
      25A     -0.313105    26A     -0.205760    27A     -0.142349
      28A     -0.131740

  @DF-RHF Final Energy:  -628.07439258958323

   => Energetics <=

    Nuclear Repulsion Energy =            283.2200986807425238
    One-Electron Energy =               -1436.1994335850899915
    Two-Electron Energy =                 524.9049423147642983
    Total Energy =                       -628.0743925895832263
  Basis Set: (AUG-CC-PVTZ AUX)
    Blend: AUG-CC-PVTZ-RI
    Molecular point group: c1

    Geometry (in Angstrom), charge = -1, multiplicity = 1:

       Center              X                  Y                   Z               Mass
    ------------   -----------------  -----------------  -----------------  -----------------
         S           -1.859211957395     0.001116200082    -0.453143497178    31.972071174400
         O           -0.118015957395    -0.000347799918     1.581266502822    15.994914619570
         C            0.930012042605     0.001171200082    -0.542295497178    12.000000000000
         C            1.744767042605     1.257885200082    -0.244235497178    12.000000000000
         C            1.744881042605    -1.255858799918    -0.245899497178    12.000000000000
         C           -0.335414957395     0.000532200082     0.349334502822    12.000000000000
         H            0.620846042605     0.001853200082    -1.591489497178     1.007825032230
         H            1.982210042605     1.281877200082     0.823043502822     1.007825032230
         H            2.679421042605     1.283251200082    -0.820369497178     1.007825032230
         H            1.166103042605     2.155777200082    -0.486155497178     1.007825032230
         H            1.982319042605    -1.281243799918     0.821348502822     1.007825032230
         H            2.679540042605    -1.280374799918    -0.822062497178     1.007825032230
         H            1.113478342605    -2.235440599918    -0.511207197178     1.007825032230

  Basis Set: AUG-CC-PVTZ
    Blend: AUG-CC-PVTZ
  Basis Set: (AUG-CC-PVTZ AUX)
    Blend: AUG-CC-PVTZ-JKFIT
	 Reference Energy          =    -628.0743925895832263 [Eh]
	 Singles Energy            =      -0.0000000000000000 [Eh]
	 Same-Spin Energy          =      -0.2994313784012655 [Eh]
	 Opposite-Spin Energy      =      -0.9575421139484461 [Eh]
	 Correlation Energy        =      -1.2569734923497116 [Eh]
	 Total Energy              =    -629.3313660819329698 [Eh]

	 ================> DF-SCS-MP2 Energies <==================
	-----------------------------------------------------------
	 SCS Same-Spin Scale       =       0.3333333333333333 [-]
	 SCS Opposite-Spin Scale   =       1.2000000000000000 [-]
	 SCS Same-Spin Energy      =      -0.0998104594670885 [Eh]
	 SCS Opposite-Spin Energy  =      -1.1490505367381354 [Eh]
	 SCS Correlation Energy    =      -1.2488609962052239 [Eh]
	 SCS Total Energy          =    -629.3232535857885068 [Eh]
	-----------------------------------------------------------

  Dipole Moment: [D]
     X:     5.3370      Y:     0.0912      Z:    -1.5026     Total:     5.5452

*** Psi4 exiting successfully. Buy a developer a beer!
