                               Psi4 1.4a3.dev225

  ==> Input File <==

--------------------------------------------------------------------------
#psi4
#
memory 32 gb

molecule  {
-1 1
  S       -1.9699520     0.0002960    -0.4301720
  O       -0.2287560    -0.0011680     1.6042380
  C        0.8192720     0.0003510    -0.5193240
  C        1.6340270     1.2570650    -0.2212640
  C        1.6341410    -1.2566790    -0.2229280
  C       -0.4461550    -0.0002880     0.3723060
  H        0.5101060     0.0010330    -1.5685180
  H        1.8714700     1.2810570     0.8460150
  H        2.5686810     1.2824310    -0.7973980
  H        1.0553630     2.1549570    -0.4631840
  H        1.8715790    -1.2820640     0.8443200
  H        2.3985912    -1.2767304    -0.6941671
  H        1.0555640    -2.1543050    -0.4660390
units angstrom
no_reorient  #important for SAPT in psi4, default
symmetry c1  #important for SAPT in psi4, default
}

set PROPERTIES_ORIGIN ["COM"]
properties('MP2/aug-cc-pvtz', properties = ['dipole'])
--------------------------------------------------------------------------

    Molecular point group: c1
  Charge       = -1
  Multiplicity = 1
  Basis Set: AUG-CC-PVTZ
    Blend: AUG-CC-PVTZ
  Basis Set: (AUG-CC-PVTZ AUX)
    Blend: AUG-CC-PVTZ-JKFIT

    Orbital Energies [Eh]
    ---------------------

    Doubly Occupied:

       1A    -91.702767     2A    -20.342411     3A    -11.156991
       4A    -11.082241     5A    -11.079899     6A    -11.055577
       7A     -8.705207     8A     -6.386736     9A     -6.385282
      10A     -6.384794    11A     -1.170438    12A     -0.934761
      13A     -0.812706    14A     -0.777776    15A     -0.671416
      16A     -0.538385    17A     -0.479648    18A     -0.468017
      19A     -0.446869    20A     -0.407677    21A     -0.385643
      22A     -0.366300    23A     -0.354714    24A     -0.327103
      25A     -0.311784    26A     -0.204082    27A     -0.141036
      28A     -0.130326

  @DF-RHF Final Energy:  -628.04784370189896

   => Energetics <=

    Nuclear Repulsion Energy =            284.6459533386942553
    One-Electron Energy =               -1438.9664246845561593
    Two-Electron Energy =                 526.2726276439630055
    Total Energy =                       -628.0478437018989553
  Basis Set: (AUG-CC-PVTZ AUX)
    Blend: AUG-CC-PVTZ-RI
    Molecular point group: c1

    Geometry (in Angstrom), charge = -1, multiplicity = 1:

       Center              X                  Y                   Z               Mass
    ------------   -----------------  -----------------  -----------------  -----------------
         S           -1.858063640522     0.000270780226    -0.454387072530    31.972071174400
         O           -0.116867640522    -0.001193219774     1.580022927470    15.994914619570
         C            0.931160359478     0.000325780226    -0.543539072530    12.000000000000
         C            1.745915359478     1.257039780226    -0.245479072530    12.000000000000
         C            1.746029359478    -1.256704219774    -0.247143072530    12.000000000000
         C           -0.334266640522    -0.000313219774     0.348090927470    12.000000000000
         H            0.621994359478     0.001007780226    -1.592733072530     1.007825032230
         H            1.983358359478     1.281031780226     0.821799927470     1.007825032230
         H            2.680569359478     1.282405780226    -0.821613072530     1.007825032230
         H            1.167251359478     2.154931780226    -0.487399072530     1.007825032230
         H            1.983467359478    -1.282089219774     0.820104927470     1.007825032230
         H            2.510479559478    -1.276755619774    -0.718382172530     1.007825032230
         H            1.167452359478    -2.154330219774    -0.490254072530     1.007825032230

  Basis Set: AUG-CC-PVTZ
    Blend: AUG-CC-PVTZ
  Basis Set: (AUG-CC-PVTZ AUX)
    Blend: AUG-CC-PVTZ-JKFIT
	 Reference Energy          =    -628.0478437018989553 [Eh]
	 Singles Energy            =      -0.0000000000000000 [Eh]
	 Same-Spin Energy          =      -0.2995852107257496 [Eh]
	 Opposite-Spin Energy      =      -0.9562348857083720 [Eh]
	 Correlation Energy        =      -1.2558200964341215 [Eh]
	 Total Energy              =    -629.3036637983331048 [Eh]

	 ================> DF-SCS-MP2 Energies <==================
	-----------------------------------------------------------
	 SCS Same-Spin Scale       =       0.3333333333333333 [-]
	 SCS Opposite-Spin Scale   =       1.2000000000000000 [-]
	 SCS Same-Spin Energy      =      -0.0998617369085832 [Eh]
	 SCS Opposite-Spin Energy  =      -1.1474818628500463 [Eh]
	 SCS Correlation Energy    =      -1.2473435997586295 [Eh]
	 SCS Total Energy          =    -629.2951873016576201 [Eh]
	-----------------------------------------------------------

  Dipole Moment: [D]
     X:     5.5218      Y:    -0.0501      Z:    -1.5844     Total:     5.7449

*** Psi4 exiting successfully. Buy a developer a beer!
