                               Psi4 1.4a3.dev225

  ==> Input File <==

--------------------------------------------------------------------------
#psi4
#
memory 32 gb

molecule  {
-1 1
  S       -1.9699520     0.0002960    -0.4301720
  O       -0.2287560    -0.0011680     1.6042380
  C        0.8192720     0.0003510    -0.5193240
  C        1.6340270     1.2570650    -0.2212640
  C        1.7384285    -1.2047128    -0.3323509
  C       -0.4461550    -0.0002880     0.3723060
  H        0.5101060     0.0010330    -1.5685180
  H        1.8714700     1.2810570     0.8460150
  H        2.5686810     1.2824310    -0.7973980
  H        1.0553630     2.1549570    -0.4631840
  H        1.8715790    -1.2820640     0.8443200
  H        2.5688000    -1.2811950    -0.7990910
  H        1.0555640    -2.1543050    -0.4660390
units angstrom
no_reorient  #important for SAPT in psi4, default
symmetry c1  #important for SAPT in psi4, default
}

set PROPERTIES_ORIGIN ["COM"]
properties('MP2/aug-cc-pvtz', properties = ['dipole'])
--------------------------------------------------------------------------

    Molecular point group: c1
  Charge       = -1
  Multiplicity = 1
  Basis Set: AUG-CC-PVTZ
    Blend: AUG-CC-PVTZ
  Basis Set: (AUG-CC-PVTZ AUX)
    Blend: AUG-CC-PVTZ-JKFIT

    Orbital Energies [Eh]
    ---------------------

    Doubly Occupied:

       1A    -91.705634     2A    -20.346176     3A    -11.161883
       4A    -11.085526     5A    -11.083543     6A    -11.081282
       7A     -8.708032     8A     -6.389559     9A     -6.388094
      10A     -6.387600    11A     -1.173442    12A     -0.931164
      13A     -0.796899    14A     -0.779899    15A     -0.669809
      16A     -0.537975    17A     -0.485221    18A     -0.459388
      19A     -0.451447    20A     -0.397663    21A     -0.386439
      22A     -0.364474    23A     -0.344145    24A     -0.313936
      25A     -0.308204    26A     -0.209066    27A     -0.143189
      28A     -0.133373

  @DF-RHF Final Energy:  -628.04898021914869

   => Energetics <=

    Nuclear Repulsion Energy =            282.9817698240255481
    One-Electron Energy =               -1435.6153766113029633
    Two-Electron Energy =                 524.5846265681286695
    Total Energy =                       -628.0489802191486888
  Basis Set: (AUG-CC-PVTZ AUX)
    Blend: AUG-CC-PVTZ-RI
    Molecular point group: c1

    Geometry (in Angstrom), charge = -1, multiplicity = 1:

       Center              X                  Y                   Z               Mass
    ------------   -----------------  -----------------  -----------------  -----------------
         S           -1.871876165907    -0.005738579915    -0.440615033314    31.972071174400
         O           -0.130680165907    -0.007202579915     1.593794966686    15.994914619570
         C            0.917347834093    -0.005683579915    -0.529767033314    12.000000000000
         C            1.732102834093     1.251030420085    -0.231707033314    12.000000000000
         C            1.836504334093    -1.210747379915    -0.342793933314    12.000000000000
         C           -0.348079165907    -0.006322579915     0.361862966686    12.000000000000
         H            0.608181834093    -0.005001579915    -1.578961033314     1.007825032230
         H            1.969545834093     1.275022420085     0.835571966686     1.007825032230
         H            2.666756834093     1.276396420085    -0.807841033314     1.007825032230
         H            1.153438834093     2.148922420085    -0.473627033314     1.007825032230
         H            1.969654834093    -1.288098579915     0.833876966686     1.007825032230
         H            2.666875834093    -1.287229579915    -0.809534033314     1.007825032230
         H            1.153639834093    -2.160339579915    -0.476482033314     1.007825032230

  Basis Set: AUG-CC-PVTZ
    Blend: AUG-CC-PVTZ
  Basis Set: (AUG-CC-PVTZ AUX)
    Blend: AUG-CC-PVTZ-JKFIT
	 Reference Energy          =    -628.0489802191486888 [Eh]
	 Singles Energy            =      -0.0000000000000000 [Eh]
	 Same-Spin Energy          =      -0.3000586389100184 [Eh]
	 Opposite-Spin Energy      =      -0.9585722374978086 [Eh]
	 Correlation Energy        =      -1.2586308764078269 [Eh]
	 Total Energy              =    -629.3076110955564673 [Eh]

	 ================> DF-SCS-MP2 Energies <==================
	-----------------------------------------------------------
	 SCS Same-Spin Scale       =       0.3333333333333333 [-]
	 SCS Opposite-Spin Scale   =       1.2000000000000000 [-]
	 SCS Same-Spin Energy      =      -0.1000195463033395 [Eh]
	 SCS Opposite-Spin Energy  =      -1.1502866849973703 [Eh]
	 SCS Correlation Energy    =      -1.2503062313007098 [Eh]
	 SCS Total Energy          =    -629.2992864504493582 [Eh]
	-----------------------------------------------------------

  Dipole Moment: [D]
     X:     5.3259      Y:     0.0738      Z:    -1.6304     Total:     5.5704

*** Psi4 exiting successfully. Buy a developer a beer!
