                               Psi4 1.4a3.dev225

  ==> Input File <==

--------------------------------------------------------------------------
#psi4
#
memory 32 gb

molecule  {
-1 1
  S       -1.9699520     0.0002960    -0.4301720
  O       -0.2287560    -0.0011680     1.6042380
  C        0.8192720     0.0003510    -0.5193240
  C        1.6340270     1.2570650    -0.2212640
  C        1.6341410    -1.2566790    -0.2229280
  C       -0.4461550    -0.0002880     0.3723060
  H        0.5101060     0.0010330    -1.5685180
  H        1.8714700     1.2810570     0.8460150
  H        2.5686810     1.2824310    -0.7973980
  H        1.0553630     2.1549570    -0.4631840
  H        1.8715790    -1.2820640     0.8443200
  H        2.6539044    -1.2834273    -0.8515529
  H        1.0555640    -2.1543050    -0.4660390
units angstrom
no_reorient  #important for SAPT in psi4, default
symmetry c1  #important for SAPT in psi4, default
}

set PROPERTIES_ORIGIN ["COM"]
properties('MP2/aug-cc-pvtz', properties = ['dipole'])
--------------------------------------------------------------------------

    Molecular point group: c1
  Charge       = -1
  Multiplicity = 1
  Basis Set: AUG-CC-PVTZ
    Blend: AUG-CC-PVTZ
  Basis Set: (AUG-CC-PVTZ AUX)
    Blend: AUG-CC-PVTZ-JKFIT

    Orbital Energies [Eh]
    ---------------------

    Doubly Occupied:

       1A    -91.705080     2A    -20.345350     3A    -11.160234
       4A    -11.095395     5A    -11.083511     6A    -11.082485
       7A     -8.707509     8A     -6.389035     9A     -6.387577
      10A     -6.387085    11A     -1.173437    12A     -0.928682
      13A     -0.792759    14A     -0.777056    15A     -0.661171
      16A     -0.539276    17A     -0.476751    18A     -0.460723
      19A     -0.426663    20A     -0.404260    21A     -0.378185
      22A     -0.365750    23A     -0.353810    24A     -0.329691
      25A     -0.314163    26A     -0.206396    27A     -0.143195
      28A     -0.132573

  @DF-RHF Final Energy:  -628.07450873505047

   => Energetics <=

    Nuclear Repulsion Energy =            283.1914425934310202
    One-Electron Energy =               -1436.1163013613854673
    Two-Electron Energy =                 524.8503500329039753
    Total Energy =                       -628.0745087350504718
  Basis Set: (AUG-CC-PVTZ AUX)
    Blend: AUG-CC-PVTZ-RI
    Molecular point group: c1

    Geometry (in Angstrom), charge = -1, multiplicity = 1:

       Center              X                  Y                   Z               Mass
    ------------   -----------------  -----------------  -----------------  -----------------
         S           -1.860561278220     0.000336293603    -0.452847423553    31.972071174400
         O           -0.119365278220    -0.001127706397     1.581562576447    15.994914619570
         C            0.928662721780     0.000391293603    -0.541999423553    12.000000000000
         C            1.743417721780     1.257105293603    -0.243939423553    12.000000000000
         C            1.743531721780    -1.256638706397    -0.245603423553    12.000000000000
         C           -0.336764278220    -0.000247706397     0.349630576447    12.000000000000
         H            0.619496721780     0.001073293603    -1.591193423553     1.007825032230
         H            1.980860721780     1.281097293603     0.823339576447     1.007825032230
         H            2.678071721780     1.282471293603    -0.820073423553     1.007825032230
         H            1.164753721780     2.154997293603    -0.485859423553     1.007825032230
         H            1.980969721780    -1.282023706397     0.821644576447     1.007825032230
         H            2.763295121780    -1.283387006397    -0.874228323553     1.007825032230
         H            1.164954721780    -2.154264706397    -0.488714423553     1.007825032230

  Basis Set: AUG-CC-PVTZ
    Blend: AUG-CC-PVTZ
  Basis Set: (AUG-CC-PVTZ AUX)
    Blend: AUG-CC-PVTZ-JKFIT
	 Reference Energy          =    -628.0745087350504718 [Eh]
	 Singles Energy            =      -0.0000000000000000 [Eh]
	 Same-Spin Energy          =      -0.2993995493147890 [Eh]
	 Opposite-Spin Energy      =      -0.9575212569394465 [Eh]
	 Correlation Energy        =      -1.2569208062542354 [Eh]
	 Total Energy              =    -629.3314295413047148 [Eh]

	 ================> DF-SCS-MP2 Energies <==================
	-----------------------------------------------------------
	 SCS Same-Spin Scale       =       0.3333333333333333 [-]
	 SCS Opposite-Spin Scale   =       1.2000000000000000 [-]
	 SCS Same-Spin Energy      =      -0.0997998497715963 [Eh]
	 SCS Opposite-Spin Energy  =      -1.1490255083273357 [Eh]
	 SCS Correlation Energy    =      -1.2488253580989321 [Eh]
	 SCS Total Energy          =    -629.3233340931493558 [Eh]
	-----------------------------------------------------------

  Dipole Moment: [D]
     X:     5.1883      Y:     0.0356      Z:    -1.4663     Total:     5.3917

*** Psi4 exiting successfully. Buy a developer a beer!
