                               Psi4 1.4a3.dev225

  ==> Input File <==

--------------------------------------------------------------------------
#psi4
#
memory 32 gb

molecule  {
-1 1
  S       -1.9699520     0.0002960    -0.4301720
  O       -0.2287560    -0.0011680     1.6042380
  C        0.8192720     0.0003510    -0.5193240
  C        1.6340270     1.2570650    -0.2212640
  C        1.6341410    -1.2566790    -0.2229280
  C       -0.4461550    -0.0002880     0.3723060
  H        0.4959733     0.0010642    -1.6164791
  H        1.8714700     1.2810570     0.8460150
  H        2.5686810     1.2824310    -0.7973980
  H        1.0553630     2.1549570    -0.4631840
  H        1.8715790    -1.2820640     0.8443200
  H        2.5688000    -1.2811950    -0.7990910
  H        1.0555640    -2.1543050    -0.4660390
units angstrom
no_reorient  #important for SAPT in psi4, default
symmetry c1  #important for SAPT in psi4, default
}

set PROPERTIES_ORIGIN ["COM"]
properties('MP2/aug-cc-pvtz', properties = ['dipole'])
--------------------------------------------------------------------------

    Molecular point group: c1
  Charge       = -1
  Multiplicity = 1
  Basis Set: AUG-CC-PVTZ
    Blend: AUG-CC-PVTZ
  Basis Set: (AUG-CC-PVTZ AUX)
    Blend: AUG-CC-PVTZ-JKFIT

    Orbital Energies [Eh]
    ---------------------

    Doubly Occupied:

       1A    -91.703979     2A    -20.344624     3A    -11.159414
       4A    -11.088116     5A    -11.082858     6A    -11.082813
       7A     -8.706418     8A     -6.387944     9A     -6.386489
      10A     -6.385995    11A     -1.172671    12A     -0.927835
      13A     -0.796826    14A     -0.777202    15A     -0.660982
      16A     -0.534232    17A     -0.475030    18A     -0.461914
      19A     -0.433166    20A     -0.406186    21A     -0.382008
      22A     -0.366229    23A     -0.355349    24A     -0.322962
      25A     -0.313793    26A     -0.205776    27A     -0.142249
      28A     -0.131307

  @DF-RHF Final Energy:  -628.07851244867106

   => Energetics <=

    Nuclear Repulsion Energy =            283.3751753979242949
    One-Electron Energy =               -1436.5186406769887526
    Two-Electron Energy =                 525.0649528303933948
    Total Energy =                       -628.0785124486710629
  Basis Set: (AUG-CC-PVTZ AUX)
    Blend: AUG-CC-PVTZ-RI
    Molecular point group: c1

    Geometry (in Angstrom), charge = -1, multiplicity = 1:

       Center              X                  Y                   Z               Mass
    ------------   -----------------  -----------------  -----------------  -----------------
         S           -1.859590477172     0.000314150592    -0.452891453270    31.972071174400
         O           -0.118394477172    -0.001149849408     1.581518546730    15.994914619570
         C            0.929633522828     0.000369150592    -0.542043453270    12.000000000000
         C            1.744388522828     1.257083150592    -0.243983453270    12.000000000000
         C            1.744502522828    -1.256660849408    -0.245647453270    12.000000000000
         C           -0.335793477172    -0.000269849408     0.349586546730    12.000000000000
         H            0.606334822828     0.001082350592    -1.639198553270     1.007825032230
         H            1.981831522828     1.281075150592     0.823295546730     1.007825032230
         H            2.679042522828     1.282449150592    -0.820117453270     1.007825032230
         H            1.165724522828     2.154975150592    -0.485903453270     1.007825032230
         H            1.981940522828    -1.282045849408     0.821600546730     1.007825032230
         H            2.679161522828    -1.281176849408    -0.821810453270     1.007825032230
         H            1.165925522828    -2.154286849408    -0.488758453270     1.007825032230

  Basis Set: AUG-CC-PVTZ
    Blend: AUG-CC-PVTZ
  Basis Set: (AUG-CC-PVTZ AUX)
    Blend: AUG-CC-PVTZ-JKFIT
	 Reference Energy          =    -628.0785124486710629 [Eh]
	 Singles Energy            =      -0.0000000000000000 [Eh]
	 Same-Spin Energy          =      -0.2995229501582797 [Eh]
	 Opposite-Spin Energy      =      -0.9572844408284538 [Eh]
	 Correlation Energy        =      -1.2568073909867334 [Eh]
	 Total Energy              =    -629.3353198396578136 [Eh]

	 ================> DF-SCS-MP2 Energies <==================
	-----------------------------------------------------------
	 SCS Same-Spin Scale       =       0.3333333333333333 [-]
	 SCS Opposite-Spin Scale   =       1.2000000000000000 [-]
	 SCS Same-Spin Energy      =      -0.0998409833860932 [Eh]
	 SCS Opposite-Spin Energy  =      -1.1487413289941444 [Eh]
	 SCS Correlation Energy    =      -1.2485823123802375 [Eh]
	 SCS Total Energy          =    -629.3270947610512849 [Eh]
	-----------------------------------------------------------

  Dipole Moment: [D]
     X:     5.3288      Y:     0.0011      Z:    -1.4909     Total:     5.5334

*** Psi4 exiting successfully. Buy a developer a beer!
