                               Psi4 1.4a3.dev225

  ==> Input File <==

--------------------------------------------------------------------------
#psi4
#
memory 32 gb

molecule  {
-1 1
  S       -1.9699520     0.0002960    -0.4301720
  O       -0.2287560    -0.0011680     1.6042380
  C        0.8192720     0.0003510    -0.5193240
  C        1.6340270     1.2570650    -0.2212640
  C        1.6699541    -1.2408621    -0.2591001
  C       -0.4461550    -0.0002880     0.3723060
  H        0.5101060     0.0010330    -1.5685180
  H        1.8714700     1.2810570     0.8460150
  H        2.5686810     1.2824310    -0.7973980
  H        1.0553630     2.1549570    -0.4631840
  H        1.8715790    -1.2820640     0.8443200
  H        2.5688000    -1.2811950    -0.7990910
  H        1.0555640    -2.1543050    -0.4660390
units angstrom
no_reorient  #important for SAPT in psi4, default
symmetry c1  #important for SAPT in psi4, default
}

set PROPERTIES_ORIGIN ["COM"]
properties('MP2/aug-cc-pvtz', properties = ['dipole'])
--------------------------------------------------------------------------

    Molecular point group: c1
  Charge       = -1
  Multiplicity = 1
  Basis Set: AUG-CC-PVTZ
    Blend: AUG-CC-PVTZ
  Basis Set: (AUG-CC-PVTZ AUX)
    Blend: AUG-CC-PVTZ-JKFIT

    Orbital Energies [Eh]
    ---------------------

    Doubly Occupied:

       1A    -91.704460     2A    -20.344641     3A    -11.159632
       4A    -11.082636     5A    -11.082129     6A    -11.081584
       7A     -8.706884     8A     -6.388411     9A     -6.386953
      10A     -6.386461    11A     -1.172396    12A     -0.929582
      13A     -0.795687    14A     -0.777995    15A     -0.664637
      16A     -0.538394    17A     -0.474364    18A     -0.462419
      19A     -0.439248    20A     -0.400928    21A     -0.386037
      22A     -0.366349    23A     -0.351404    24A     -0.324527
      25A     -0.312612    26A     -0.206516    27A     -0.142443
      28A     -0.132073

  @DF-RHF Final Energy:  -628.07734884869831

   => Energetics <=

    Nuclear Repulsion Energy =            283.3829733717683439
    One-Electron Energy =               -1436.5178421026448632
    Two-Electron Energy =                 525.0575198821780987
    Total Energy =                       -628.0773488486983069
  Basis Set: (AUG-CC-PVTZ AUX)
    Blend: AUG-CC-PVTZ-RI
    Molecular point group: c1

    Geometry (in Angstrom), charge = -1, multiplicity = 1:

       Center              X                  Y                   Z               Mass
    ------------   -----------------  -----------------  -----------------  -----------------
         S           -1.863900250995    -0.001527900582    -0.449147304470    31.972071174400
         O           -0.122704250995    -0.002991900582     1.585262695530    15.994914619570
         C            0.925323749005    -0.001472900582    -0.538299304470    12.000000000000
         C            1.740078749005     1.255241099418    -0.240239304470    12.000000000000
         C            1.776005849005    -1.242686000582    -0.278075404470    12.000000000000
         C           -0.340103250995    -0.002111900582     0.353330695530    12.000000000000
         H            0.616157749005    -0.000790900582    -1.587493304470     1.007825032230
         H            1.977521749005     1.279233099418     0.827039695530     1.007825032230
         H            2.674732749005     1.280607099418    -0.816373304470     1.007825032230
         H            1.161414749005     2.153133099418    -0.482159304470     1.007825032230
         H            1.977630749005    -1.283887900582     0.825344695530     1.007825032230
         H            2.674851749005    -1.283018900582    -0.818066304470     1.007825032230
         H            1.161615749005    -2.156128900582    -0.485014304470     1.007825032230

  Basis Set: AUG-CC-PVTZ
    Blend: AUG-CC-PVTZ
  Basis Set: (AUG-CC-PVTZ AUX)
    Blend: AUG-CC-PVTZ-JKFIT
	 Reference Energy          =    -628.0773488486983069 [Eh]
	 Singles Energy            =      -0.0000000000000000 [Eh]
	 Same-Spin Energy          =      -0.2995381570685519 [Eh]
	 Opposite-Spin Energy      =      -0.9570935627410828 [Eh]
	 Correlation Energy        =      -1.2566317198096346 [Eh]
	 Total Energy              =    -629.3339805685079682 [Eh]

	 ================> DF-SCS-MP2 Energies <==================
	-----------------------------------------------------------
	 SCS Same-Spin Scale       =       0.3333333333333333 [-]
	 SCS Opposite-Spin Scale   =       1.2000000000000000 [-]
	 SCS Same-Spin Energy      =      -0.0998460523561840 [Eh]
	 SCS Opposite-Spin Energy  =      -1.1485122752892993 [Eh]
	 SCS Correlation Energy    =      -1.2483583276454833 [Eh]
	 SCS Total Energy          =    -629.3257071763438262 [Eh]
	-----------------------------------------------------------

  Dipole Moment: [D]
     X:     5.3463      Y:     0.0144      Z:    -1.5595     Total:     5.5691

*** Psi4 exiting successfully. Buy a developer a beer!
