                               Psi4 1.4a3.dev225

  ==> Input File <==

--------------------------------------------------------------------------
#psi4
#
memory 32 gb

molecule  {
-1 1
  S       -1.9699520     0.0002960    -0.4301720
  O       -0.2287560    -0.0011680     1.6042380
  C        0.8192720     0.0003510    -0.5193240
  C        1.6073502     1.2159176    -0.2310231
  C        1.6341410    -1.2566790    -0.2229280
  C       -0.4461550    -0.0002880     0.3723060
  H        0.5101060     0.0010330    -1.5685180
  H        1.8714700     1.2810570     0.8460150
  H        2.5686810     1.2824310    -0.7973980
  H        1.0553630     2.1549570    -0.4631840
  H        1.8715790    -1.2820640     0.8443200
  H        2.5688000    -1.2811950    -0.7990910
  H        1.0555640    -2.1543050    -0.4660390
units angstrom
no_reorient  #important for SAPT in psi4, default
symmetry c1  #important for SAPT in psi4, default
}

set PROPERTIES_ORIGIN ["COM"]
properties('MP2/aug-cc-pvtz', properties = ['dipole'])
--------------------------------------------------------------------------

    Molecular point group: c1
  Charge       = -1
  Multiplicity = 1
  Basis Set: AUG-CC-PVTZ
    Blend: AUG-CC-PVTZ
  Basis Set: (AUG-CC-PVTZ AUX)
    Blend: AUG-CC-PVTZ-JKFIT

    Orbital Energies [Eh]
    ---------------------

    Doubly Occupied:

       1A    -91.704321     2A    -20.344513     3A    -11.159289
       4A    -11.084981     5A    -11.082531     6A    -11.079338
       7A     -8.706748     8A     -6.388276     9A     -6.386818
      10A     -6.386328    11A     -1.172768    12A     -0.936740
      13A     -0.795824    14A     -0.777276    15A     -0.662847
      16A     -0.541011    17A     -0.478217    18A     -0.461934
      19A     -0.433880    20A     -0.401785    21A     -0.382327
      22A     -0.364695    23A     -0.353034    24A     -0.328425
      25A     -0.315025    26A     -0.205660    27A     -0.142489
      28A     -0.131893

  @DF-RHF Final Energy:  -628.07767837004894

   => Energetics <=

    Nuclear Repulsion Energy =            284.4390380249863028
    One-Electron Energy =               -1438.6154817675351296
    Two-Electron Energy =                 526.0987653724998836
    Total Energy =                       -628.0776783700489432
  Basis Set: (AUG-CC-PVTZ AUX)
    Blend: AUG-CC-PVTZ-RI
    Molecular point group: c1

    Geometry (in Angstrom), charge = -1, multiplicity = 1:

       Center              X                  Y                   Z               Mass
    ------------   -----------------  -----------------  -----------------  -----------------
         S           -1.856621412111     0.005107315058    -0.452223897190    31.972071174400
         O           -0.115425412111     0.003643315058     1.582186102810    15.994914619570
         C            0.932602587889     0.005162315058    -0.541375897190    12.000000000000
         C            1.720680787889     1.220728915058    -0.253074997190    12.000000000000
         C            1.747471587889    -1.251867684942    -0.244979897190    12.000000000000
         C           -0.332824412111     0.004523315058     0.350254102810    12.000000000000
         H            0.623436587889     0.005844315058    -1.590569897190     1.007825032230
         H            1.984800587889     1.285868315058     0.823963102810     1.007825032230
         H            2.682011587889     1.287242315058    -0.819449897190     1.007825032230
         H            1.168693587889     2.159768315058    -0.485235897190     1.007825032230
         H            1.984909587889    -1.277252684942     0.822268102810     1.007825032230
         H            2.682130587889    -1.276383684942    -0.821142897190     1.007825032230
         H            1.168894587889    -2.149493684942    -0.488090897190     1.007825032230

  Basis Set: AUG-CC-PVTZ
    Blend: AUG-CC-PVTZ
  Basis Set: (AUG-CC-PVTZ AUX)
    Blend: AUG-CC-PVTZ-JKFIT
	 Reference Energy          =    -628.0776783700489432 [Eh]
	 Singles Energy            =      -0.0000000000000000 [Eh]
	 Same-Spin Energy          =      -0.2998921895959054 [Eh]
	 Opposite-Spin Energy      =      -0.9573628880200963 [Eh]
	 Correlation Energy        =      -1.2572550776160016 [Eh]
	 Total Energy              =    -629.3349334476649801 [Eh]

	 ================> DF-SCS-MP2 Energies <==================
	-----------------------------------------------------------
	 SCS Same-Spin Scale       =       0.3333333333333333 [-]
	 SCS Opposite-Spin Scale   =       1.2000000000000000 [-]
	 SCS Same-Spin Energy      =      -0.0999640631986351 [Eh]
	 SCS Opposite-Spin Energy  =      -1.1488354656241155 [Eh]
	 SCS Correlation Energy    =      -1.2487995288227507 [Eh]
	 SCS Total Energy          =    -629.3264778988716444 [Eh]
	-----------------------------------------------------------

  Dipole Moment: [D]
     X:     5.2902      Y:    -0.0226      Z:    -1.5078     Total:     5.5009

*** Psi4 exiting successfully. Buy a developer a beer!
