                               Psi4 1.4a3.dev225

  ==> Input File <==

--------------------------------------------------------------------------
#psi4
#
memory 32 gb

molecule  {
-1 1
  S       -1.9699520     0.0002960    -0.4301720
  O       -0.2287560    -0.0011680     1.6042380
  C        0.8192720     0.0003510    -0.5193240
  C        1.6340270     1.2570650    -0.2212640
  C        1.6341410    -1.2566790    -0.2229280
  C       -0.4461550    -0.0002880     0.3723060
  H        0.5101060     0.0010330    -1.5685180
  H        1.8714700     1.2810570     0.8460150
  H        2.5686810     1.2824310    -0.7973980
  H        1.0289462     2.1959470    -0.4742280
  H        1.8715790    -1.2820640     0.8443200
  H        2.5688000    -1.2811950    -0.7990910
  H        1.0555640    -2.1543050    -0.4660390
units angstrom
no_reorient  #important for SAPT in psi4, default
symmetry c1  #important for SAPT in psi4, default
}

set PROPERTIES_ORIGIN ["COM"]
properties('MP2/aug-cc-pvtz', properties = ['dipole'])
--------------------------------------------------------------------------

    Molecular point group: c1
  Charge       = -1
  Multiplicity = 1
  Basis Set: AUG-CC-PVTZ
    Blend: AUG-CC-PVTZ
  Basis Set: (AUG-CC-PVTZ AUX)
    Blend: AUG-CC-PVTZ-JKFIT

    Orbital Energies [Eh]
    ---------------------

    Doubly Occupied:

       1A    -91.704139     2A    -20.344266     3A    -11.159034
       4A    -11.088638     5A    -11.083115     6A    -11.082371
       7A     -8.706572     8A     -6.388100     9A     -6.386643
      10A     -6.386153    11A     -1.172326    12A     -0.929022
      13A     -0.793757    14A     -0.777140    15A     -0.662937
      16A     -0.538879    17A     -0.473715    18A     -0.459754
      19A     -0.432296    20A     -0.405910    21A     -0.381303
      22A     -0.366670    23A     -0.351778    24A     -0.328703
      25A     -0.313235    26A     -0.205574    27A     -0.142315
      28A     -0.131679

  @DF-RHF Final Energy:  -628.07871881439951

   => Energetics <=

    Nuclear Repulsion Energy =            283.4125731078027570
    One-Electron Energy =               -1436.5905345170444889
    Two-Electron Energy =                 525.0992425948422806
    Total Energy =                       -628.0787188143995081
  Basis Set: (AUG-CC-PVTZ AUX)
    Blend: AUG-CC-PVTZ-RI
    Molecular point group: c1

    Geometry (in Angstrom), charge = -1, multiplicity = 1:

       Center              X                  Y                   Z               Mass
    ------------   -----------------  -----------------  -----------------  -----------------
         S           -1.859470306216    -0.000086534695    -0.453252600052    31.972071174400
         O           -0.118274306216    -0.001550534695     1.581157399948    15.994914619570
         C            0.929753693784    -0.000031534695    -0.542404600052    12.000000000000
         C            1.744508693784     1.256682465305    -0.244344600052    12.000000000000
         C            1.744622693784    -1.257061534695    -0.246008600052    12.000000000000
         C           -0.335673306216    -0.000670534695     0.349225399948    12.000000000000
         H            0.620587693784     0.000650465305    -1.591598600052     1.007825032230
         H            1.981951693784     1.280674465305     0.822934399948     1.007825032230
         H            2.679162693784     1.282048465305    -0.820478600052     1.007825032230
         H            1.139427893784     2.195564465305    -0.497308600052     1.007825032230
         H            1.982060693784    -1.282446534695     0.821239399948     1.007825032230
         H            2.679281693784    -1.281577534695    -0.822171600052     1.007825032230
         H            1.166045693784    -2.154687534695    -0.489119600052     1.007825032230

  Basis Set: AUG-CC-PVTZ
    Blend: AUG-CC-PVTZ
  Basis Set: (AUG-CC-PVTZ AUX)
    Blend: AUG-CC-PVTZ-JKFIT
	 Reference Energy          =    -628.0787188143995081 [Eh]
	 Singles Energy            =      -0.0000000000000000 [Eh]
	 Same-Spin Energy          =      -0.2994345405506328 [Eh]
	 Opposite-Spin Energy      =      -0.9571708686048076 [Eh]
	 Correlation Energy        =      -1.2566054091554404 [Eh]
	 Total Energy              =    -629.3353242235549487 [Eh]

	 ================> DF-SCS-MP2 Energies <==================
	-----------------------------------------------------------
	 SCS Same-Spin Scale       =       0.3333333333333333 [-]
	 SCS Opposite-Spin Scale   =       1.2000000000000000 [-]
	 SCS Same-Spin Energy      =      -0.0998115135168776 [Eh]
	 SCS Opposite-Spin Energy  =      -1.1486050423257690 [Eh]
	 SCS Correlation Energy    =      -1.2484165558426465 [Eh]
	 SCS Total Energy          =    -629.3271353702421038 [Eh]
	-----------------------------------------------------------

  Dipole Moment: [D]
     X:     5.3313      Y:    -0.0415      Z:    -1.5104     Total:     5.5412

*** Psi4 exiting successfully. Buy a developer a beer!
