                               Psi4 1.4a3.dev225

  ==> Input File <==

--------------------------------------------------------------------------
#psi4
#
memory 32 gb

molecule  {
-1 1
  S       -1.9699520     0.0002960    -0.4301720
  O       -0.2287560    -0.0011680     1.6042380
  C        0.8192720     0.0003510    -0.5193240
  C        1.6436504     1.2225008    -0.1208949
  C        1.6341410    -1.2566790    -0.2229280
  C       -0.4461550    -0.0002880     0.3723060
  H        0.5101060     0.0010330    -1.5685180
  H        1.8714700     1.2810570     0.8460150
  H        2.5686810     1.2824310    -0.7973980
  H        1.0553630     2.1549570    -0.4631840
  H        1.8715790    -1.2820640     0.8443200
  H        2.5688000    -1.2811950    -0.7990910
  H        1.0555640    -2.1543050    -0.4660390
units angstrom
no_reorient  #important for SAPT in psi4, default
symmetry c1  #important for SAPT in psi4, default
}

set PROPERTIES_ORIGIN ["COM"]
properties('MP2/aug-cc-pvtz', properties = ['dipole'])
--------------------------------------------------------------------------

    Molecular point group: c1
  Charge       = -1
  Multiplicity = 1
  Basis Set: AUG-CC-PVTZ
    Blend: AUG-CC-PVTZ
  Basis Set: (AUG-CC-PVTZ AUX)
    Blend: AUG-CC-PVTZ-JKFIT

    Orbital Energies [Eh]
    ---------------------

    Doubly Occupied:

       1A    -91.704295     2A    -20.344086     3A    -11.158824
       4A    -11.084799     5A    -11.083184     6A    -11.081860
       7A     -8.706732     8A     -6.388259     9A     -6.386805
      10A     -6.386315    11A     -1.172701    12A     -0.931084
      13A     -0.796323    14A     -0.778152    15A     -0.665688
      16A     -0.542639    17A     -0.476249    18A     -0.459558
      19A     -0.431936    20A     -0.418765    21A     -0.377820
      22A     -0.366863    23A     -0.344313    24A     -0.335777
      25A     -0.309294    26A     -0.204961    27A     -0.142612
      28A     -0.131887

  @DF-RHF Final Energy:  -628.06739737965438

   => Energetics <=

    Nuclear Repulsion Energy =            284.0382171156823006
    One-Electron Energy =               -1437.7876653546500165
    Two-Electron Energy =                 525.6820508593133354
    Total Energy =                       -628.0673973796543805
  Basis Set: (AUG-CC-PVTZ AUX)
    Blend: AUG-CC-PVTZ-RI
    Molecular point group: c1

    Geometry (in Angstrom), charge = -1, multiplicity = 1:

       Center              X                  Y                   Z               Mass
    ------------   -----------------  -----------------  -----------------  -----------------
         S           -1.860849668313     0.004340502307    -0.465051656946    31.972071174400
         O           -0.119653668313     0.002876502307     1.569358343054    15.994914619570
         C            0.928374331687     0.004395502307    -0.554203656946    12.000000000000
         C            1.752752731687     1.226545302307    -0.155774556946    12.000000000000
         C            1.743243331687    -1.252634497693    -0.257807656946    12.000000000000
         C           -0.337052668313     0.003756502307     0.337426343054    12.000000000000
         H            0.619208331687     0.005077502307    -1.603397656946     1.007825032230
         H            1.980572331687     1.285101502307     0.811135343054     1.007825032230
         H            2.677783331687     1.286475502307    -0.832277656946     1.007825032230
         H            1.164465331687     2.159001502307    -0.498063656946     1.007825032230
         H            1.980681331687    -1.278019497693     0.809440343054     1.007825032230
         H            2.677902331687    -1.277150497693    -0.833970656946     1.007825032230
         H            1.164666331687    -2.150260497693    -0.500918656946     1.007825032230

  Basis Set: AUG-CC-PVTZ
    Blend: AUG-CC-PVTZ
  Basis Set: (AUG-CC-PVTZ AUX)
    Blend: AUG-CC-PVTZ-JKFIT
	 Reference Energy          =    -628.0673973796543805 [Eh]
	 Singles Energy            =      -0.0000000000000000 [Eh]
	 Same-Spin Energy          =      -0.2995701020225424 [Eh]
	 Opposite-Spin Energy      =      -0.9573303452217456 [Eh]
	 Correlation Energy        =      -1.2569004472442882 [Eh]
	 Total Energy              =    -629.3242978268987144 [Eh]

	 ================> DF-SCS-MP2 Energies <==================
	-----------------------------------------------------------
	 SCS Same-Spin Scale       =       0.3333333333333333 [-]
	 SCS Opposite-Spin Scale   =       1.2000000000000000 [-]
	 SCS Same-Spin Energy      =      -0.0998567006741808 [Eh]
	 SCS Opposite-Spin Energy  =      -1.1487964142660947 [Eh]
	 SCS Correlation Energy    =      -1.2486531149402755 [Eh]
	 SCS Total Energy          =    -629.3160504945946059 [Eh]
	-----------------------------------------------------------

  Dipole Moment: [D]
     X:     5.3117      Y:    -0.0415      Z:    -1.4234     Total:     5.4993

*** Psi4 exiting successfully. Buy a developer a beer!
