                               Psi4 1.4a3.dev225

  ==> Input File <==

--------------------------------------------------------------------------
#psi4
#
memory 32 gb

molecule  {
-1 1
  S       -1.9699520     0.0002960    -0.4301720
  O       -0.2287560    -0.0011680     1.6042380
  C        0.8192720     0.0003510    -0.5193240
  C        1.6121691     1.2973870    -0.3743855
  C        1.6341410    -1.2566790    -0.2229280
  C       -0.4461550    -0.0002880     0.3723060
  H        0.5101060     0.0010330    -1.5685180
  H        1.8714700     1.2810570     0.8460150
  H        2.5686810     1.2824310    -0.7973980
  H        1.0553630     2.1549570    -0.4631840
  H        1.8715790    -1.2820640     0.8443200
  H        2.5688000    -1.2811950    -0.7990910
  H        1.0555640    -2.1543050    -0.4660390
units angstrom
no_reorient  #important for SAPT in psi4, default
symmetry c1  #important for SAPT in psi4, default
}

set PROPERTIES_ORIGIN ["COM"]
properties('MP2/aug-cc-pvtz', properties = ['dipole'])
--------------------------------------------------------------------------

    Molecular point group: c1
  Charge       = -1
  Multiplicity = 1
  Basis Set: AUG-CC-PVTZ
    Blend: AUG-CC-PVTZ
  Basis Set: (AUG-CC-PVTZ AUX)
    Blend: AUG-CC-PVTZ-JKFIT

    Orbital Energies [Eh]
    ---------------------

    Doubly Occupied:

       1A    -91.704533     2A    -20.344911     3A    -11.159894
       4A    -11.086228     5A    -11.084085     6A    -11.083245
       7A     -8.706956     8A     -6.388484     9A     -6.387022
      10A     -6.386530    11A     -1.172301    12A     -0.929477
      13A     -0.800576    14A     -0.777584    15A     -0.665478
      16A     -0.538712    17A     -0.483006    18A     -0.468036
      19A     -0.444711    20A     -0.389782    21A     -0.386683
      22A     -0.368580    23A     -0.358248    24A     -0.317217
      25A     -0.299022    26A     -0.206855    27A     -0.142422
      28A     -0.131901

  @DF-RHF Final Energy:  -628.05742563598062

   => Energetics <=

    Nuclear Repulsion Energy =            283.0789981597219480
    One-Electron Energy =               -1435.8478906683733385
    Two-Electron Energy =                 524.7114668726707123
    Total Energy =                       -628.0574256359806213
  Basis Set: (AUG-CC-PVTZ AUX)
    Blend: AUG-CC-PVTZ-RI
    Molecular point group: c1

    Geometry (in Angstrom), charge = -1, multiplicity = 1:

       Center              X                  Y                   Z               Mass
    ------------   -----------------  -----------------  -----------------  -----------------
         S           -1.857182718765    -0.004382260643    -0.435525009664    31.972071174400
         O           -0.115986718765    -0.005846260643     1.598884990336    15.994914619570
         C            0.932041281235    -0.004327260643    -0.524677009664    12.000000000000
         C            1.724938381235     1.292708739357    -0.379738509664    12.000000000000
         C            1.746910281235    -1.261357260643    -0.228281009664    12.000000000000
         C           -0.333385718765    -0.004966260643     0.366952990336    12.000000000000
         H            0.622875281235    -0.003645260643    -1.573871009664     1.007825032230
         H            1.984239281235     1.276378739357     0.840661990336     1.007825032230
         H            2.681450281235     1.277752739357    -0.802751009664     1.007825032230
         H            1.168132281235     2.150278739357    -0.468537009664     1.007825032230
         H            1.984348281235    -1.286742260643     0.838966990336     1.007825032230
         H            2.681569281235    -1.285873260643    -0.804444009664     1.007825032230
         H            1.168333281235    -2.158983260643    -0.471392009664     1.007825032230

  Basis Set: AUG-CC-PVTZ
    Blend: AUG-CC-PVTZ
  Basis Set: (AUG-CC-PVTZ AUX)
    Blend: AUG-CC-PVTZ-JKFIT
	 Reference Energy          =    -628.0574256359806213 [Eh]
	 Singles Energy            =      -0.0000000000000000 [Eh]
	 Same-Spin Energy          =      -0.2999911541683434 [Eh]
	 Opposite-Spin Energy      =      -0.9582639559179560 [Eh]
	 Correlation Energy        =      -1.2582551100862993 [Eh]
	 Total Energy              =    -629.3156807460669597 [Eh]

	 ================> DF-SCS-MP2 Energies <==================
	-----------------------------------------------------------
	 SCS Same-Spin Scale       =       0.3333333333333333 [-]
	 SCS Opposite-Spin Scale   =       1.2000000000000000 [-]
	 SCS Same-Spin Energy      =      -0.0999970513894478 [Eh]
	 SCS Opposite-Spin Energy  =      -1.1499167471015472 [Eh]
	 SCS Correlation Energy    =      -1.2499137984909949 [Eh]
	 SCS Total Energy          =    -629.3073394344716007 [Eh]
	-----------------------------------------------------------

  Dipole Moment: [D]
     X:     5.2660      Y:    -0.0109      Z:    -1.6871     Total:     5.5297

*** Psi4 exiting successfully. Buy a developer a beer!
