                               Psi4 1.4a3.dev225

  ==> Input File <==

--------------------------------------------------------------------------
#psi4
#
memory 32 gb

molecule  {
-1 1
  S       -1.9699520     0.0002960    -0.4301720
  O       -0.2287560    -0.0011680     1.6042380
  C        0.8192720     0.0003510    -0.5193240
  C        1.6340270     1.2570650    -0.2212640
  C        1.6341410    -1.2566790    -0.2229280
  C       -0.4461550    -0.0002880     0.3723060
  H        0.5101060     0.0010330    -1.5685180
  H        1.8714700     1.2810570     0.8460150
  H        2.5686810     1.2824310    -0.7973980
  H        1.1610303     1.9909969    -0.4190081
  H        1.8715790    -1.2820640     0.8443200
  H        2.5688000    -1.2811950    -0.7990910
  H        1.0555640    -2.1543050    -0.4660390
units angstrom
no_reorient  #important for SAPT in psi4, default
symmetry c1  #important for SAPT in psi4, default
}

set PROPERTIES_ORIGIN ["COM"]
properties('MP2/aug-cc-pvtz', properties = ['dipole'])
--------------------------------------------------------------------------

    Molecular point group: c1
  Charge       = -1
  Multiplicity = 1
  Basis Set: AUG-CC-PVTZ
    Blend: AUG-CC-PVTZ
  Basis Set: (AUG-CC-PVTZ AUX)
    Blend: AUG-CC-PVTZ-JKFIT

    Orbital Energies [Eh]
    ---------------------

    Doubly Occupied:

       1A    -91.704055     2A    -20.343789     3A    -11.158422
       4A    -11.080860     5A    -11.080084     6A    -11.056781
       7A     -8.706490     8A     -6.388015     9A     -6.386563
      10A     -6.386071    11A     -1.171868    12A     -0.934252
      13A     -0.814751    14A     -0.777795    15A     -0.668306
      16A     -0.538639    17A     -0.496049    18A     -0.464801
      19A     -0.433989    20A     -0.406526    21A     -0.384067
      22A     -0.366078    23A     -0.362297    24A     -0.327966
      25A     -0.312991    26A     -0.205000    27A     -0.142219
      28A     -0.131515

  @DF-RHF Final Energy:  -628.04702602881378

   => Energetics <=

    Nuclear Repulsion Energy =            284.5790628761431549
    One-Electron Energy =               -1438.7917017078739264
    Two-Electron Energy =                 526.1656128029170532
    Total Energy =                       -628.0470260288137752
  Basis Set: (AUG-CC-PVTZ AUX)
    Blend: AUG-CC-PVTZ-RI
    Molecular point group: c1

    Geometry (in Angstrom), charge = -1, multiplicity = 1:

       Center              X                  Y                   Z               Mass
    ------------   -----------------  -----------------  -----------------  -----------------
         S           -1.860762437714     0.001918418812    -0.453792796579    31.972071174400
         O           -0.119566437714     0.000454418812     1.580617203421    15.994914619570
         C            0.928461562286     0.001973418812    -0.542944796579    12.000000000000
         C            1.743216562286     1.258687418812    -0.244884796579    12.000000000000
         C            1.743330562286    -1.255056581188    -0.246548796579    12.000000000000
         C           -0.336965437714     0.001334418812     0.348685203421    12.000000000000
         H            0.619295562286     0.002655418812    -1.592138796579     1.007825032230
         H            1.980659562286     1.282679418812     0.822394203421     1.007825032230
         H            2.677870562286     1.284053418812    -0.821018796579     1.007825032230
         H            1.270219862286     1.992619318812    -0.442628896579     1.007825032230
         H            1.980768562286    -1.280441581188     0.820699203421     1.007825032230
         H            2.677989562286    -1.279572581188    -0.822711796579     1.007825032230
         H            1.164753562286    -2.152682581188    -0.489659796579     1.007825032230

  Basis Set: AUG-CC-PVTZ
    Blend: AUG-CC-PVTZ
  Basis Set: (AUG-CC-PVTZ AUX)
    Blend: AUG-CC-PVTZ-JKFIT
	 Reference Energy          =    -628.0470260288137752 [Eh]
	 Singles Energy            =      -0.0000000000000000 [Eh]
	 Same-Spin Energy          =      -0.2995445806262111 [Eh]
	 Opposite-Spin Energy      =      -0.9562417647135282 [Eh]
	 Correlation Energy        =      -1.2557863453397393 [Eh]
	 Total Energy              =    -629.3028123741535182 [Eh]

	 ================> DF-SCS-MP2 Energies <==================
	-----------------------------------------------------------
	 SCS Same-Spin Scale       =       0.3333333333333333 [-]
	 SCS Opposite-Spin Scale   =       1.2000000000000000 [-]
	 SCS Same-Spin Energy      =      -0.0998481935420704 [Eh]
	 SCS Opposite-Spin Energy  =      -1.1474901176562338 [Eh]
	 SCS Correlation Energy    =      -1.2473383111983041 [Eh]
	 SCS Total Energy          =    -629.2943643400120664 [Eh]
	-----------------------------------------------------------

  Dipole Moment: [D]
     X:     5.3200      Y:     0.1239      Z:    -1.5360     Total:     5.5387

*** Psi4 exiting successfully. Buy a developer a beer!
