                               Psi4 1.4a3.dev225

  ==> Input File <==

--------------------------------------------------------------------------
#psi4
#
memory 32 gb

molecule  {
-1 1
  S       -1.9699520     0.0002960    -0.4301720
  O       -0.2287560    -0.0011680     1.6042380
  C        0.8192720     0.0003510    -0.5193240
  C        1.6340270     1.2570650    -0.2212640
  C        1.6341410    -1.2566790    -0.2229280
  C       -0.4461550    -0.0002880     0.3723060
  H        0.5101060     0.0010330    -1.5685180
  H        1.8714700     1.2810570     0.8460150
  H        2.5686810     1.2824310    -0.7973980
  H        0.9496957     2.3189171    -0.5073599
  H        1.8715790    -1.2820640     0.8443200
  H        2.5688000    -1.2811950    -0.7990910
  H        1.0555640    -2.1543050    -0.4660390
units angstrom
no_reorient  #important for SAPT in psi4, default
symmetry c1  #important for SAPT in psi4, default
}

set PROPERTIES_ORIGIN ["COM"]
properties('MP2/aug-cc-pvtz', properties = ['dipole'])
--------------------------------------------------------------------------

    Molecular point group: c1
  Charge       = -1
  Multiplicity = 1
  Basis Set: AUG-CC-PVTZ
    Blend: AUG-CC-PVTZ
  Basis Set: (AUG-CC-PVTZ AUX)
    Blend: AUG-CC-PVTZ-JKFIT

    Orbital Energies [Eh]
    ---------------------

    Doubly Occupied:

       1A    -91.704296     2A    -20.344796     3A    -11.159726
       4A    -11.106359     5A    -11.085303     6A    -11.084594
       7A     -8.706725     8A     -6.388254     9A     -6.386793
      10A     -6.386304    11A     -1.172877    12A     -0.929306
      13A     -0.789331    14A     -0.776489    15A     -0.661955
      16A     -0.540108    17A     -0.472140    18A     -0.454848
      19A     -0.430740    20A     -0.406504    21A     -0.381148
      22A     -0.367608    23A     -0.341056    24A     -0.327869
      25A     -0.311973    26A     -0.206213    27A     -0.142443
      28A     -0.131903

  @DF-RHF Final Energy:  -628.06112375058808

   => Energetics <=

    Nuclear Repulsion Energy =            282.8641607323689300
    One-Electron Energy =               -1435.4552465794836280
    Two-Electron Energy =                 524.5299620965266740
    Total Energy =                       -628.0611237505880808
  Basis Set: (AUG-CC-PVTZ AUX)
    Blend: AUG-CC-PVTZ-RI
    Molecular point group: c1

    Geometry (in Angstrom), charge = -1, multiplicity = 1:

       Center              X                  Y                   Z               Mass
    ------------   -----------------  -----------------  -----------------  -----------------
         S           -1.858695026927    -0.001289507191    -0.452928482527    31.972071174400
         O           -0.117499026927    -0.002753507191     1.581481517473    15.994914619570
         C            0.930528973073    -0.001234507191    -0.542080482527    12.000000000000
         C            1.745283973073     1.255479492809    -0.244020482527    12.000000000000
         C            1.745397973073    -1.258264507191    -0.245684482527    12.000000000000
         C           -0.334898026927    -0.001873507191     0.349549517473    12.000000000000
         H            0.621362973073    -0.000552507191    -1.591274482527     1.007825032230
         H            1.982726973073     1.279471492809     0.823258517473     1.007825032230
         H            2.679937973073     1.280845492809    -0.820154482527     1.007825032230
         H            1.060952673073     2.317331592809    -0.530116382527     1.007825032230
         H            1.982835973073    -1.283649507191     0.821563517473     1.007825032230
         H            2.680056973073    -1.282780507191    -0.821847482527     1.007825032230
         H            1.166820973073    -2.155890507191    -0.488795482527     1.007825032230

  Basis Set: AUG-CC-PVTZ
    Blend: AUG-CC-PVTZ
  Basis Set: (AUG-CC-PVTZ AUX)
    Blend: AUG-CC-PVTZ-JKFIT
	 Reference Energy          =    -628.0611237505880808 [Eh]
	 Singles Energy            =      -0.0000000000000000 [Eh]
	 Same-Spin Energy          =      -0.2994157221537923 [Eh]
	 Opposite-Spin Energy      =      -0.9583754434513534 [Eh]
	 Correlation Energy        =      -1.2577911656051457 [Eh]
	 Total Energy              =    -629.3189149161931937 [Eh]

	 ================> DF-SCS-MP2 Energies <==================
	-----------------------------------------------------------
	 SCS Same-Spin Scale       =       0.3333333333333333 [-]
	 SCS Opposite-Spin Scale   =       1.2000000000000000 [-]
	 SCS Same-Spin Energy      =      -0.0998052407179308 [Eh]
	 SCS Opposite-Spin Energy  =      -1.1500505321416241 [Eh]
	 SCS Correlation Energy    =      -1.2498557728595550 [Eh]
	 SCS Total Energy          =    -629.3109795234475996 [Eh]
	-----------------------------------------------------------

  Dipole Moment: [D]
     X:     5.3511      Y:    -0.1973      Z:    -1.4848     Total:     5.5568

*** Psi4 exiting successfully. Buy a developer a beer!
