                               Psi4 1.4a3.dev225

  ==> Input File <==

--------------------------------------------------------------------------
#psi4
#
memory 32 gb

molecule  {
-1 1
  S       -1.9699520     0.0002960    -0.4301720
  O       -0.2287560    -0.0011680     1.6042380
  C        0.8192720     0.0003510    -0.5193240
  C        1.6340270     1.2570650    -0.2212640
  C        1.6341410    -1.2566790    -0.2229280
  C       -0.4461550    -0.0002880     0.3723060
  H        0.5101060     0.0010330    -1.5685180
  H        1.8714700     1.2810570     0.8460150
  H        2.5686810     1.2824310    -0.7973980
  H        1.0553630     2.1549570    -0.4631840
  H        1.8715790    -1.2820640     0.8443200
  H        2.5739147    -1.2644992    -0.7911855
  H        1.0555640    -2.1543050    -0.4660390
units angstrom
no_reorient  #important for SAPT in psi4, default
symmetry c1  #important for SAPT in psi4, default
}

set PROPERTIES_ORIGIN ["COM"]
properties('MP2/aug-cc-pvtz', properties = ['dipole'])
--------------------------------------------------------------------------

    Molecular point group: c1
  Charge       = -1
  Multiplicity = 1
  Basis Set: AUG-CC-PVTZ
    Blend: AUG-CC-PVTZ
  Basis Set: (AUG-CC-PVTZ AUX)
    Blend: AUG-CC-PVTZ-JKFIT

    Orbital Energies [Eh]
    ---------------------

    Doubly Occupied:

       1A    -91.704084     2A    -20.344079     3A    -11.158784
       4A    -11.082632     5A    -11.082401     6A    -11.081601
       7A     -8.706518     8A     -6.388046     9A     -6.386590
      10A     -6.386099    11A     -1.172139    12A     -0.929470
      13A     -0.796364    14A     -0.777333    15A     -0.663551
      16A     -0.538643    17A     -0.475561    18A     -0.462136
      19A     -0.433000    20A     -0.405404    21A     -0.381884
      22A     -0.366239    23A     -0.355369    24A     -0.328540
      25A     -0.313031    26A     -0.205350    27A     -0.142270
      28A     -0.131596

  @DF-RHF Final Energy:  -628.08073316290768

   => Energetics <=

    Nuclear Repulsion Energy =            283.6320844409314645
    One-Electron Energy =               -1437.0282068373255697
    Two-Electron Energy =                 525.3153892334863713
    Total Energy =                       -628.0807331629076771
  Basis Set: (AUG-CC-PVTZ AUX)
    Blend: AUG-CC-PVTZ-RI
    Molecular point group: c1

    Geometry (in Angstrom), charge = -1, multiplicity = 1:

       Center              X                  Y                   Z               Mass
    ------------   -----------------  -----------------  -----------------  -----------------
         S           -1.859778767601     0.000151126772    -0.453437976231    31.972071174400
         O           -0.118582767601    -0.001312873228     1.580972023769    15.994914619570
         C            0.929445232399     0.000206126772    -0.542589976231    12.000000000000
         C            1.744200232399     1.256920126772    -0.244529976231    12.000000000000
         C            1.744314232399    -1.256823873228    -0.246193976231    12.000000000000
         C           -0.335981767601    -0.000432873228     0.349040023769    12.000000000000
         H            0.620279232399     0.000888126772    -1.591783976231     1.007825032230
         H            1.981643232399     1.280912126772     0.822749023769     1.007825032230
         H            2.678854232399     1.282286126772    -0.820663976231     1.007825032230
         H            1.165536232399     2.154812126772    -0.486449976231     1.007825032230
         H            1.981752232399    -1.282208873228     0.821054023769     1.007825032230
         H            2.684087932399    -1.264644073228    -0.814451476231     1.007825032230
         H            1.165737232399    -2.154449873228    -0.489304976231     1.007825032230

  Basis Set: AUG-CC-PVTZ
    Blend: AUG-CC-PVTZ
  Basis Set: (AUG-CC-PVTZ AUX)
    Blend: AUG-CC-PVTZ-JKFIT
	 Reference Energy          =    -628.0807331629076771 [Eh]
	 Singles Energy            =      -0.0000000000000000 [Eh]
	 Same-Spin Energy          =      -0.2994508799049894 [Eh]
	 Opposite-Spin Energy      =      -0.9568614921469510 [Eh]
	 Correlation Energy        =      -1.2563123720519405 [Eh]
	 Total Energy              =    -629.3370455349596568 [Eh]

	 ================> DF-SCS-MP2 Energies <==================
	-----------------------------------------------------------
	 SCS Same-Spin Scale       =       0.3333333333333333 [-]
	 SCS Opposite-Spin Scale   =       1.2000000000000000 [-]
	 SCS Same-Spin Energy      =      -0.0998169599683298 [Eh]
	 SCS Opposite-Spin Energy  =      -1.1482337905763411 [Eh]
	 SCS Correlation Energy    =      -1.2480507505446710 [Eh]
	 SCS Total Energy          =    -629.3287839134522983 [Eh]
	-----------------------------------------------------------

  Dipole Moment: [D]
     X:     5.3285      Y:     0.0056      Z:    -1.5135     Total:     5.5393

*** Psi4 exiting successfully. Buy a developer a beer!
