                               Psi4 1.4a3.dev225

  ==> Input File <==

--------------------------------------------------------------------------
#psi4
#
memory 32 gb

molecule  {
-1 1
  S       -1.9699520     0.0002960    -0.4301720
  O       -0.2287560    -0.0011680     1.6042380
  C        0.8192720     0.0003510    -0.5193240
  C        1.5273199     1.0924753    -0.2603004
  C        1.6341410    -1.2566790    -0.2229280
  C       -0.4461550    -0.0002880     0.3723060
  H        0.5101060     0.0010330    -1.5685180
  H        1.8714700     1.2810570     0.8460150
  H        2.5686810     1.2824310    -0.7973980
  H        1.0553630     2.1549570    -0.4631840
  H        1.8715790    -1.2820640     0.8443200
  H        2.5688000    -1.2811950    -0.7990910
  H        1.0555640    -2.1543050    -0.4660390
units angstrom
no_reorient  #important for SAPT in psi4, default
symmetry c1  #important for SAPT in psi4, default
}

set PROPERTIES_ORIGIN ["COM"]
properties('MP2/aug-cc-pvtz', properties = ['dipole'])
--------------------------------------------------------------------------

    Molecular point group: c1
  Charge       = -1
  Multiplicity = 1
  Basis Set: AUG-CC-PVTZ
    Blend: AUG-CC-PVTZ
  Basis Set: (AUG-CC-PVTZ AUX)
    Blend: AUG-CC-PVTZ-JKFIT

    Orbital Energies [Eh]
    ---------------------

    Doubly Occupied:

       1A    -91.705800     2A    -20.346419     3A    -11.162045
       4A    -11.096006     5A    -11.084208     6A    -11.070981
       7A     -8.708190     8A     -6.389719     9A     -6.388247
      10A     -6.387762    11A     -1.175545    12A     -0.967891
      13A     -0.797225    14A     -0.777712    15A     -0.657529
      16A     -0.551558    17A     -0.493141    18A     -0.465121
      19A     -0.442498    20A     -0.398439    21A     -0.390530
      22A     -0.361872    23A     -0.333194    24A     -0.326817
      25A     -0.300826    26A     -0.206222    27A     -0.143736
      28A     -0.133315

  @DF-RHF Final Energy:  -628.03130449476112

   => Energetics <=

    Nuclear Repulsion Energy =            287.1056554272926746
    One-Electron Energy =               -1443.7488216504807497
    Two-Electron Energy =                 528.6118617284269021
    Total Energy =                       -628.0313044947611161
  Basis Set: (AUG-CC-PVTZ AUX)
    Blend: AUG-CC-PVTZ-RI
    Molecular point group: c1

    Geometry (in Angstrom), charge = -1, multiplicity = 1:

       Center              X                  Y                   Z               Mass
    ------------   -----------------  -----------------  -----------------  -----------------
         S           -1.847299463132     0.019485904449    -0.448813670103    31.972071174400
         O           -0.106103463132     0.018021904449     1.585596329897    15.994914619570
         C            0.941924536868     0.019540904449    -0.537965670103    12.000000000000
         C            1.649972436868     1.111665204449    -0.278942070103    12.000000000000
         C            1.756793536868    -1.237489095551    -0.241569670103    12.000000000000
         C           -0.323502463132     0.018901904449     0.353664329897    12.000000000000
         H            0.632758536868     0.020222904449    -1.587159670103     1.007825032230
         H            1.994122536868     1.300246904449     0.827373329897     1.007825032230
         H            2.691333536868     1.301620904449    -0.816039670103     1.007825032230
         H            1.178015536868     2.174146904449    -0.481825670103     1.007825032230
         H            1.994231536868    -1.262874095551     0.825678329897     1.007825032230
         H            2.691452536868    -1.262005095551    -0.817732670103     1.007825032230
         H            1.178216536868    -2.135115095551    -0.484680670103     1.007825032230

  Basis Set: AUG-CC-PVTZ
    Blend: AUG-CC-PVTZ
  Basis Set: (AUG-CC-PVTZ AUX)
    Blend: AUG-CC-PVTZ-JKFIT
	 Reference Energy          =    -628.0313044947611161 [Eh]
	 Singles Energy            =      -0.0000000000000000 [Eh]
	 Same-Spin Energy          =      -0.3026885901277901 [Eh]
	 Opposite-Spin Energy      =      -0.9612731385093544 [Eh]
	 Correlation Energy        =      -1.2639617286371445 [Eh]
	 Total Energy              =    -629.2952662233982437 [Eh]

	 ================> DF-SCS-MP2 Energies <==================
	-----------------------------------------------------------
	 SCS Same-Spin Scale       =       0.3333333333333333 [-]
	 SCS Opposite-Spin Scale   =       1.2000000000000000 [-]
	 SCS Same-Spin Energy      =      -0.1008961967092634 [Eh]
	 SCS Opposite-Spin Energy  =      -1.1535277662112251 [Eh]
	 SCS Correlation Energy    =      -1.2544239629204885 [Eh]
	 SCS Total Energy          =    -629.2857284576815573 [Eh]
	-----------------------------------------------------------

  Dipole Moment: [D]
     X:     5.0739      Y:    -0.1945      Z:    -1.4798     Total:     5.2889

*** Psi4 exiting successfully. Buy a developer a beer!
