                               Psi4 1.4a3.dev225

  ==> Input File <==

--------------------------------------------------------------------------
#psi4
#
memory 32 gb

molecule  {
-1 1
  S       -1.9699520     0.0002960    -0.4301720
  O       -0.2287560    -0.0011680     1.6042380
  C        0.8192720     0.0003510    -0.5193240
  C        1.6277231     1.2720605    -0.2720239
  C        1.6341410    -1.2566790    -0.2229280
  C       -0.4461550    -0.0002880     0.3723060
  H        0.5101060     0.0010330    -1.5685180
  H        1.8714700     1.2810570     0.8460150
  H        2.5686810     1.2824310    -0.7973980
  H        1.0553630     2.1549570    -0.4631840
  H        1.8715790    -1.2820640     0.8443200
  H        2.5688000    -1.2811950    -0.7990910
  H        1.0555640    -2.1543050    -0.4660390
units angstrom
no_reorient  #important for SAPT in psi4, default
symmetry c1  #important for SAPT in psi4, default
}

set PROPERTIES_ORIGIN ["COM"]
properties('MP2/aug-cc-pvtz', properties = ['dipole'])
--------------------------------------------------------------------------

    Molecular point group: c1
  Charge       = -1
  Multiplicity = 1
  Basis Set: AUG-CC-PVTZ
    Blend: AUG-CC-PVTZ
  Basis Set: (AUG-CC-PVTZ AUX)
    Blend: AUG-CC-PVTZ-JKFIT

    Orbital Energies [Eh]
    ---------------------

    Doubly Occupied:

       1A    -91.704161     2A    -20.344305     3A    -11.159084
       4A    -11.082934     5A    -11.082699     6A    -11.081811
       7A     -8.706592     8A     -6.388120     9A     -6.386662
      10A     -6.386171    11A     -1.172122    12A     -0.929065
      13A     -0.797444    14A     -0.777248    15A     -0.663801
      16A     -0.537800    17A     -0.476294    18A     -0.464462
      19A     -0.437179    20A     -0.397380    21A     -0.384643
      22A     -0.364463    23A     -0.359680    24A     -0.321016
      25A     -0.314741    26A     -0.205800    27A     -0.142254
      28A     -0.131635

  @DF-RHF Final Energy:  -628.07775679990732

   => Energetics <=

    Nuclear Repulsion Energy =            283.4278970572187291
    One-Electron Energy =               -1436.6121772206684000
    Two-Electron Energy =                 525.1065233635424647
    Total Energy =                       -628.0777567999073199
  Basis Set: (AUG-CC-PVTZ AUX)
    Blend: AUG-CC-PVTZ-RI
    Molecular point group: c1

    Geometry (in Angstrom), charge = -1, multiplicity = 1:

       Center              X                  Y                   Z               Mass
    ------------   -----------------  -----------------  -----------------  -----------------
         S           -1.858994452502    -0.001432223709    -0.447448113947    31.972071174400
         O           -0.117798452502    -0.002896223709     1.586961886053    15.994914619570
         C            0.930229547498    -0.001377223709    -0.536600113947    12.000000000000
         C            1.738680647498     1.270332276291    -0.289300013947    12.000000000000
         C            1.745098547498    -1.258407223709    -0.240204113947    12.000000000000
         C           -0.335197452502    -0.002016223709     0.355029886053    12.000000000000
         H            0.621063547498    -0.000695223709    -1.585794113947     1.007825032230
         H            1.982427547498     1.279328776291     0.828738886053     1.007825032230
         H            2.679638547498     1.280702776291    -0.814674113947     1.007825032230
         H            1.166320547498     2.153228776291    -0.480460113947     1.007825032230
         H            1.982536547498    -1.283792223709     0.827043886053     1.007825032230
         H            2.679757547498    -1.282923223709    -0.816367113947     1.007825032230
         H            1.166521547498    -2.156033223709    -0.483315113947     1.007825032230

  Basis Set: AUG-CC-PVTZ
    Blend: AUG-CC-PVTZ
  Basis Set: (AUG-CC-PVTZ AUX)
    Blend: AUG-CC-PVTZ-JKFIT
	 Reference Energy          =    -628.0777567999073199 [Eh]
	 Singles Energy            =      -0.0000000000000000 [Eh]
	 Same-Spin Energy          =      -0.2995263875814043 [Eh]
	 Opposite-Spin Energy      =      -0.9570418027395351 [Eh]
	 Correlation Energy        =      -1.2565681903209394 [Eh]
	 Total Energy              =    -629.3343249902283105 [Eh]

	 ================> DF-SCS-MP2 Energies <==================
	-----------------------------------------------------------
	 SCS Same-Spin Scale       =       0.3333333333333333 [-]
	 SCS Opposite-Spin Scale   =       1.2000000000000000 [-]
	 SCS Same-Spin Energy      =      -0.0998421291938014 [Eh]
	 SCS Opposite-Spin Energy  =      -1.1484501632874420 [Eh]
	 SCS Correlation Energy    =      -1.2482922924812434 [Eh]
	 SCS Total Energy          =    -629.3260490923885300 [Eh]
	-----------------------------------------------------------

  Dipole Moment: [D]
     X:     5.3168      Y:     0.0068      Z:    -1.5709     Total:     5.5440

*** Psi4 exiting successfully. Buy a developer a beer!
