                               Psi4 1.4a3.dev225

  ==> Input File <==

--------------------------------------------------------------------------
#psi4
#
memory 32 gb

molecule  {
0 1
  C       -0.1291220     0.3651120    -0.0000010
  H       -0.0354980     1.4652460     0.0000010
  O       -1.1850860    -0.2198210     0.0000000
  O        1.1073930    -0.3077241     0.0000000
  H        1.7831240     0.3732560    -0.0000010
units angstrom
no_reorient  #important for SAPT in psi4, default
symmetry c1  #important for SAPT in psi4, default
}

set PROPERTIES_ORIGIN ["COM"]
properties('MP2/aug-cc-pvtz', properties = ['dipole'])
--------------------------------------------------------------------------

    Molecular point group: c1
  Charge       = 0
  Multiplicity = 1
  Basis Set: AUG-CC-PVTZ
    Blend: AUG-CC-PVTZ
  Basis Set: (AUG-CC-PVTZ AUX)
    Blend: AUG-CC-PVTZ-JKFIT

    Orbital Energies [Eh]
    ---------------------

    Doubly Occupied:

       1A    -20.628157     2A    -20.575231     3A    -11.408354
       4A     -1.455552     5A     -1.377715     6A     -0.866284
       7A     -0.781497     8A     -0.669322     9A     -0.622876
      10A     -0.608891    11A     -0.498200    12A     -0.474114

  @DF-RHF Final Energy:  -188.82995431329448

   => Energetics <=

    Nuclear Repulsion Energy =             68.5270456383554318
    One-Electron Energy =                -394.7816173925072007
    Two-Electron Energy =                 137.4246174408572756
    Total Energy =                       -188.8299543132944791
  Basis Set: (AUG-CC-PVTZ AUX)
    Blend: AUG-CC-PVTZ-RI
    Molecular point group: c1

    Geometry (in Angstrom), charge = 0, multiplicity = 1:

       Center              X                  Y                   Z               Mass
    ------------   -----------------  -----------------  -----------------  -----------------
         C           -0.106714763137     0.413015130854    -0.000000739162    12.000000000000
         H           -0.013090763137     1.513149130854     0.000001260838     1.007825032230
         O           -1.162678763137    -0.171917869146     0.000000260838    15.994914619570
         O            1.129800236863    -0.259820969146     0.000000260838    15.994914619570
         H            1.805531236863     0.421159130854    -0.000000739162     1.007825032230

  Basis Set: AUG-CC-PVTZ
    Blend: AUG-CC-PVTZ
  Basis Set: (AUG-CC-PVTZ AUX)
    Blend: AUG-CC-PVTZ-JKFIT
	 Reference Energy          =    -188.8299543132944791 [Eh]
	 Singles Energy            =      -0.0000000000000000 [Eh]
	 Same-Spin Energy          =      -0.1735908556677468 [Eh]
	 Opposite-Spin Energy      =      -0.5210685875499206 [Eh]
	 Correlation Energy        =      -0.6946594432176674 [Eh]
	 Total Energy              =    -189.5246137565121387 [Eh]

	 ================> DF-SCS-MP2 Energies <==================
	-----------------------------------------------------------
	 SCS Same-Spin Scale       =       0.3333333333333333 [-]
	 SCS Opposite-Spin Scale   =       1.2000000000000000 [-]
	 SCS Same-Spin Energy      =      -0.0578636185559156 [Eh]
	 SCS Opposite-Spin Energy  =      -0.6252823050599047 [Eh]
	 SCS Correlation Energy    =      -0.6831459236158203 [Eh]
	 SCS Total Energy          =    -189.5131002369103044 [Eh]
	-----------------------------------------------------------

  Dipole Moment: [D]
     X:     2.4697      Y:     2.8138      Z:    -0.0000     Total:     3.7439

*** Psi4 exiting successfully. Buy a developer a beer!
