                               Psi4 1.4a3.dev225

  ==> Input File <==

--------------------------------------------------------------------------
#psi4
#
memory 32 gb

molecule  {
0 1
  C       -0.1291220     0.3651120    -0.0000010
  H       -0.0312582     1.5150659     0.0000011
  O       -1.1850860    -0.2198210     0.0000000
  O        1.0634740    -0.2838260     0.0000000
  H        1.7831240     0.3732560    -0.0000010
units angstrom
no_reorient  #important for SAPT in psi4, default
symmetry c1  #important for SAPT in psi4, default
}

set PROPERTIES_ORIGIN ["COM"]
properties('MP2/aug-cc-pvtz', properties = ['dipole'])
--------------------------------------------------------------------------

    Molecular point group: c1
  Charge       = 0
  Multiplicity = 1
  Basis Set: AUG-CC-PVTZ
    Blend: AUG-CC-PVTZ
  Basis Set: (AUG-CC-PVTZ AUX)
    Blend: AUG-CC-PVTZ-JKFIT

    Orbital Energies [Eh]
    ---------------------

    Doubly Occupied:

       1A    -20.634210     2A    -20.567047     3A    -11.406927
       4A     -1.468684     5A     -1.376877     6A     -0.863961
       7A     -0.784595     8A     -0.670230     9A     -0.634368
      10A     -0.599781    11A     -0.493976    12A     -0.468679

  @DF-RHF Final Energy:  -188.83158835343940

   => Energetics <=

    Nuclear Repulsion Energy =             69.2489213818698772
    One-Electron Energy =                -396.2223489785989727
    Two-Electron Energy =                 138.1418392432896951
    Total Energy =                       -188.8315883534394004
  Basis Set: (AUG-CC-PVTZ AUX)
    Blend: AUG-CC-PVTZ-RI
    Molecular point group: c1

    Geometry (in Angstrom), charge = 0, multiplicity = 1:

       Center              X                  Y                   Z               Mass
    ------------   -----------------  -----------------  -----------------  -----------------
         C           -0.091538143109     0.403614993784    -0.000000741352    12.000000000000
         H            0.006325656891     1.553568893784     0.000001358648     1.007825032230
         O           -1.147502143109    -0.181318006216     0.000000258648    15.994914619570
         O            1.101057856891    -0.245323006216     0.000000258648    15.994914619570
         H            1.820707856891     0.411758993784    -0.000000741352     1.007825032230

  Basis Set: AUG-CC-PVTZ
    Blend: AUG-CC-PVTZ
  Basis Set: (AUG-CC-PVTZ AUX)
    Blend: AUG-CC-PVTZ-JKFIT
	 Reference Energy          =    -188.8315883534394004 [Eh]
	 Singles Energy            =      -0.0000000000000000 [Eh]
	 Same-Spin Energy          =      -0.1734674295191652 [Eh]
	 Opposite-Spin Energy      =      -0.5198706414236028 [Eh]
	 Correlation Energy        =      -0.6933380709427680 [Eh]
	 Total Energy              =    -189.5249264243821585 [Eh]

	 ================> DF-SCS-MP2 Energies <==================
	-----------------------------------------------------------
	 SCS Same-Spin Scale       =       0.3333333333333333 [-]
	 SCS Opposite-Spin Scale   =       1.2000000000000000 [-]
	 SCS Same-Spin Energy      =      -0.0578224765063884 [Eh]
	 SCS Opposite-Spin Energy  =      -0.6238447697083234 [Eh]
	 SCS Correlation Energy    =      -0.6816672462147118 [Eh]
	 SCS Total Energy          =    -189.5132555996541157 [Eh]
	-----------------------------------------------------------

  Dipole Moment: [D]
     X:     2.7995      Y:     2.6824      Z:    -0.0000     Total:     3.8771

*** Psi4 exiting successfully. Buy a developer a beer!
