                               Psi4 1.4a3.dev225

  ==> Input File <==

--------------------------------------------------------------------------
#psi4
#
memory 32 gb

molecule  {
0 1
  C       -0.1291220     0.3651120    -0.0000010
  H       -0.0354980     1.4652460     0.0000010
  O       -1.1675908    -0.2101298    -0.0000000
  O        1.0634740    -0.2838260     0.0000000
  H        1.7831240     0.3732560    -0.0000010
units angstrom
no_reorient  #important for SAPT in psi4, default
symmetry c1  #important for SAPT in psi4, default
}

set PROPERTIES_ORIGIN ["COM"]
properties('MP2/aug-cc-pvtz', properties = ['dipole'])
--------------------------------------------------------------------------

    Molecular point group: c1
  Charge       = 0
  Multiplicity = 1
  Basis Set: AUG-CC-PVTZ
    Blend: AUG-CC-PVTZ
  Basis Set: (AUG-CC-PVTZ AUX)
    Blend: AUG-CC-PVTZ-JKFIT

    Orbital Energies [Eh]
    ---------------------

    Doubly Occupied:

       1A    -20.629657     2A    -20.565378     3A    -11.396836
       4A     -1.471792     5A     -1.383700     6A     -0.866874
       7A     -0.791967     8A     -0.673409     9A     -0.635599
      10A     -0.603229    11A     -0.497307    12A     -0.470645

  @DF-RHF Final Energy:  -188.83620621016075

   => Energetics <=

    Nuclear Repulsion Energy =             69.9563066087828815
    One-Electron Energy =                -397.6122398599417238
    Two-Electron Energy =                 138.8197270409980888
    Total Energy =                       -188.8362062101607535
  Basis Set: (AUG-CC-PVTZ AUX)
    Blend: AUG-CC-PVTZ-RI
    Molecular point group: c1

    Geometry (in Angstrom), charge = 0, multiplicity = 1:

       Center              X                  Y                   Z               Mass
    ------------   -----------------  -----------------  -----------------  -----------------
         C           -0.097527891674     0.401337000471    -0.000000739162    12.000000000000
         H           -0.003903891674     1.501471000471     0.000001260838     1.007825032230
         O           -1.135996691674    -0.173904799529     0.000000260838    15.994914619570
         O            1.095068108326    -0.247600999529     0.000000260838    15.994914619570
         H            1.814718108326     0.409481000471    -0.000000739162     1.007825032230

  Basis Set: AUG-CC-PVTZ
    Blend: AUG-CC-PVTZ
  Basis Set: (AUG-CC-PVTZ AUX)
    Blend: AUG-CC-PVTZ-JKFIT
	 Reference Energy          =    -188.8362062101607535 [Eh]
	 Singles Energy            =      -0.0000000000000000 [Eh]
	 Same-Spin Energy          =      -0.1727571724150406 [Eh]
	 Opposite-Spin Energy      =      -0.5180989816631705 [Eh]
	 Correlation Energy        =      -0.6908561540782110 [Eh]
	 Total Energy              =    -189.5270623642389580 [Eh]

	 ================> DF-SCS-MP2 Energies <==================
	-----------------------------------------------------------
	 SCS Same-Spin Scale       =       0.3333333333333333 [-]
	 SCS Opposite-Spin Scale   =       1.2000000000000000 [-]
	 SCS Same-Spin Energy      =      -0.0575857241383469 [Eh]
	 SCS Opposite-Spin Energy  =      -0.6217187779958046 [Eh]
	 SCS Correlation Energy    =      -0.6793045021341514 [Eh]
	 SCS Total Energy          =    -189.5155107122949119 [Eh]
	-----------------------------------------------------------

  Dipole Moment: [D]
     X:     2.7080      Y:     2.6965      Z:    -0.0000     Total:     3.8215

*** Psi4 exiting successfully. Buy a developer a beer!
