                               Psi4 1.3.2 release

  ==> Input File <==

--------------------------------------------------------------------------
#psi4
#
memory 32 gb

molecule  {
0 1
  C        0.0000000     0.4245050     0.0000000
  H       -0.3773750     1.4537240     0.0000000
  O        1.1304803    -0.0169115     0.0000000
  O       -1.0419470    -0.4368220     0.0000000
  H       -0.6504660    -1.3355670     0.0000000
units angstrom
no_reorient  #important for SAPT in psi4, default
symmetry c1  #important for SAPT in psi4, default
}

set PROPERTIES_ORIGIN ["COM"]
properties('MP2/aug-cc-pvtz', properties = ['dipole'])
--------------------------------------------------------------------------

    Molecular point group: c1
  Charge       = 0
  Multiplicity = 1
  Basis Set: AUG-CC-PVTZ
    Blend: AUG-CC-PVTZ
  Basis Set: (AUG-CC-PVTZ AUX)
    Blend: AUG-CC-PVTZ-JKFIT

    Orbital Energies [Eh]
    ---------------------

    Doubly Occupied:

       1A    -20.622997     2A    -20.568482     3A    -11.402468
       4A     -1.474169     5A     -1.364866     6A     -0.896363
       7A     -0.722357     8A     -0.707739     9A     -0.633383
      10A     -0.606085    11A     -0.491704    12A     -0.475743

  @DF-RHF Final Energy:  -188.83910004943843

   => Energetics <=

    Nuclear Repulsion Energy =             70.1539446621573006
    One-Electron Energy =                -398.0533778914466438
    Two-Electron Energy =                 139.0603331798509146
    Total Energy =                       -188.8391000494384286
  Basis Set: (AUG-CC-PVTZ AUX)
    Blend: AUG-CC-PVTZ-RI
    Molecular point group: c1

    Geometry (in Angstrom), charge = 0, multiplicity = 1:

       Center              X                  Y                   Z               Mass
    ------------   -----------------  -----------------  -----------------  -----------------
         C           -0.008264204423     0.468940728986     0.000000000000    12.000000000000
         H           -0.385639204423     1.498159728986     0.000000000000     1.007825032230
         O            1.122216095577     0.027524228986     0.000000000000    15.994914619570
         O           -1.050211204423    -0.392386271014     0.000000000000    15.994914619570
         H           -0.658730204423    -1.291131271014     0.000000000000     1.007825032230

  Basis Set: AUG-CC-PVTZ
    Blend: AUG-CC-PVTZ
  Basis Set: (AUG-CC-PVTZ AUX)
    Blend: AUG-CC-PVTZ-JKFIT
	 Reference Energy          =    -188.8391000494384286 [Eh]
	 Singles Energy            =      -0.0000000000000000 [Eh]
	 Same-Spin Energy          =      -0.1732837284914819 [Eh]
	 Opposite-Spin Energy      =      -0.5187401141104814 [Eh]
	 Correlation Energy        =      -0.6920238426019634 [Eh]
	 Total Energy              =    -189.5311238920403980 [Eh]

	 ================> DF-SCS-MP2 Energies <==================
	-----------------------------------------------------------
	 SCS Same-Spin Scale       =       0.3333333333333333 [-]
	 SCS Opposite-Spin Scale   =       1.2000000000000000 [-]
	 SCS Same-Spin Energy      =      -0.0577612428304940 [Eh]
	 SCS Opposite-Spin Energy  =      -0.6224881369325777 [Eh]
	 SCS Correlation Energy    =      -0.6802493797630716 [Eh]
	 SCS Total Energy          =    -189.5193494292014975 [Eh]
	-----------------------------------------------------------

  Dipole Moment: [D]
     X:    -1.3381      Y:     0.1047      Z:    -0.0000     Total:     1.3422

*** Psi4 exiting successfully. Buy a developer a beer!
