                               Psi4 1.3.2 release

  ==> Input File <==

--------------------------------------------------------------------------
#psi4
#
memory 32 gb

molecule  {
0 1
  C        0.0000000     0.4245050     0.0000000
  H       -0.4130643     1.4399268     0.0000000
  O        1.1704280     0.1036740     0.0000000
  O       -1.0419470    -0.4368220     0.0000000
  H       -0.6504660    -1.3355670     0.0000000
units angstrom
no_reorient  #important for SAPT in psi4, default
symmetry c1  #important for SAPT in psi4, default
}

set PROPERTIES_ORIGIN ["COM"]
properties('MP2/aug-cc-pvtz', properties = ['dipole'])
--------------------------------------------------------------------------

    Molecular point group: c1
  Charge       = 0
  Multiplicity = 1
  Basis Set: AUG-CC-PVTZ
    Blend: AUG-CC-PVTZ
  Basis Set: (AUG-CC-PVTZ AUX)
    Blend: AUG-CC-PVTZ-JKFIT

    Orbital Energies [Eh]
    ---------------------

    Doubly Occupied:

       1A    -20.631357     2A    -20.571226     3A    -11.402302
       4A     -1.472886     5A     -1.373722     6A     -0.896939
       7A     -0.721537     8A     -0.711643     9A     -0.635697
      10A     -0.606326    11A     -0.496793    12A     -0.476362

  @DF-RHF Final Energy:  -188.84102286194121

   => Energetics <=

    Nuclear Repulsion Energy =             69.6927098604577111
    One-Electron Energy =                -397.0738843159603562
    Two-Electron Energy =                 138.5401515935614611
    Total Energy =                       -188.8410228619412123
  Basis Set: (AUG-CC-PVTZ AUX)
    Blend: AUG-CC-PVTZ-RI
    Molecular point group: c1

    Geometry (in Angstrom), charge = 0, multiplicity = 1:

       Center              X                  Y                   Z               Mass
    ------------   -----------------  -----------------  -----------------  -----------------
         C           -0.021371153637     0.427318521321     0.000000000000    12.000000000000
         H           -0.434435453637     1.442740321321     0.000000000000     1.007825032230
         O            1.149056846363     0.106487521321     0.000000000000    15.994914619570
         O           -1.063318153637    -0.434008478679     0.000000000000    15.994914619570
         H           -0.671837153637    -1.332753478679     0.000000000000     1.007825032230

  Basis Set: AUG-CC-PVTZ
    Blend: AUG-CC-PVTZ
  Basis Set: (AUG-CC-PVTZ AUX)
    Blend: AUG-CC-PVTZ-JKFIT
	 Reference Energy          =    -188.8410228619412123 [Eh]
	 Singles Energy            =      -0.0000000000000000 [Eh]
	 Same-Spin Energy          =      -0.1733713675732909 [Eh]
	 Opposite-Spin Energy      =      -0.5191057670901332 [Eh]
	 Correlation Energy        =      -0.6924771346634242 [Eh]
	 Total Energy              =    -189.5334999966046325 [Eh]

	 ================> DF-SCS-MP2 Energies <==================
	-----------------------------------------------------------
	 SCS Same-Spin Scale       =       0.3333333333333333 [-]
	 SCS Opposite-Spin Scale   =       1.2000000000000000 [-]
	 SCS Same-Spin Energy      =      -0.0577904558577636 [Eh]
	 SCS Opposite-Spin Energy  =      -0.6229269205081599 [Eh]
	 SCS Correlation Energy    =      -0.6807173763659236 [Eh]
	 SCS Total Energy          =    -189.5217402383071317 [Eh]
	-----------------------------------------------------------

  Dipole Moment: [D]
     X:    -1.4304      Y:    -0.2247      Z:     0.0000     Total:     1.4479

*** Psi4 exiting successfully. Buy a developer a beer!
