                               Psi4 1.3.2 release

  ==> Input File <==

--------------------------------------------------------------------------
#psi4
#
memory 32 gb

molecule  {
0 1
  C        0.0000000     0.4245050     0.0000000
  H       -0.3773750     1.4537240     0.0000000
  O        1.3633127     0.0508016     0.0000000
  O       -1.0419470    -0.4368220     0.0000000
  H       -0.6504660    -1.3355670     0.0000000
units angstrom
no_reorient  #important for SAPT in psi4, default
symmetry c1  #important for SAPT in psi4, default
}

set PROPERTIES_ORIGIN ["COM"]
properties('MP2/aug-cc-pvtz', properties = ['dipole'])
--------------------------------------------------------------------------

    Molecular point group: c1
  Charge       = 0
  Multiplicity = 1
  Basis Set: AUG-CC-PVTZ
    Blend: AUG-CC-PVTZ
  Basis Set: (AUG-CC-PVTZ AUX)
    Blend: AUG-CC-PVTZ-JKFIT

    Orbital Energies [Eh]
    ---------------------

    Doubly Occupied:

       1A    -20.664560     2A    -20.569067     3A    -11.441373
       4A     -1.475024     5A     -1.280775     6A     -0.923505
       7A     -0.718521     8A     -0.714482     9A     -0.634124
      10A     -0.570817    11A     -0.464092    12A     -0.454458

  @DF-RHF Final Energy:  -188.77743508348397

   => Energetics <=

    Nuclear Repulsion Energy =             65.3910713100236478
    One-Electron Energy =                -388.5154188148896424
    Two-Electron Energy =                 134.3469124213820578
    Total Energy =                       -188.7774350834839652
  Basis Set: (AUG-CC-PVTZ AUX)
    Blend: AUG-CC-PVTZ-RI
    Molecular point group: c1

    Geometry (in Angstrom), charge = 0, multiplicity = 1:

       Center              X                  Y                   Z               Mass
    ------------   -----------------  -----------------  -----------------  -----------------
         C           -0.089214004643     0.445398636402     0.000000000000    12.000000000000
         H           -0.466589004643     1.474617636402     0.000000000000     1.007825032230
         O            1.274098695357     0.071695236402     0.000000000000    15.994914619570
         O           -1.131161004643    -0.415928363598     0.000000000000    15.994914619570
         H           -0.739680004643    -1.314673363598     0.000000000000     1.007825032230

  Basis Set: AUG-CC-PVTZ
    Blend: AUG-CC-PVTZ
  Basis Set: (AUG-CC-PVTZ AUX)
    Blend: AUG-CC-PVTZ-JKFIT
	 Reference Energy          =    -188.7774350834839652 [Eh]
	 Singles Energy            =      -0.0000000000000000 [Eh]
	 Same-Spin Energy          =      -0.1783573442102189 [Eh]
	 Opposite-Spin Energy      =      -0.5321819901816143 [Eh]
	 Correlation Energy        =      -0.7105393343918331 [Eh]
	 Total Energy              =    -189.4879744178757903 [Eh]

	 ================> DF-SCS-MP2 Energies <==================
	-----------------------------------------------------------
	 SCS Same-Spin Scale       =       0.3333333333333333 [-]
	 SCS Opposite-Spin Scale   =       1.2000000000000000 [-]
	 SCS Same-Spin Energy      =      -0.0594524480700730 [Eh]
	 SCS Opposite-Spin Energy  =      -0.6386183882179371 [Eh]
	 SCS Correlation Energy    =      -0.6980708362880101 [Eh]
	 SCS Total Energy          =    -189.4755059197719618 [Eh]
	-----------------------------------------------------------

  Dipole Moment: [D]
     X:    -2.2922      Y:    -0.2420      Z:     0.0000     Total:     2.3049

*** Psi4 exiting successfully. Buy a developer a beer!
