                               Psi4 1.3.2 release

  ==> Input File <==

--------------------------------------------------------------------------
#psi4
#
memory 32 gb

molecule  {
0 1
  C        0.0148735     0.4061893     0.0000000
  H       -0.3773750     1.4537240     0.0000000
  O        1.1704280     0.1036740     0.0000000
  O       -1.0419470    -0.4368220     0.0000000
  H       -0.6504660    -1.3355670     0.0000000
units angstrom
no_reorient  #important for SAPT in psi4, default
symmetry c1  #important for SAPT in psi4, default
}

set PROPERTIES_ORIGIN ["COM"]
properties('MP2/aug-cc-pvtz', properties = ['dipole'])
--------------------------------------------------------------------------

    Molecular point group: c1
  Charge       = 0
  Multiplicity = 1
  Basis Set: AUG-CC-PVTZ
    Blend: AUG-CC-PVTZ
  Basis Set: (AUG-CC-PVTZ AUX)
    Blend: AUG-CC-PVTZ-JKFIT

    Orbital Energies [Eh]
    ---------------------

    Doubly Occupied:

       1A    -20.631508     2A    -20.571942     3A    -11.400110
       4A     -1.477154     5A     -1.383783     6A     -0.889051
       7A     -0.722880     8A     -0.713565     9A     -0.638979
      10A     -0.607702    11A     -0.502473    12A     -0.475307

  @DF-RHF Final Energy:  -188.84224805557807

   => Energetics <=

    Nuclear Repulsion Energy =             69.9710268528050676
    One-Electron Energy =                -397.5976432520373578
    Two-Electron Energy =                 138.7843683436541937
    Total Energy =                       -188.8422480555780680
  Basis Set: (AUG-CC-PVTZ AUX)
    Blend: AUG-CC-PVTZ-RI
    Molecular point group: c1

    Geometry (in Angstrom), charge = 0, multiplicity = 1:

       Center              X                  Y                   Z               Mass
    ------------   -----------------  -----------------  -----------------  -----------------
         C           -0.011159067303     0.413478010789     0.000000000000    12.000000000000
         H           -0.403407567303     1.461012710789     0.000000000000     1.007825032230
         O            1.144395432697     0.110962710789     0.000000000000    15.994914619570
         O           -1.067979567303    -0.429533289211     0.000000000000    15.994914619570
         H           -0.676498567303    -1.328278289211     0.000000000000     1.007825032230

  Basis Set: AUG-CC-PVTZ
    Blend: AUG-CC-PVTZ
  Basis Set: (AUG-CC-PVTZ AUX)
    Blend: AUG-CC-PVTZ-JKFIT
	 Reference Energy          =    -188.8422480555780680 [Eh]
	 Singles Energy            =      -0.0000000000000000 [Eh]
	 Same-Spin Energy          =      -0.1729650688242515 [Eh]
	 Opposite-Spin Energy      =      -0.5180617318858403 [Eh]
	 Correlation Energy        =      -0.6910268007100917 [Eh]
	 Total Energy              =    -189.5332748562881591 [Eh]

	 ================> DF-SCS-MP2 Energies <==================
	-----------------------------------------------------------
	 SCS Same-Spin Scale       =       0.3333333333333333 [-]
	 SCS Opposite-Spin Scale   =       1.2000000000000000 [-]
	 SCS Same-Spin Energy      =      -0.0576550229414172 [Eh]
	 SCS Opposite-Spin Energy  =      -0.6216740782630082 [Eh]
	 SCS Correlation Energy    =      -0.6793291012044254 [Eh]
	 SCS Total Energy          =    -189.5215771567824845 [Eh]
	-----------------------------------------------------------

  Dipole Moment: [D]
     X:    -1.3256      Y:    -0.2823      Z:     0.0000     Total:     1.3554

*** Psi4 exiting successfully. Buy a developer a beer!
