                               Psi4 1.3.2 release

  ==> Input File <==

--------------------------------------------------------------------------
#psi4
#
memory 32 gb

molecule  {
0 1
  C        0.0000000     0.4245050     0.0000000
  H       -0.3773750     1.4537240     0.0000000
  O        1.1704280     0.1036740     0.0000000
  O       -1.0419470    -0.4368220     0.0000000
  H       -0.7303351    -1.1522069     0.0000000
units angstrom
no_reorient  #important for SAPT in psi4, default
symmetry c1  #important for SAPT in psi4, default
}

set PROPERTIES_ORIGIN ["COM"]
properties('MP2/aug-cc-pvtz', properties = ['dipole'])
--------------------------------------------------------------------------

    Molecular point group: c1
  Charge       = 0
  Multiplicity = 1
  Basis Set: AUG-CC-PVTZ
    Blend: AUG-CC-PVTZ
  Basis Set: (AUG-CC-PVTZ AUX)
    Blend: AUG-CC-PVTZ-JKFIT

    Orbital Energies [Eh]
    ---------------------

    Doubly Occupied:

       1A    -20.615164     2A    -20.574726     3A    -11.406072
       4A     -1.519287     5A     -1.392679     6A     -0.941121
       7A     -0.738371     8A     -0.728506     9A     -0.644616
      10A     -0.621608    11A     -0.503242    12A     -0.479845

  @DF-RHF Final Energy:  -188.79749533385859

   => Energetics <=

    Nuclear Repulsion Energy =             70.9719689229268766
    One-Electron Energy =                -399.2084560856788471
    Two-Electron Energy =                 139.4389918288933927
    Total Energy =                       -188.7974953338585919
  Basis Set: (AUG-CC-PVTZ AUX)
    Blend: AUG-CC-PVTZ-RI
    Molecular point group: c1

    Geometry (in Angstrom), charge = 0, multiplicity = 1:

       Center              X                  Y                   Z               Mass
    ------------   -----------------  -----------------  -----------------  -----------------
         C           -0.020403323087     0.422999469216     0.000000000000    12.000000000000
         H           -0.397778323087     1.452218469216     0.000000000000     1.007825032230
         O            1.150024676913     0.102168469216     0.000000000000    15.994914619570
         O           -1.062350323087    -0.438327530784     0.000000000000    15.994914619570
         H           -0.750738423087    -1.153712430784     0.000000000000     1.007825032230

  Basis Set: AUG-CC-PVTZ
    Blend: AUG-CC-PVTZ
  Basis Set: (AUG-CC-PVTZ AUX)
    Blend: AUG-CC-PVTZ-JKFIT
	 Reference Energy          =    -188.7974953338585919 [Eh]
	 Singles Energy            =      -0.0000000000000000 [Eh]
	 Same-Spin Energy          =      -0.1709404271878154 [Eh]
	 Opposite-Spin Energy      =      -0.5139014144793945 [Eh]
	 Correlation Energy        =      -0.6848418416672100 [Eh]
	 Total Energy              =    -189.4823371755257995 [Eh]

	 ================> DF-SCS-MP2 Energies <==================
	-----------------------------------------------------------
	 SCS Same-Spin Scale       =       0.3333333333333333 [-]
	 SCS Opposite-Spin Scale   =       1.2000000000000000 [-]
	 SCS Same-Spin Energy      =      -0.0569801423959385 [Eh]
	 SCS Opposite-Spin Energy  =      -0.6166816973752735 [Eh]
	 SCS Correlation Energy    =      -0.6736618397712120 [Eh]
	 SCS Total Energy          =    -189.4711571736297913 [Eh]
	-----------------------------------------------------------

  Dipole Moment: [D]
     X:    -1.4331      Y:     0.0368      Z:    -0.0000     Total:     1.4336

*** Psi4 exiting successfully. Buy a developer a beer!
