                               Psi4 1.4a3.dev225

  ==> Input File <==

--------------------------------------------------------------------------
#psi4
#
memory 32 gb

molecule  {
0 1
  C       -0.1291220     0.3651120    -0.0000010
  H       -0.0354980     1.4652460     0.0000010
  O       -1.1850860    -0.2198210     0.0000000
  O        1.0195550    -0.2599279    -0.0000000
  H        1.7831240     0.3732560    -0.0000010
units angstrom
no_reorient  #important for SAPT in psi4, default
symmetry c1  #important for SAPT in psi4, default
}

set PROPERTIES_ORIGIN ["COM"]
properties('MP2/aug-cc-pvtz', properties = ['dipole'])
--------------------------------------------------------------------------

    Molecular point group: c1
  Charge       = 0
  Multiplicity = 1
  Basis Set: AUG-CC-PVTZ
    Blend: AUG-CC-PVTZ
  Basis Set: (AUG-CC-PVTZ AUX)
    Blend: AUG-CC-PVTZ-JKFIT

    Orbital Energies [Eh]
    ---------------------

    Doubly Occupied:

       1A    -20.638054     2A    -20.555707     3A    -11.394314
       4A     -1.485010     5A     -1.372218     6A     -0.876459
       7A     -0.800068     8A     -0.670147     9A     -0.646185
      10A     -0.593943    11A     -0.486933    12A     -0.465646

  @DF-RHF Final Energy:  -188.83390777206768

   => Energetics <=

    Nuclear Repulsion Energy =             70.4452434986989147
    One-Electron Energy =                -398.5889363118859023
    Two-Electron Energy =                 139.3097850411193122
    Total Energy =                       -188.8339077720676755
  Basis Set: (AUG-CC-PVTZ AUX)
    Blend: AUG-CC-PVTZ-RI
    Molecular point group: c1

    Geometry (in Angstrom), charge = 0, multiplicity = 1:

       Center              X                  Y                   Z               Mass
    ------------   -----------------  -----------------  -----------------  -----------------
         C           -0.076175763617     0.396397628988    -0.000000739162    12.000000000000
         H            0.017448236383     1.496531628988     0.000001260838     1.007825032230
         O           -1.132139763617    -0.188535371012     0.000000260838    15.994914619570
         O            1.072501236383    -0.228642271012     0.000000260838    15.994914619570
         H            1.836070236383     0.404541628988    -0.000000739162     1.007825032230

  Basis Set: AUG-CC-PVTZ
    Blend: AUG-CC-PVTZ
  Basis Set: (AUG-CC-PVTZ AUX)
    Blend: AUG-CC-PVTZ-JKFIT
	 Reference Energy          =    -188.8339077720676755 [Eh]
	 Singles Energy            =      -0.0000000000000000 [Eh]
	 Same-Spin Energy          =      -0.1730805284241027 [Eh]
	 Opposite-Spin Energy      =      -0.5181135203745504 [Eh]
	 Correlation Energy        =      -0.6911940487986531 [Eh]
	 Total Energy              =    -189.5251018208663254 [Eh]

	 ================> DF-SCS-MP2 Energies <==================
	-----------------------------------------------------------
	 SCS Same-Spin Scale       =       0.3333333333333333 [-]
	 SCS Opposite-Spin Scale   =       1.2000000000000000 [-]
	 SCS Same-Spin Energy      =      -0.0576935094747009 [Eh]
	 SCS Opposite-Spin Energy  =      -0.6217362244494604 [Eh]
	 SCS Correlation Energy    =      -0.6794297339241613 [Eh]
	 SCS Total Energy          =    -189.5133375059918421 [Eh]
	-----------------------------------------------------------

  Dipole Moment: [D]
     X:     3.1548      Y:     2.6399      Z:    -0.0000     Total:     4.1136

*** Psi4 exiting successfully. Buy a developer a beer!
