                               Psi4 1.3.2 release

  ==> Input File <==

--------------------------------------------------------------------------
#psi4
#
memory 32 gb

molecule  {
0 1
  C        0.0000000     0.4245050     0.0000000
  H       -0.3773750     1.4537240     0.0000000
  O        1.1585182     0.0630221     0.0000000
  O       -1.0419470    -0.4368220     0.0000000
  H       -0.6504660    -1.3355670     0.0000000
units angstrom
no_reorient  #important for SAPT in psi4, default
symmetry c1  #important for SAPT in psi4, default
}

set PROPERTIES_ORIGIN ["COM"]
properties('MP2/aug-cc-pvtz', properties = ['dipole'])
--------------------------------------------------------------------------

    Molecular point group: c1
  Charge       = 0
  Multiplicity = 1
  Basis Set: AUG-CC-PVTZ
    Blend: AUG-CC-PVTZ
  Basis Set: (AUG-CC-PVTZ AUX)
    Blend: AUG-CC-PVTZ-JKFIT

    Orbital Energies [Eh]
    ---------------------

    Doubly Occupied:

       1A    -20.629149     2A    -20.569704     3A    -11.402071
       4A     -1.473141     5A     -1.370803     6A     -0.895795
       7A     -0.722457     8A     -0.711222     9A     -0.634956
      10A     -0.605897    11A     -0.494987    12A     -0.476059

  @DF-RHF Final Energy:  -188.84132512097980

   => Energetics <=

    Nuclear Repulsion Energy =             69.8305783189201037
    One-Electron Energy =                -397.3713244336151433
    Two-Electron Energy =                 138.6994209937152220
    Total Energy =                       -188.8413251209798034
  Basis Set: (AUG-CC-PVTZ AUX)
    Blend: AUG-CC-PVTZ-RI
    Molecular point group: c1

    Geometry (in Angstrom), charge = 0, multiplicity = 1:

       Center              X                  Y                   Z               Mass
    ------------   -----------------  -----------------  -----------------  -----------------
         C           -0.018012256685     0.441149884796     0.000000000000    12.000000000000
         H           -0.395387256685     1.470368884796     0.000000000000     1.007825032230
         O            1.140505943315     0.079666984796     0.000000000000    15.994914619570
         O           -1.059959256685    -0.420177115204     0.000000000000    15.994914619570
         H           -0.668478256685    -1.318922115204     0.000000000000     1.007825032230

  Basis Set: AUG-CC-PVTZ
    Blend: AUG-CC-PVTZ
  Basis Set: (AUG-CC-PVTZ AUX)
    Blend: AUG-CC-PVTZ-JKFIT
	 Reference Energy          =    -188.8413251209798034 [Eh]
	 Singles Energy            =      -0.0000000000000000 [Eh]
	 Same-Spin Energy          =      -0.1732637266982437 [Eh]
	 Opposite-Spin Energy      =      -0.5188340068281526 [Eh]
	 Correlation Energy        =      -0.6920977335263963 [Eh]
	 Total Energy              =    -189.5334228545061990 [Eh]

	 ================> DF-SCS-MP2 Energies <==================
	-----------------------------------------------------------
	 SCS Same-Spin Scale       =       0.3333333333333333 [-]
	 SCS Opposite-Spin Scale   =       1.2000000000000000 [-]
	 SCS Same-Spin Energy      =      -0.0577545755660812 [Eh]
	 SCS Opposite-Spin Energy  =      -0.6226008081937832 [Eh]
	 SCS Correlation Energy    =      -0.6803553837598644 [Eh]
	 SCS Total Energy          =    -189.5216805047396633 [Eh]
	-----------------------------------------------------------

  Dipole Moment: [D]
     X:    -1.3994      Y:    -0.1088      Z:     0.0000     Total:     1.4036

*** Psi4 exiting successfully. Buy a developer a beer!
