                               Psi4 1.3.2 release

  ==> Input File <==

--------------------------------------------------------------------------
#psi4
#
memory 32 gb

molecule  {
0 1
  C        0.0000000     0.4245050     0.0000000
  H       -0.4118000     1.5476118     0.0000000
  O        1.1704280     0.1036740     0.0000000
  O       -1.0419470    -0.4368220     0.0000000
  H       -0.6504660    -1.3355670     0.0000000
units angstrom
no_reorient  #important for SAPT in psi4, default
symmetry c1  #important for SAPT in psi4, default
}

set PROPERTIES_ORIGIN ["COM"]
properties('MP2/aug-cc-pvtz', properties = ['dipole'])
--------------------------------------------------------------------------

    Molecular point group: c1
  Charge       = 0
  Multiplicity = 1
  Basis Set: AUG-CC-PVTZ
    Blend: AUG-CC-PVTZ
  Basis Set: (AUG-CC-PVTZ AUX)
    Blend: AUG-CC-PVTZ-JKFIT

    Orbital Energies [Eh]
    ---------------------

    Doubly Occupied:

       1A    -20.634067     2A    -20.572391     3A    -11.411994
       4A     -1.473765     5A     -1.375114     6A     -0.881147
       7A     -0.717917     8A     -0.707286     9A     -0.636990
      10A     -0.599778    11A     -0.498181    12A     -0.472258

  @DF-RHF Final Energy:  -188.83437968364856

   => Energetics <=

    Nuclear Repulsion Energy =             69.2711007945742381
    One-Electron Energy =                -396.2491834287690722
    Two-Electron Energy =                 138.1437029505462704
    Total Energy =                       -188.8343796836485637
  Basis Set: (AUG-CC-PVTZ AUX)
    Blend: AUG-CC-PVTZ-RI
    Molecular point group: c1

    Geometry (in Angstrom), charge = 0, multiplicity = 1:

       Center              X                  Y                   Z               Mass
    ------------   -----------------  -----------------  -----------------  -----------------
         C           -0.021398850190     0.424959505824     0.000000000000    12.000000000000
         H           -0.433198850190     1.548066305824     0.000000000000     1.007825032230
         O            1.149029149810     0.104128505824     0.000000000000    15.994914619570
         O           -1.063345850190    -0.436367494176     0.000000000000    15.994914619570
         H           -0.671864850190    -1.335112494176     0.000000000000     1.007825032230

  Basis Set: AUG-CC-PVTZ
    Blend: AUG-CC-PVTZ
  Basis Set: (AUG-CC-PVTZ AUX)
    Blend: AUG-CC-PVTZ-JKFIT
	 Reference Energy          =    -188.8343796836485637 [Eh]
	 Singles Energy            =      -0.0000000000000000 [Eh]
	 Same-Spin Energy          =      -0.1735942340499076 [Eh]
	 Opposite-Spin Energy      =      -0.5197001914945119 [Eh]
	 Correlation Energy        =      -0.6932944255444196 [Eh]
	 Total Energy              =    -189.5276741091929864 [Eh]

	 ================> DF-SCS-MP2 Energies <==================
	-----------------------------------------------------------
	 SCS Same-Spin Scale       =       0.3333333333333333 [-]
	 SCS Opposite-Spin Scale   =       1.2000000000000000 [-]
	 SCS Same-Spin Energy      =      -0.0578647446833025 [Eh]
	 SCS Opposite-Spin Energy  =      -0.6236402297934142 [Eh]
	 SCS Correlation Energy    =      -0.6815049744767168 [Eh]
	 SCS Total Energy          =    -189.5158846581252874 [Eh]
	-----------------------------------------------------------

  Dipole Moment: [D]
     X:    -1.3959      Y:    -0.2676      Z:    -0.0000     Total:     1.4214

*** Psi4 exiting successfully. Buy a developer a beer!
