                               Psi4 1.4a3.dev225

  ==> Input File <==

--------------------------------------------------------------------------
#psi4
#
memory 32 gb

molecule  {
0 1
  C       -0.1291220     0.3651120    -0.0000010
  H       -0.0354980     1.4652460     0.0000010
  O       -1.1850860    -0.2198210     0.0000000
  O        1.0459064    -0.2742668    -0.0000000
  H        1.7831240     0.3732560    -0.0000010
units angstrom
no_reorient  #important for SAPT in psi4, default
symmetry c1  #important for SAPT in psi4, default
}

set PROPERTIES_ORIGIN ["COM"]
properties('MP2/aug-cc-pvtz', properties = ['dipole'])
--------------------------------------------------------------------------

    Molecular point group: c1
  Charge       = 0
  Multiplicity = 1
  Basis Set: AUG-CC-PVTZ
    Blend: AUG-CC-PVTZ
  Basis Set: (AUG-CC-PVTZ AUX)
    Blend: AUG-CC-PVTZ-JKFIT

    Orbital Energies [Eh]
    ---------------------

    Doubly Occupied:

       1A    -20.635055     2A    -20.561829     3A    -11.398717
       4A     -1.474432     5A     -1.374670     6A     -0.872486
       7A     -0.795129     8A     -0.669758     9A     -0.638435
      10A     -0.598960    11A     -0.490644    12A     -0.468661

  @DF-RHF Final Energy:  -188.83459516661256

   => Energetics <=

    Nuclear Repulsion Energy =             69.8463104800914749
    One-Electron Energy =                -397.4042605338822227
    Two-Electron Energy =                 138.7233548871782034
    Total Energy =                       -188.8345951666125586
  Basis Set: (AUG-CC-PVTZ AUX)
    Blend: AUG-CC-PVTZ-RI
    Molecular point group: c1

    Geometry (in Angstrom), charge = 0, multiplicity = 1:

       Center              X                  Y                   Z               Mass
    ------------   -----------------  -----------------  -----------------  -----------------
         C           -0.085337463473     0.401382893455    -0.000000739162    12.000000000000
         H            0.008286536527     1.501516893455     0.000001260838     1.007825032230
         O           -1.141301463473    -0.183550106545     0.000000260838    15.994914619570
         O            1.089690936527    -0.237995906545     0.000000260838    15.994914619570
         H            1.826908536527     0.409526893455    -0.000000739162     1.007825032230

  Basis Set: AUG-CC-PVTZ
    Blend: AUG-CC-PVTZ
  Basis Set: (AUG-CC-PVTZ AUX)
    Blend: AUG-CC-PVTZ-JKFIT
	 Reference Energy          =    -188.8345951666125586 [Eh]
	 Singles Energy            =      -0.0000000000000000 [Eh]
	 Same-Spin Energy          =      -0.1731910899973754 [Eh]
	 Opposite-Spin Energy      =      -0.5189168897127248 [Eh]
	 Correlation Energy        =      -0.6921079797101002 [Eh]
	 Total Energy              =    -189.5267031463226601 [Eh]

	 ================> DF-SCS-MP2 Energies <==================
	-----------------------------------------------------------
	 SCS Same-Spin Scale       =       0.3333333333333333 [-]
	 SCS Opposite-Spin Scale   =       1.2000000000000000 [-]
	 SCS Same-Spin Energy      =      -0.0577303633324585 [Eh]
	 SCS Opposite-Spin Energy  =      -0.6227002676552696 [Eh]
	 SCS Correlation Energy    =      -0.6804306309877282 [Eh]
	 SCS Total Energy          =    -189.5150257976002877 [Eh]
	-----------------------------------------------------------

  Dipole Moment: [D]
     X:     2.9462      Y:     2.6919      Z:    -0.0000     Total:     3.9908

*** Psi4 exiting successfully. Buy a developer a beer!
