                               Psi4 1.3.2 release

  ==> Input File <==

--------------------------------------------------------------------------
#psi4
#
memory 32 gb

molecule  {
0 1
  C        0.0000000     0.4245050     0.0000000
  H       -0.3773750     1.4537240     0.0000000
  O        1.1704280     0.1036740     0.0000000
  O       -1.0419470    -0.4368220     0.0000000
  H       -0.6105314    -1.4272470     0.0000000
units angstrom
no_reorient  #important for SAPT in psi4, default
symmetry c1  #important for SAPT in psi4, default
}

set PROPERTIES_ORIGIN ["COM"]
properties('MP2/aug-cc-pvtz', properties = ['dipole'])
--------------------------------------------------------------------------

    Molecular point group: c1
  Charge       = 0
  Multiplicity = 1
  Basis Set: AUG-CC-PVTZ
    Blend: AUG-CC-PVTZ
  Basis Set: (AUG-CC-PVTZ AUX)
    Blend: AUG-CC-PVTZ-JKFIT

    Orbital Energies [Eh]
    ---------------------

    Doubly Occupied:

       1A    -20.637234     2A    -20.568264     3A    -11.400001
       4A     -1.460448     5A     -1.364499     6A     -0.878900
       7A     -0.718982     8A     -0.699945     9A     -0.631947
      10A     -0.595277    11A     -0.493485    12A     -0.473748

  @DF-RHF Final Energy:  -188.82850240802122

   => Energetics <=

    Nuclear Repulsion Energy =             69.1927436153679309
    One-Electron Energy =                -396.1970312641815326
    Two-Electron Energy =                 138.1757852407923792
    Total Energy =                       -188.8285024080212224
  Basis Set: (AUG-CC-PVTZ AUX)
    Blend: AUG-CC-PVTZ-RI
    Molecular point group: c1

    Geometry (in Angstrom), charge = 0, multiplicity = 1:

       Center              X                  Y                   Z               Mass
    ------------   -----------------  -----------------  -----------------  -----------------
         C           -0.023027818465     0.429024671036     0.000000000000    12.000000000000
         H           -0.400402818465     1.458243671036     0.000000000000     1.007825032230
         O            1.147400181535     0.108193671036     0.000000000000    15.994914619570
         O           -1.064974818465    -0.432302328964     0.000000000000    15.994914619570
         H           -0.633559218465    -1.422727328964     0.000000000000     1.007825032230

  Basis Set: AUG-CC-PVTZ
    Blend: AUG-CC-PVTZ
  Basis Set: (AUG-CC-PVTZ AUX)
    Blend: AUG-CC-PVTZ-JKFIT
	 Reference Energy          =    -188.8285024080212224 [Eh]
	 Singles Energy            =      -0.0000000000000000 [Eh]
	 Same-Spin Energy          =      -0.1745074594269320 [Eh]
	 Opposite-Spin Energy      =      -0.5219363354164184 [Eh]
	 Correlation Energy        =      -0.6964437948433504 [Eh]
	 Total Energy              =    -189.5249462028645837 [Eh]

	 ================> DF-SCS-MP2 Energies <==================
	-----------------------------------------------------------
	 SCS Same-Spin Scale       =       0.3333333333333333 [-]
	 SCS Opposite-Spin Scale   =       1.2000000000000000 [-]
	 SCS Same-Spin Energy      =      -0.0581691531423107 [Eh]
	 SCS Opposite-Spin Energy  =      -0.6263236024997020 [Eh]
	 SCS Correlation Energy    =      -0.6844927556420126 [Eh]
	 SCS Total Energy          =    -189.5129951636632484 [Eh]
	-----------------------------------------------------------

  Dipole Moment: [D]
     X:    -1.4055      Y:    -0.3372      Z:     0.0000     Total:     1.4454

*** Psi4 exiting successfully. Buy a developer a beer!
