                               Psi4 1.4a3.dev225

  ==> Input File <==

--------------------------------------------------------------------------
#psi4
#
memory 32 gb

molecule  {
0 1
  C       -0.1291220     0.3651120    -0.0000010
  H       -0.0354980     1.4652460     0.0000010
  O       -1.2288240    -0.2440489     0.0000000
  O        1.0634740    -0.2838260     0.0000000
  H        1.7831240     0.3732560    -0.0000010
units angstrom
no_reorient  #important for SAPT in psi4, default
symmetry c1  #important for SAPT in psi4, default
}

set PROPERTIES_ORIGIN ["COM"]
properties('MP2/aug-cc-pvtz', properties = ['dipole'])
--------------------------------------------------------------------------

    Molecular point group: c1
  Charge       = 0
  Multiplicity = 1
  Basis Set: AUG-CC-PVTZ
    Blend: AUG-CC-PVTZ
  Basis Set: (AUG-CC-PVTZ AUX)
    Blend: AUG-CC-PVTZ-JKFIT

    Orbital Energies [Eh]
    ---------------------

    Doubly Occupied:

       1A    -20.641377     2A    -20.566513     3A    -11.412916
       4A     -1.464715     5A     -1.352830     6A     -0.878562
       7A     -0.791565     8A     -0.661146     9A     -0.630803
      10A     -0.598213    11A     -0.481457    12A     -0.469054

  @DF-RHF Final Energy:  -188.82386197453181

   => Energetics <=

    Nuclear Repulsion Energy =             68.2720396527597870
    One-Electron Energy =                -394.2935036403121103
    Two-Electron Energy =                 137.1976020130205427
    Total Energy =                       -188.8238619745318090
  Basis Set: (AUG-CC-PVTZ AUX)
    Blend: AUG-CC-PVTZ-RI
    Molecular point group: c1

    Geometry (in Angstrom), charge = 0, multiplicity = 1:

       Center              X                  Y                   Z               Mass
    ------------   -----------------  -----------------  -----------------  -----------------
         C           -0.076238692633     0.413129793779    -0.000000739162    12.000000000000
         H            0.017385307367     1.513263793779     0.000001260838     1.007825032230
         O           -1.175940692633    -0.196031106221     0.000000260838    15.994914619570
         O            1.116357307367    -0.235808206221     0.000000260838    15.994914619570
         H            1.836007307367     0.421273793779    -0.000000739162     1.007825032230

  Basis Set: AUG-CC-PVTZ
    Blend: AUG-CC-PVTZ
  Basis Set: (AUG-CC-PVTZ AUX)
    Blend: AUG-CC-PVTZ-JKFIT
	 Reference Energy          =    -188.8238619745318090 [Eh]
	 Singles Energy            =      -0.0000000000000000 [Eh]
	 Same-Spin Energy          =      -0.1746380931923457 [Eh]
	 Opposite-Spin Energy      =      -0.5230471145226605 [Eh]
	 Correlation Energy        =      -0.6976852077150062 [Eh]
	 Total Energy              =    -189.5215471822468203 [Eh]

	 ================> DF-SCS-MP2 Energies <==================
	-----------------------------------------------------------
	 SCS Same-Spin Scale       =       0.3333333333333333 [-]
	 SCS Opposite-Spin Scale   =       1.2000000000000000 [-]
	 SCS Same-Spin Energy      =      -0.0582126977307819 [Eh]
	 SCS Opposite-Spin Energy  =      -0.6276565374271926 [Eh]
	 SCS Correlation Energy    =      -0.6858692351579745 [Eh]
	 SCS Total Energy          =    -189.5097312096897895 [Eh]
	-----------------------------------------------------------

  Dipole Moment: [D]
     X:     3.0435      Y:     2.7946      Z:    -0.0000     Total:     4.1319

*** Psi4 exiting successfully. Buy a developer a beer!
