                               Psi4 1.3.2 release

  ==> Input File <==

--------------------------------------------------------------------------
#psi4
#
memory 32 gb

molecule  {
0 1
  C        0.0000000     0.4245050     0.0000000
  H       -0.3773750     1.4537240     0.0000000
  O        1.1704280     0.1036740     0.0000000
  O       -1.0419470    -0.4368220     0.0000000
  H       -0.6904006    -1.2438870     0.0000000
units angstrom
no_reorient  #important for SAPT in psi4, default
symmetry c1  #important for SAPT in psi4, default
}

set PROPERTIES_ORIGIN ["COM"]
properties('MP2/aug-cc-pvtz', properties = ['dipole'])
--------------------------------------------------------------------------

    Molecular point group: c1
  Charge       = 0
  Multiplicity = 1
  Basis Set: AUG-CC-PVTZ
    Blend: AUG-CC-PVTZ
  Basis Set: (AUG-CC-PVTZ AUX)
    Blend: AUG-CC-PVTZ-JKFIT

    Orbital Energies [Eh]
    ---------------------

    Doubly Occupied:

       1A    -20.624731     2A    -20.572401     3A    -11.403934
       4A     -1.491407     5A     -1.383214     6A     -0.916473
       7A     -0.727947     8A     -0.723741     9A     -0.640008
      10A     -0.614524    11A     -0.499754    12A     -0.477709

  @DF-RHF Final Energy:  -188.83680092371975

   => Energetics <=

    Nuclear Repulsion Energy =             70.2648925073839195
    One-Electron Energy =                -398.0517042399619640
    Two-Electron Energy =                 138.9500108088582806
    Total Energy =                       -188.8368009237197498
  Basis Set: (AUG-CC-PVTZ AUX)
    Blend: AUG-CC-PVTZ-RI
    Molecular point group: c1

    Geometry (in Angstrom), charge = 0, multiplicity = 1:

       Center              X                  Y                   Z               Mass
    ------------   -----------------  -----------------  -----------------  -----------------
         C           -0.021278153419     0.425007871283     0.000000000000    12.000000000000
         H           -0.398653153419     1.454226871283     0.000000000000     1.007825032230
         O            1.149149846581     0.104176871283     0.000000000000    15.994914619570
         O           -1.063225153419    -0.436319128717     0.000000000000    15.994914619570
         H           -0.711678753419    -1.243384128717     0.000000000000     1.007825032230

  Basis Set: AUG-CC-PVTZ
    Blend: AUG-CC-PVTZ
  Basis Set: (AUG-CC-PVTZ AUX)
    Blend: AUG-CC-PVTZ-JKFIT
	 Reference Energy          =    -188.8368009237197498 [Eh]
	 Singles Energy            =      -0.0000000000000000 [Eh]
	 Same-Spin Energy          =      -0.1720653385651440 [Eh]
	 Opposite-Spin Energy      =      -0.5162425009812749 [Eh]
	 Correlation Energy        =      -0.6883078395464189 [Eh]
	 Total Energy              =    -189.5251087632661608 [Eh]

	 ================> DF-SCS-MP2 Energies <==================
	-----------------------------------------------------------
	 SCS Same-Spin Scale       =       0.3333333333333333 [-]
	 SCS Opposite-Spin Scale   =       1.2000000000000000 [-]
	 SCS Same-Spin Energy      =      -0.0573551128550480 [Eh]
	 SCS Opposite-Spin Energy  =      -0.6194910011775299 [Eh]
	 SCS Correlation Energy    =      -0.6768461140325779 [Eh]
	 SCS Total Energy          =    -189.5136470377523210 [Eh]
	-----------------------------------------------------------

  Dipole Moment: [D]
     X:    -1.4339      Y:    -0.0907      Z:    -0.0000     Total:     1.4368

*** Psi4 exiting successfully. Buy a developer a beer!
