                               Psi4 1.4a3.dev225

  ==> Input File <==

--------------------------------------------------------------------------
#psi4
#
memory 32 gb

molecule  {
0 1
  C       -0.1291220     0.3651120    -0.0000010
  H       -0.0354980     1.4652460     0.0000010
  O       -1.1850860    -0.2198210     0.0000000
  O        1.0634740    -0.2838260     0.0000000
  H        1.7462000     0.3395422    -0.0000009
units angstrom
no_reorient  #important for SAPT in psi4, default
symmetry c1  #important for SAPT in psi4, default
}

set PROPERTIES_ORIGIN ["COM"]
properties('MP2/aug-cc-pvtz', properties = ['dipole'])
--------------------------------------------------------------------------

    Molecular point group: c1
  Charge       = 0
  Multiplicity = 1
  Basis Set: AUG-CC-PVTZ
    Blend: AUG-CC-PVTZ
  Basis Set: (AUG-CC-PVTZ AUX)
    Blend: AUG-CC-PVTZ-JKFIT

    Orbital Energies [Eh]
    ---------------------

    Doubly Occupied:

       1A    -20.629079     2A    -20.566514     3A    -11.402481
       4A     -1.476242     5A     -1.381148     6A     -0.878155
       7A     -0.799539     8A     -0.670745     9A     -0.635418
      10A     -0.606841    11A     -0.494289    12A     -0.471476

  @DF-RHF Final Energy:  -188.83472659562904

   => Energetics <=

    Nuclear Repulsion Energy =             69.7478465646737220
    One-Electron Energy =                -397.1412948205223756
    Two-Electron Energy =                 138.5587216602195895
    Total Energy =                       -188.8347265956290357
  Basis Set: (AUG-CC-PVTZ AUX)
    Blend: AUG-CC-PVTZ-RI
    Molecular point group: c1

    Geometry (in Angstrom), charge = 0, multiplicity = 1:

       Center              X                  Y                   Z               Mass
    ------------   -----------------  -----------------  -----------------  -----------------
         C           -0.090636382955     0.405444935678    -0.000000741352    12.000000000000
         H            0.002987617045     1.505578935678     0.000001258648     1.007825032230
         O           -1.146600382955    -0.179488064322     0.000000258648    15.994914619570
         O            1.101959617045    -0.243493064322     0.000000258648    15.994914619570
         H            1.784685617045     0.379875135678    -0.000000641352     1.007825032230

  Basis Set: AUG-CC-PVTZ
    Blend: AUG-CC-PVTZ
  Basis Set: (AUG-CC-PVTZ AUX)
    Blend: AUG-CC-PVTZ-JKFIT
	 Reference Energy          =    -188.8347265956290357 [Eh]
	 Singles Energy            =      -0.0000000000000000 [Eh]
	 Same-Spin Energy          =      -0.1726855863357464 [Eh]
	 Opposite-Spin Energy      =      -0.5180134843817022 [Eh]
	 Correlation Energy        =      -0.6906990707174487 [Eh]
	 Total Energy              =    -189.5254256663464787 [Eh]

	 ================> DF-SCS-MP2 Energies <==================
	-----------------------------------------------------------
	 SCS Same-Spin Scale       =       0.3333333333333333 [-]
	 SCS Opposite-Spin Scale   =       1.2000000000000000 [-]
	 SCS Same-Spin Energy      =      -0.0575618621119155 [Eh]
	 SCS Opposite-Spin Energy  =      -0.6216161812580426 [Eh]
	 SCS Correlation Energy    =      -0.6791780433699581 [Eh]
	 SCS Total Energy          =    -189.5139046389989801 [Eh]
	-----------------------------------------------------------

  Dipole Moment: [D]
     X:     2.7510      Y:     2.7011      Z:    -0.0000     Total:     3.8554

*** Psi4 exiting successfully. Buy a developer a beer!
