                               Psi4 1.4a3.dev225

  ==> Input File <==

--------------------------------------------------------------------------
#psi4
#
memory 32 gb

molecule  {
0 1
  C       -0.1291220     0.3651120    -0.0000010
  H       -0.0338021     1.4851740     0.0000010
  O       -1.1850860    -0.2198210     0.0000000
  O        1.0634740    -0.2838260     0.0000000
  H        1.7831240     0.3732560    -0.0000010
units angstrom
no_reorient  #important for SAPT in psi4, default
symmetry c1  #important for SAPT in psi4, default
}

set PROPERTIES_ORIGIN ["COM"]
properties('MP2/aug-cc-pvtz', properties = ['dipole'])
--------------------------------------------------------------------------

    Molecular point group: c1
  Charge       = 0
  Multiplicity = 1
  Basis Set: AUG-CC-PVTZ
    Blend: AUG-CC-PVTZ
  Basis Set: (AUG-CC-PVTZ AUX)
    Blend: AUG-CC-PVTZ-JKFIT

    Orbital Energies [Eh]
    ---------------------

    Doubly Occupied:

       1A    -20.633507     2A    -20.566267     3A    -11.403731
       4A     -1.468372     5A     -1.376314     6A     -0.867480
       7A     -0.788836     8A     -0.669815     9A     -0.633914
      10A     -0.601154    11A     -0.493356    12A     -0.469766

  @DF-RHF Final Energy:  -188.83339075908745

   => Energetics <=

    Nuclear Repulsion Energy =             69.3731512712075755
    One-Electron Energy =                -396.4680599501763822
    Two-Electron Energy =                 138.2615179198813564
    Total Energy =                       -188.8333907590874503
  Basis Set: (AUG-CC-PVTZ AUX)
    Blend: AUG-CC-PVTZ-RI
    Molecular point group: c1

    Geometry (in Angstrom), charge = 0, multiplicity = 1:

       Center              X                  Y                   Z               Mass
    ------------   -----------------  -----------------  -----------------  -----------------
         C           -0.091482414831     0.404269824590    -0.000000739162    12.000000000000
         H            0.003837485169     1.524331824590     0.000001260838     1.007825032230
         O           -1.147446414831    -0.180663175410     0.000000260838    15.994914619570
         O            1.101113585169    -0.244668175410     0.000000260838    15.994914619570
         H            1.820763585169     0.412413824590    -0.000000739162     1.007825032230

  Basis Set: AUG-CC-PVTZ
    Blend: AUG-CC-PVTZ
  Basis Set: (AUG-CC-PVTZ AUX)
    Blend: AUG-CC-PVTZ-JKFIT
	 Reference Energy          =    -188.8333907590874503 [Eh]
	 Singles Energy            =      -0.0000000000000000 [Eh]
	 Same-Spin Energy          =      -0.1733545052711031 [Eh]
	 Opposite-Spin Energy      =      -0.5196283674218678 [Eh]
	 Correlation Energy        =      -0.6929828726929709 [Eh]
	 Total Energy              =    -189.5263736317804160 [Eh]

	 ================> DF-SCS-MP2 Energies <==================
	-----------------------------------------------------------
	 SCS Same-Spin Scale       =       0.3333333333333333 [-]
	 SCS Opposite-Spin Scale   =       1.2000000000000000 [-]
	 SCS Same-Spin Energy      =      -0.0577848350903677 [Eh]
	 SCS Opposite-Spin Energy  =      -0.6235540409062413 [Eh]
	 SCS Correlation Energy    =      -0.6813388759966090 [Eh]
	 SCS Total Energy          =    -189.5147296350840520 [Eh]
	-----------------------------------------------------------

  Dipole Moment: [D]
     X:     2.8051      Y:     2.7099      Z:    -0.0000     Total:     3.9002

*** Psi4 exiting successfully. Buy a developer a beer!
