                               Psi4 1.3.2 release

  ==> Input File <==

--------------------------------------------------------------------------
#psi4
#
memory 32 gb

molecule  {
0 1
  C        0.0000000     0.4245050     0.0000000
  H       -0.3773750     1.4537240     0.0000000
  O        1.1758490     0.1241496     0.0000000
  O       -1.0419470    -0.4368220     0.0000000
  H       -0.6504660    -1.3355670     0.0000000
units angstrom
no_reorient  #important for SAPT in psi4, default
symmetry c1  #important for SAPT in psi4, default
}

set PROPERTIES_ORIGIN ["COM"]
properties('MP2/aug-cc-pvtz', properties = ['dipole'])
--------------------------------------------------------------------------

    Molecular point group: c1
  Charge       = 0
  Multiplicity = 1
  Basis Set: AUG-CC-PVTZ
    Blend: AUG-CC-PVTZ
  Basis Set: (AUG-CC-PVTZ AUX)
    Blend: AUG-CC-PVTZ-JKFIT

    Orbital Energies [Eh]
    ---------------------

    Doubly Occupied:

       1A    -20.633507     2A    -20.570494     3A    -11.401834
       4A     -1.472713     5A     -1.374806     6A     -0.895427
       7A     -0.722555     8A     -0.713525     9A     -0.636204
      10A     -0.605935    11A     -0.497218    12A     -0.475361

  @DF-RHF Final Energy:  -188.84132819162679

   => Energetics <=

    Nuclear Repulsion Energy =             69.6130685991157208
    One-Electron Energy =                -396.9096351000189884
    Two-Electron Energy =                 138.4552383092764956
    Total Energy =                       -188.8413281916267863
  Basis Set: (AUG-CC-PVTZ AUX)
    Blend: AUG-CC-PVTZ-RI
    Molecular point group: c1

    Geometry (in Angstrom), charge = 0, multiplicity = 1:

       Center              X                  Y                   Z               Mass
    ------------   -----------------  -----------------  -----------------  -----------------
         C           -0.024037727357     0.419897434909     0.000000000000    12.000000000000
         H           -0.401412727357     1.449116434909     0.000000000000     1.007825032230
         O            1.151811272643     0.119542034909     0.000000000000    15.994914619570
         O           -1.065984727357    -0.441429565091     0.000000000000    15.994914619570
         H           -0.674503727357    -1.340174565091     0.000000000000     1.007825032230

  Basis Set: AUG-CC-PVTZ
    Blend: AUG-CC-PVTZ
  Basis Set: (AUG-CC-PVTZ AUX)
    Blend: AUG-CC-PVTZ-JKFIT
	 Reference Energy          =    -188.8413281916267863 [Eh]
	 Singles Energy            =      -0.0000000000000000 [Eh]
	 Same-Spin Energy          =      -0.1732989336792845 [Eh]
	 Opposite-Spin Energy      =      -0.5190083205572601 [Eh]
	 Correlation Energy        =      -0.6923072542365445 [Eh]
	 Total Energy              =    -189.5336354458633252 [Eh]

	 ================> DF-SCS-MP2 Energies <==================
	-----------------------------------------------------------
	 SCS Same-Spin Scale       =       0.3333333333333333 [-]
	 SCS Opposite-Spin Scale   =       1.2000000000000000 [-]
	 SCS Same-Spin Energy      =      -0.0577663112264281 [Eh]
	 SCS Opposite-Spin Energy  =      -0.6228099846687121 [Eh]
	 SCS Correlation Energy    =      -0.6805762958951402 [Eh]
	 SCS Total Energy          =    -189.5219044875219367 [Eh]
	-----------------------------------------------------------

  Dipole Moment: [D]
     X:    -1.4353      Y:    -0.2702      Z:     0.0000     Total:     1.4605

*** Psi4 exiting successfully. Buy a developer a beer!
