                               Psi4 1.3.2 release

  ==> Input File <==

--------------------------------------------------------------------------
#psi4
#
memory 32 gb

molecule  {
0 1
  C        0.0000000     0.4245050     0.0000000
  H       -0.3046610     1.4775412     0.0000000
  O        1.1704280     0.1036740     0.0000000
  O       -1.0419470    -0.4368220     0.0000000
  H       -0.6504660    -1.3355670     0.0000000
units angstrom
no_reorient  #important for SAPT in psi4, default
symmetry c1  #important for SAPT in psi4, default
}

set PROPERTIES_ORIGIN ["COM"]
properties('MP2/aug-cc-pvtz', properties = ['dipole'])
--------------------------------------------------------------------------

    Molecular point group: c1
  Charge       = 0
  Multiplicity = 1
  Basis Set: AUG-CC-PVTZ
    Blend: AUG-CC-PVTZ
  Basis Set: (AUG-CC-PVTZ AUX)
    Blend: AUG-CC-PVTZ-JKFIT

    Orbital Energies [Eh]
    ---------------------

    Doubly Occupied:

       1A    -20.633542     2A    -20.568290     3A    -11.401109
       4A     -1.472820     5A     -1.373218     6A     -0.892787
       7A     -0.725676     8A     -0.713893     9A     -0.636027
      10A     -0.604744    11A     -0.495949    12A     -0.474039

  @DF-RHF Final Energy:  -188.84120958560004

   => Energetics <=

    Nuclear Repulsion Energy =             69.6711928191081853
    One-Electron Energy =                -397.0406134978717887
    Two-Electron Energy =                 138.5282110931635771
    Total Energy =                       -188.8412095856000406
  Basis Set: (AUG-CC-PVTZ AUX)
    Blend: AUG-CC-PVTZ-RI
    Molecular point group: c1

    Geometry (in Angstrom), charge = 0, multiplicity = 1:

       Center              X                  Y                   Z               Mass
    ------------   -----------------  -----------------  -----------------  -----------------
         C           -0.023745904666     0.426494516561     0.000000000000    12.000000000000
         H           -0.328406904666     1.479530716561     0.000000000000     1.007825032230
         O            1.146682095334     0.105663516561     0.000000000000    15.994914619570
         O           -1.065692904666    -0.434832483439     0.000000000000    15.994914619570
         H           -0.674211904666    -1.333577483439     0.000000000000     1.007825032230

  Basis Set: AUG-CC-PVTZ
    Blend: AUG-CC-PVTZ
  Basis Set: (AUG-CC-PVTZ AUX)
    Blend: AUG-CC-PVTZ-JKFIT
	 Reference Energy          =    -188.8412095856000406 [Eh]
	 Singles Energy            =      -0.0000000000000000 [Eh]
	 Same-Spin Energy          =      -0.1731535414305576 [Eh]
	 Opposite-Spin Energy      =      -0.5186983075849632 [Eh]
	 Correlation Energy        =      -0.6918518490155208 [Eh]
	 Total Energy              =    -189.5330614346155471 [Eh]

	 ================> DF-SCS-MP2 Energies <==================
	-----------------------------------------------------------
	 SCS Same-Spin Scale       =       0.3333333333333333 [-]
	 SCS Opposite-Spin Scale   =       1.2000000000000000 [-]
	 SCS Same-Spin Energy      =      -0.0577178471435192 [Eh]
	 SCS Opposite-Spin Energy  =      -0.6224379691019558 [Eh]
	 SCS Correlation Energy    =      -0.6801558162454751 [Eh]
	 SCS Total Energy          =    -189.5213654018455145 [Eh]
	-----------------------------------------------------------

  Dipole Moment: [D]
     X:    -1.4103      Y:    -0.2018      Z:     0.0000     Total:     1.4246

*** Psi4 exiting successfully. Buy a developer a beer!
