                               Psi4 1.3.2 release

  ==> Input File <==

--------------------------------------------------------------------------
#psi4
#
memory 32 gb

molecule  {
0 1
  C        0.0000000     0.4245050     0.0000000
  H       -0.3773750     1.4537240     0.0000000
  O        1.1704280     0.1036740     0.0000000
  O       -0.9648722    -0.3731080     0.0000000
  H       -0.6504660    -1.3355670     0.0000000
units angstrom
no_reorient  #important for SAPT in psi4, default
symmetry c1  #important for SAPT in psi4, default
}

set PROPERTIES_ORIGIN ["COM"]
properties('MP2/aug-cc-pvtz', properties = ['dipole'])
--------------------------------------------------------------------------

    Molecular point group: c1
  Charge       = 0
  Multiplicity = 1
  Basis Set: AUG-CC-PVTZ
    Blend: AUG-CC-PVTZ
  Basis Set: (AUG-CC-PVTZ AUX)
    Blend: AUG-CC-PVTZ-JKFIT

    Orbital Energies [Eh]
    ---------------------

    Doubly Occupied:

       1A    -20.641080     2A    -20.548895     3A    -11.386244
       4A     -1.510367     5A     -1.365404     6A     -0.913148
       7A     -0.743792     8A     -0.708057     9A     -0.662398
      10A     -0.587056    11A     -0.484038    12A     -0.465817

  @DF-RHF Final Energy:  -188.83636297364194

   => Energetics <=

    Nuclear Repulsion Energy =             71.7490832087696759
    One-Electron Energy =                -401.1382993920275339
    Two-Electron Energy =                 140.5528532096159324
    Total Energy =                       -188.8363629736419398
  Basis Set: (AUG-CC-PVTZ AUX)
    Blend: AUG-CC-PVTZ-RI
    Molecular point group: c1

    Geometry (in Angstrom), charge = 0, multiplicity = 1:

       Center              X                  Y                   Z               Mass
    ------------   -----------------  -----------------  -----------------  -----------------
         C           -0.048949899353     0.404864562156     0.000000000000    12.000000000000
         H           -0.426324899353     1.434083562156     0.000000000000     1.007825032230
         O            1.121478100647     0.084033562156     0.000000000000    15.994914619570
         O           -1.013822099353    -0.392748437844     0.000000000000    15.994914619570
         H           -0.699415899353    -1.355207437844     0.000000000000     1.007825032230

  Basis Set: AUG-CC-PVTZ
    Blend: AUG-CC-PVTZ
  Basis Set: (AUG-CC-PVTZ AUX)
    Blend: AUG-CC-PVTZ-JKFIT
	 Reference Energy          =    -188.8363629736419398 [Eh]
	 Singles Energy            =      -0.0000000000000000 [Eh]
	 Same-Spin Energy          =      -0.1728017424119383 [Eh]
	 Opposite-Spin Energy      =      -0.5159922163369987 [Eh]
	 Correlation Energy        =      -0.6887939587489369 [Eh]
	 Total Energy              =    -189.5251569323908711 [Eh]

	 ================> DF-SCS-MP2 Energies <==================
	-----------------------------------------------------------
	 SCS Same-Spin Scale       =       0.3333333333333333 [-]
	 SCS Opposite-Spin Scale   =       1.2000000000000000 [-]
	 SCS Same-Spin Energy      =      -0.0576005808039794 [Eh]
	 SCS Opposite-Spin Energy  =      -0.6191906596043983 [Eh]
	 SCS Correlation Energy    =      -0.6767912404083778 [Eh]
	 SCS Total Energy          =    -189.5131542140503313 [Eh]
	-----------------------------------------------------------

  Dipole Moment: [D]
     X:    -2.0104      Y:    -0.5879      Z:     0.0000     Total:     2.0946

*** Psi4 exiting successfully. Buy a developer a beer!
