                               Psi4 1.3.2 release

  ==> Input File <==

--------------------------------------------------------------------------
#psi4
#
memory 32 gb

molecule  {
0 1
  C        0.0000000     0.4245050     0.0000000
  H       -0.4482504     1.4248925     0.0000000
  O        1.1704280     0.1036740     0.0000000
  O       -1.0419470    -0.4368220     0.0000000
  H       -0.6504660    -1.3355670     0.0000000
units angstrom
no_reorient  #important for SAPT in psi4, default
symmetry c1  #important for SAPT in psi4, default
}

set PROPERTIES_ORIGIN ["COM"]
properties('MP2/aug-cc-pvtz', properties = ['dipole'])
--------------------------------------------------------------------------

    Molecular point group: c1
  Charge       = 0
  Multiplicity = 1
  Basis Set: AUG-CC-PVTZ
    Blend: AUG-CC-PVTZ
  Basis Set: (AUG-CC-PVTZ AUX)
    Blend: AUG-CC-PVTZ-JKFIT

    Orbital Energies [Eh]
    ---------------------

    Doubly Occupied:

       1A    -20.630650     2A    -20.572210     3A    -11.402690
       4A     -1.472989     5A     -1.373973     6A     -0.898345
       7A     -0.721002     8A     -0.710073     9A     -0.635638
      10A     -0.606621    11A     -0.497107    12A     -0.476953

  @DF-RHF Final Energy:  -188.84016314163154

   => Energetics <=

    Nuclear Repulsion Energy =             69.7044523932275979
    One-Electron Energy =                -397.0927326071483208
    Two-Electron Energy =                 138.5481170722891875
    Total Energy =                       -188.8401631416315354
  Basis Set: (AUG-CC-PVTZ AUX)
    Blend: AUG-CC-PVTZ-RI
    Molecular point group: c1

    Geometry (in Angstrom), charge = 0, multiplicity = 1:

       Center              X                  Y                   Z               Mass
    ------------   -----------------  -----------------  -----------------  -----------------
         C           -0.020600344749     0.427647872174     0.000000000000    12.000000000000
         H           -0.468850744749     1.428035372174     0.000000000000     1.007825032230
         O            1.149827655251     0.106816872174     0.000000000000    15.994914619570
         O           -1.062547344749    -0.433679127826     0.000000000000    15.994914619570
         H           -0.671066344749    -1.332424127826     0.000000000000     1.007825032230

  Basis Set: AUG-CC-PVTZ
    Blend: AUG-CC-PVTZ
  Basis Set: (AUG-CC-PVTZ AUX)
    Blend: AUG-CC-PVTZ-JKFIT
	 Reference Energy          =    -188.8401631416315354 [Eh]
	 Singles Energy            =      -0.0000000000000000 [Eh]
	 Same-Spin Energy          =      -0.1734762682368622 [Eh]
	 Opposite-Spin Energy      =      -0.5192991503308652 [Eh]
	 Correlation Energy        =      -0.6927754185677274 [Eh]
	 Total Energy              =    -189.5329385601992556 [Eh]

	 ================> DF-SCS-MP2 Energies <==================
	-----------------------------------------------------------
	 SCS Same-Spin Scale       =       0.3333333333333333 [-]
	 SCS Opposite-Spin Scale   =       1.2000000000000000 [-]
	 SCS Same-Spin Energy      =      -0.0578254227456207 [Eh]
	 SCS Opposite-Spin Energy  =      -0.6231589803970382 [Eh]
	 SCS Correlation Energy    =      -0.6809844031426590 [Eh]
	 SCS Total Energy          =    -189.5211475447741805 [Eh]
	-----------------------------------------------------------

  Dipole Moment: [D]
     X:    -1.4359      Y:    -0.2340      Z:    -0.0000     Total:     1.4549

*** Psi4 exiting successfully. Buy a developer a beer!
