                               Psi4 1.3.2 release

  ==> Input File <==

--------------------------------------------------------------------------
#psi4
#
memory 32 gb

molecule  {
0 1
  C        0.0000000     0.4245050     0.0000000
  H       -0.3429500     1.3598362     0.0000000
  O        1.1704280     0.1036740     0.0000000
  O       -1.0419470    -0.4368220     0.0000000
  H       -0.6504660    -1.3355670     0.0000000
units angstrom
no_reorient  #important for SAPT in psi4, default
symmetry c1  #important for SAPT in psi4, default
}

set PROPERTIES_ORIGIN ["COM"]
properties('MP2/aug-cc-pvtz', properties = ['dipole'])
--------------------------------------------------------------------------

    Molecular point group: c1
  Charge       = 0
  Multiplicity = 1
  Basis Set: AUG-CC-PVTZ
    Blend: AUG-CC-PVTZ
  Basis Set: (AUG-CC-PVTZ AUX)
    Blend: AUG-CC-PVTZ-JKFIT

    Orbital Energies [Eh]
    ---------------------

    Doubly Occupied:

       1A    -20.630474     2A    -20.568718     3A    -11.391142
       4A     -1.472431     5A     -1.372292     6A     -0.916309
       7A     -0.733311     8A     -0.713013     9A     -0.634942
      10A     -0.610950    11A     -0.495187    12A     -0.478291

  @DF-RHF Final Energy:  -188.83582715046390

   => Energetics <=

    Nuclear Repulsion Energy =             70.1548992023200384
    One-Electron Energy =                -397.9473346966415761
    Two-Electron Energy =                 138.9566083438576243
    Total Energy =                       -188.8358271504638992
  Basis Set: (AUG-CC-PVTZ AUX)
    Blend: AUG-CC-PVTZ-RI
    Molecular point group: c1

    Geometry (in Angstrom), charge = 0, multiplicity = 1:

       Center              X                  Y                   Z               Mass
    ------------   -----------------  -----------------  -----------------  -----------------
         C           -0.022907121694     0.429073036495     0.000000000000    12.000000000000
         H           -0.365857121694     1.364404236495     0.000000000000     1.007825032230
         O            1.147520878306     0.108242036495     0.000000000000    15.994914619570
         O           -1.064854121694    -0.432253963505     0.000000000000    15.994914619570
         H           -0.673373121694    -1.330998963505     0.000000000000     1.007825032230

  Basis Set: AUG-CC-PVTZ
    Blend: AUG-CC-PVTZ
  Basis Set: (AUG-CC-PVTZ AUX)
    Blend: AUG-CC-PVTZ-JKFIT
	 Reference Energy          =    -188.8358271504638992 [Eh]
	 Singles Energy            =      -0.0000000000000000 [Eh]
	 Same-Spin Energy          =      -0.1730846373786838 [Eh]
	 Opposite-Spin Energy      =      -0.5186733844465508 [Eh]
	 Correlation Energy        =      -0.6917580218252346 [Eh]
	 Total Energy              =    -189.5275851722891218 [Eh]

	 ================> DF-SCS-MP2 Energies <==================
	-----------------------------------------------------------
	 SCS Same-Spin Scale       =       0.3333333333333333 [-]
	 SCS Opposite-Spin Scale   =       1.2000000000000000 [-]
	 SCS Same-Spin Energy      =      -0.0576948791262279 [Eh]
	 SCS Opposite-Spin Energy  =      -0.6224080613358609 [Eh]
	 SCS Correlation Energy    =      -0.6801029404620889 [Eh]
	 SCS Total Energy          =    -189.5159300909259912 [Eh]
	-----------------------------------------------------------

  Dipole Moment: [D]
     X:    -1.4430      Y:    -0.1858      Z:    -0.0000     Total:     1.4549

*** Psi4 exiting successfully. Buy a developer a beer!
