                               Psi4 1.3.2 release

  ==> Input File <==

--------------------------------------------------------------------------
#psi4
#
memory 32 gb

molecule  {
0 1
  C        0.0000000     0.4245050     0.0000000
  H       -0.3773750     1.4537240     0.0000000
  O        1.0739857     0.1301102     0.0000000
  O       -1.0419470    -0.4368220     0.0000000
  H       -0.6504660    -1.3355670     0.0000000
units angstrom
no_reorient  #important for SAPT in psi4, default
symmetry c1  #important for SAPT in psi4, default
}

set PROPERTIES_ORIGIN ["COM"]
properties('MP2/aug-cc-pvtz', properties = ['dipole'])
--------------------------------------------------------------------------

    Molecular point group: c1
  Charge       = 0
  Multiplicity = 1
  Basis Set: AUG-CC-PVTZ
    Blend: AUG-CC-PVTZ
  Basis Set: (AUG-CC-PVTZ AUX)
    Blend: AUG-CC-PVTZ-JKFIT

    Orbital Energies [Eh]
    ---------------------

    Doubly Occupied:

       1A    -20.614045     2A    -20.568181     3A    -11.377755
       4A     -1.508622     5A     -1.397372     6A     -0.880512
       7A     -0.737747     8A     -0.720907     9A     -0.652585
      10A     -0.610785    11A     -0.513296    12A     -0.474662

  @DF-RHF Final Energy:  -188.83685855163992

   => Energetics <=

    Nuclear Repulsion Energy =             72.2930948328377951
    One-Electron Energy =                -402.1469650499361705
    Two-Electron Energy =                 141.0170116654584263
    Total Energy =                       -188.8368585516399207
  Basis Set: (AUG-CC-PVTZ AUX)
    Blend: AUG-CC-PVTZ-RI
    Molecular point group: c1

    Geometry (in Angstrom), charge = 0, multiplicity = 1:

       Center              X                  Y                   Z               Mass
    ------------   -----------------  -----------------  -----------------  -----------------
         C            0.011377506024     0.417825088538     0.000000000000    12.000000000000
         H           -0.365997493976     1.447044088538     0.000000000000     1.007825032230
         O            1.085363206024     0.123430288538     0.000000000000    15.994914619570
         O           -1.030569493976    -0.443501911462     0.000000000000    15.994914619570
         H           -0.639088493976    -1.342246911462     0.000000000000     1.007825032230

  Basis Set: AUG-CC-PVTZ
    Blend: AUG-CC-PVTZ
  Basis Set: (AUG-CC-PVTZ AUX)
    Blend: AUG-CC-PVTZ-JKFIT
	 Reference Energy          =    -188.8368585516399207 [Eh]
	 Singles Energy            =      -0.0000000000000000 [Eh]
	 Same-Spin Energy          =      -0.1707141145293997 [Eh]
	 Opposite-Spin Energy      =      -0.5122707736114689 [Eh]
	 Correlation Energy        =      -0.6829848881408686 [Eh]
	 Total Energy              =    -189.5198434397808001 [Eh]

	 ================> DF-SCS-MP2 Energies <==================
	-----------------------------------------------------------
	 SCS Same-Spin Scale       =       0.3333333333333333 [-]
	 SCS Opposite-Spin Scale   =       1.2000000000000000 [-]
	 SCS Same-Spin Energy      =      -0.0569047048431332 [Eh]
	 SCS Opposite-Spin Energy  =      -0.6147249283337627 [Eh]
	 SCS Correlation Energy    =      -0.6716296331768959 [Eh]
	 SCS Total Energy          =    -189.5084881848168266 [Eh]
	-----------------------------------------------------------

  Dipole Moment: [D]
     X:    -0.8643      Y:    -0.2194      Z:    -0.0000     Total:     0.8917

*** Psi4 exiting successfully. Buy a developer a beer!
