                               Psi4 1.3.2 release

  ==> Input File <==

--------------------------------------------------------------------------
#psi4
#
memory 32 gb

molecule  {
0 1
  C        0.0000000     0.4245050     0.0000000
  H       -0.3412259     1.4662672     0.0000000
  O        1.1704280     0.1036740     0.0000000
  O       -1.0419470    -0.4368220     0.0000000
  H       -0.6504660    -1.3355670     0.0000000
units angstrom
no_reorient  #important for SAPT in psi4, default
symmetry c1  #important for SAPT in psi4, default
}

set PROPERTIES_ORIGIN ["COM"]
properties('MP2/aug-cc-pvtz', properties = ['dipole'])
--------------------------------------------------------------------------

    Molecular point group: c1
  Charge       = 0
  Multiplicity = 1
  Basis Set: AUG-CC-PVTZ
    Blend: AUG-CC-PVTZ
  Basis Set: (AUG-CC-PVTZ AUX)
    Blend: AUG-CC-PVTZ-JKFIT

    Orbital Energies [Eh]
    ---------------------

    Doubly Occupied:

       1A    -20.632808     2A    -20.569262     3A    -11.401509
       4A     -1.472805     5A     -1.373343     6A     -0.894162
       7A     -0.723934     8A     -0.713502     9A     -0.635894
      10A     -0.605379    11A     -0.496213    12A     -0.474905

  @DF-RHF Final Energy:  -188.84154199212509

   => Energetics <=

    Nuclear Repulsion Energy =             69.6761049376709423
    One-Electron Energy =                -397.0478608919839303
    Two-Electron Energy =                 138.5302139621879292
    Total Energy =                       -188.8415419921250873
  Basis Set: (AUG-CC-PVTZ AUX)
    Blend: AUG-CC-PVTZ-RI
    Molecular point group: c1

    Geometry (in Angstrom), charge = 0, multiplicity = 1:

       Center              X                  Y                   Z               Mass
    ------------   -----------------  -----------------  -----------------  -----------------
         C           -0.022944890916     0.426741491913     0.000000000000    12.000000000000
         H           -0.364170790916     1.468503691913     0.000000000000     1.007825032230
         O            1.147483109084     0.105910491913     0.000000000000    15.994914619570
         O           -1.064891890916    -0.434585508087     0.000000000000    15.994914619570
         H           -0.673410890916    -1.333330508087     0.000000000000     1.007825032230

  Basis Set: AUG-CC-PVTZ
    Blend: AUG-CC-PVTZ
  Basis Set: (AUG-CC-PVTZ AUX)
    Blend: AUG-CC-PVTZ-JKFIT
	 Reference Energy          =    -188.8415419921250873 [Eh]
	 Singles Energy            =      -0.0000000000000000 [Eh]
	 Same-Spin Energy          =      -0.1732099128100618 [Eh]
	 Opposite-Spin Energy      =      -0.5188043450379365 [Eh]
	 Correlation Energy        =      -0.6920142578479983 [Eh]
	 Total Energy              =    -189.5335562499730884 [Eh]

	 ================> DF-SCS-MP2 Energies <==================
	-----------------------------------------------------------
	 SCS Same-Spin Scale       =       0.3333333333333333 [-]
	 SCS Opposite-Spin Scale   =       1.2000000000000000 [-]
	 SCS Same-Spin Energy      =      -0.0577366376033539 [Eh]
	 SCS Opposite-Spin Energy  =      -0.6225652140455238 [Eh]
	 SCS Correlation Energy    =      -0.6803018516488777 [Eh]
	 SCS Total Energy          =    -189.5218438437739792 [Eh]
	-----------------------------------------------------------

  Dipole Moment: [D]
     X:    -1.4176      Y:    -0.2087      Z:     0.0000     Total:     1.4329

*** Psi4 exiting successfully. Buy a developer a beer!
