                               Psi4 1.3.2 release

  ==> Input File <==

--------------------------------------------------------------------------
#psi4
#
memory 32 gb

molecule  {
0 1
  C        0.0000000     0.4245050     0.0000000
  H       -0.3773750     1.4537240     0.0000000
  O        1.1809118     0.1447168     0.0000000
  O       -1.0419470    -0.4368220     0.0000000
  H       -0.6504660    -1.3355670     0.0000000
units angstrom
no_reorient  #important for SAPT in psi4, default
symmetry c1  #important for SAPT in psi4, default
}

set PROPERTIES_ORIGIN ["COM"]
properties('MP2/aug-cc-pvtz', properties = ['dipole'])
--------------------------------------------------------------------------

    Molecular point group: c1
  Charge       = 0
  Multiplicity = 1
  Basis Set: AUG-CC-PVTZ
    Blend: AUG-CC-PVTZ
  Basis Set: (AUG-CC-PVTZ AUX)
    Blend: AUG-CC-PVTZ-JKFIT

    Orbital Energies [Eh]
    ---------------------

    Doubly Occupied:

       1A    -20.634914     2A    -20.570735     3A    -11.401767
       4A     -1.472628     5A     -1.376062     6A     -0.895312
       7A     -0.722595     8A     -0.714238     9A     -0.636630
      10A     -0.605972    11A     -0.497921    12A     -0.474958

  @DF-RHF Final Energy:  -188.84102407057588

   => Energetics <=

    Nuclear Repulsion Energy =             69.5451210399289721
    One-Electron Energy =                -396.7648273614628920
    Two-Electron Energy =                 138.3786822509580361
    Total Energy =                       -188.8410240705758838
  Basis Set: (AUG-CC-PVTZ AUX)
    Blend: AUG-CC-PVTZ-RI
    Molecular point group: c1

    Geometry (in Angstrom), charge = 0, multiplicity = 1:

       Center              X                  Y                   Z               Mass
    ------------   -----------------  -----------------  -----------------  -----------------
         C           -0.025797931902     0.412746751709     0.000000000000    12.000000000000
         H           -0.403172931902     1.441965751709     0.000000000000     1.007825032230
         O            1.155113868098     0.132958551709     0.000000000000    15.994914619570
         O           -1.067744931902    -0.448580248291     0.000000000000    15.994914619570
         H           -0.676263931902    -1.347325248291     0.000000000000     1.007825032230

  Basis Set: AUG-CC-PVTZ
    Blend: AUG-CC-PVTZ
  Basis Set: (AUG-CC-PVTZ AUX)
    Blend: AUG-CC-PVTZ-JKFIT
	 Reference Energy          =    -188.8410240705758838 [Eh]
	 Singles Energy            =      -0.0000000000000000 [Eh]
	 Same-Spin Energy          =      -0.1733198349883819 [Eh]
	 Opposite-Spin Energy      =      -0.5190858135102743 [Eh]
	 Correlation Energy        =      -0.6924056484986562 [Eh]
	 Total Energy              =    -189.5334297190745474 [Eh]

	 ================> DF-SCS-MP2 Energies <==================
	-----------------------------------------------------------
	 SCS Same-Spin Scale       =       0.3333333333333333 [-]
	 SCS Opposite-Spin Scale   =       1.2000000000000000 [-]
	 SCS Same-Spin Energy      =      -0.0577732783294606 [Eh]
	 SCS Opposite-Spin Energy  =      -0.6229029762123292 [Eh]
	 SCS Correlation Energy    =      -0.6806762545417898 [Eh]
	 SCS Total Energy          =    -189.5217003251176777 [Eh]
	-----------------------------------------------------------

  Dipole Moment: [D]
     X:    -1.4454      Y:    -0.3242      Z:     0.0000     Total:     1.4813

*** Psi4 exiting successfully. Buy a developer a beer!
