                               Psi4 1.4a3.dev225

  ==> Input File <==

--------------------------------------------------------------------------
#psi4
#
memory 32 gb

molecule  {
0 1
  C       -0.1291220     0.3651120    -0.0000010
  H       -0.0354980     1.4652460     0.0000010
  O       -1.1413480    -0.1955931    -0.0000000
  O        1.0634740    -0.2838260     0.0000000
  H        1.7831240     0.3732560    -0.0000010
units angstrom
no_reorient  #important for SAPT in psi4, default
symmetry c1  #important for SAPT in psi4, default
}

set PROPERTIES_ORIGIN ["COM"]
properties('MP2/aug-cc-pvtz', properties = ['dipole'])
--------------------------------------------------------------------------

    Molecular point group: c1
  Charge       = 0
  Multiplicity = 1
  Basis Set: AUG-CC-PVTZ
    Blend: AUG-CC-PVTZ
  Basis Set: (AUG-CC-PVTZ AUX)
    Blend: AUG-CC-PVTZ-JKFIT

    Orbital Energies [Eh]
    ---------------------

    Doubly Occupied:

       1A    -20.624460     2A    -20.564668     3A    -11.389591
       4A     -1.480465     5A     -1.392747     6A     -0.861713
       7A     -0.793185     8A     -0.679570     9A     -0.639671
      10A     -0.604752    11A     -0.503346    12A     -0.470511

  @DF-RHF Final Energy:  -188.83676826434586

   => Energetics <=

    Nuclear Repulsion Energy =             70.7291837469263527
    One-Electron Energy =                -399.1225491551617210
    Two-Electron Energy =                 139.5565971438894906
    Total Energy =                       -188.8367682643458636
  Basis Set: (AUG-CC-PVTZ AUX)
    Blend: AUG-CC-PVTZ-RI
    Molecular point group: c1

    Geometry (in Angstrom), charge = 0, multiplicity = 1:

       Center              X                  Y                   Z               Mass
    ------------   -----------------  -----------------  -----------------  -----------------
         C           -0.106651834121     0.396282966063    -0.000000739162    12.000000000000
         H           -0.013027834121     1.496416966063     0.000001260838     1.007825032230
         O           -1.118877834121    -0.164422133937     0.000000260838    15.994914619570
         O            1.085944165879    -0.252655033937     0.000000260838    15.994914619570
         H            1.805594165879     0.404426966063    -0.000000739162     1.007825032230

  Basis Set: AUG-CC-PVTZ
    Blend: AUG-CC-PVTZ
  Basis Set: (AUG-CC-PVTZ AUX)
    Blend: AUG-CC-PVTZ-JKFIT
	 Reference Energy          =    -188.8367682643458636 [Eh]
	 Singles Energy            =      -0.0000000000000000 [Eh]
	 Same-Spin Energy          =      -0.1719864266538981 [Eh]
	 Opposite-Spin Energy      =      -0.5160532010462981 [Eh]
	 Correlation Energy        =      -0.6880396277001962 [Eh]
	 Total Energy              =    -189.5248078920460557 [Eh]

	 ================> DF-SCS-MP2 Energies <==================
	-----------------------------------------------------------
	 SCS Same-Spin Scale       =       0.3333333333333333 [-]
	 SCS Opposite-Spin Scale   =       1.2000000000000000 [-]
	 SCS Same-Spin Energy      =      -0.0573288088846327 [Eh]
	 SCS Opposite-Spin Energy  =      -0.6192638412555578 [Eh]
	 SCS Correlation Energy    =      -0.6765926501401904 [Eh]
	 SCS Total Energy          =    -189.5133609144860429 [Eh]
	-----------------------------------------------------------

  Dipole Moment: [D]
     X:     2.5503      Y:     2.6480      Z:    -0.0000     Total:     3.6764

*** Psi4 exiting successfully. Buy a developer a beer!
