                               Psi4 1.3.2 release

  ==> Input File <==

--------------------------------------------------------------------------
#psi4
#
memory 32 gb

molecule  {
0 1
  C        0.0000000     0.4245050     0.0000000
  H       -0.3773750     1.4537240     0.0000000
  O        1.1646505     0.0832961     0.0000000
  O       -1.0419470    -0.4368220     0.0000000
  H       -0.6504660    -1.3355670     0.0000000
units angstrom
no_reorient  #important for SAPT in psi4, default
symmetry c1  #important for SAPT in psi4, default
}

set PROPERTIES_ORIGIN ["COM"]
properties('MP2/aug-cc-pvtz', properties = ['dipole'])
--------------------------------------------------------------------------

    Molecular point group: c1
  Charge       = 0
  Multiplicity = 1
  Basis Set: AUG-CC-PVTZ
    Blend: AUG-CC-PVTZ
  Basis Set: (AUG-CC-PVTZ AUX)
    Blend: AUG-CC-PVTZ-JKFIT

    Orbital Energies [Eh]
    ---------------------

    Doubly Occupied:

       1A    -20.630626     2A    -20.569979     3A    -11.401986
       4A     -1.472968     5A     -1.372178     6A     -0.895668
       7A     -0.722486     8A     -0.712018     9A     -0.635367
      10A     -0.605896    11A     -0.495751    12A     -0.475912

  @DF-RHF Final Energy:  -188.84148068964328

   => Energetics <=

    Nuclear Repulsion Energy =             69.7557602023405394
    One-Electron Energy =                -397.2128110211236844
    Two-Electron Energy =                 138.6155701291398827
    Total Energy =                       -188.8414806896432765
  Basis Set: (AUG-CC-PVTZ AUX)
    Blend: AUG-CC-PVTZ-RI
    Molecular point group: c1

    Geometry (in Angstrom), charge = 0, multiplicity = 1:

       Center              X                  Y                   Z               Mass
    ------------   -----------------  -----------------  -----------------  -----------------
         C           -0.020144298703     0.434101139648     0.000000000000    12.000000000000
         H           -0.397519298703     1.463320139648     0.000000000000     1.007825032230
         O            1.144506201297     0.092892239648     0.000000000000    15.994914619570
         O           -1.062091298703    -0.427225860352     0.000000000000    15.994914619570
         H           -0.670610298703    -1.325970860352     0.000000000000     1.007825032230

  Basis Set: AUG-CC-PVTZ
    Blend: AUG-CC-PVTZ
  Basis Set: (AUG-CC-PVTZ AUX)
    Blend: AUG-CC-PVTZ-JKFIT
	 Reference Energy          =    -188.8414806896432765 [Eh]
	 Singles Energy            =      -0.0000000000000000 [Eh]
	 Same-Spin Energy          =      -0.1732708135632680 [Eh]
	 Opposite-Spin Energy      =      -0.5188823348720866 [Eh]
	 Correlation Energy        =      -0.6921531484353546 [Eh]
	 Total Energy              =    -189.5336338380786287 [Eh]

	 ================> DF-SCS-MP2 Energies <==================
	-----------------------------------------------------------
	 SCS Same-Spin Scale       =       0.3333333333333333 [-]
	 SCS Opposite-Spin Scale   =       1.2000000000000000 [-]
	 SCS Same-Spin Energy      =      -0.0577569378544227 [Eh]
	 SCS Opposite-Spin Energy  =      -0.6226588018465039 [Eh]
	 SCS Correlation Energy    =      -0.6804157397009266 [Eh]
	 SCS Total Energy          =    -189.5218964293441957 [Eh]
	-----------------------------------------------------------

  Dipole Moment: [D]
     X:    -1.4123      Y:    -0.1625      Z:     0.0000     Total:     1.4217

*** Psi4 exiting successfully. Buy a developer a beer!
