                               Psi4 1.4a3.dev225

  ==> Input File <==

--------------------------------------------------------------------------
#psi4
#
memory 32 gb

molecule  {
0 1
  C       -0.1291220     0.3651120    -0.0000010
  H       -0.0371939     1.4453180     0.0000010
  O       -1.1850860    -0.2198210     0.0000000
  O        1.0634740    -0.2838260     0.0000000
  H        1.7831240     0.3732560    -0.0000010
units angstrom
no_reorient  #important for SAPT in psi4, default
symmetry c1  #important for SAPT in psi4, default
}

set PROPERTIES_ORIGIN ["COM"]
properties('MP2/aug-cc-pvtz', properties = ['dipole'])
--------------------------------------------------------------------------

    Molecular point group: c1
  Charge       = 0
  Multiplicity = 1
  Basis Set: AUG-CC-PVTZ
    Blend: AUG-CC-PVTZ
  Basis Set: (AUG-CC-PVTZ AUX)
    Blend: AUG-CC-PVTZ-JKFIT

    Orbital Energies [Eh]
    ---------------------

    Doubly Occupied:

       1A    -20.632643     2A    -20.565327     3A    -11.399363
       4A     -1.468045     5A     -1.375628     6A     -0.873435
       7A     -0.794112     8A     -0.669324     9A     -0.633372
      10A     -0.602921    11A     -0.492596    12A     -0.471100

  @DF-RHF Final Energy:  -188.83429378682268

   => Energetics <=

    Nuclear Repulsion Energy =             69.5465718404392419
    One-Electron Energy =                -396.8060024859771602
    Two-Electron Energy =                 138.4251368587152342
    Total Energy =                       -188.8342937868226841
  Basis Set: (AUG-CC-PVTZ AUX)
    Blend: AUG-CC-PVTZ-RI
    Molecular point group: c1

    Geometry (in Angstrom), charge = 0, multiplicity = 1:

       Center              X                  Y                   Z               Mass
    ------------   -----------------  -----------------  -----------------  -----------------
         C           -0.091408111922     0.405142935252    -0.000000739162    12.000000000000
         H            0.000519988078     1.485348935252     0.000001260838     1.007825032230
         O           -1.147372111922    -0.179790064748     0.000000260838    15.994914619570
         O            1.101187888078    -0.243795064748     0.000000260838    15.994914619570
         H            1.820837888078     0.413286935252    -0.000000739162     1.007825032230

  Basis Set: AUG-CC-PVTZ
    Blend: AUG-CC-PVTZ
  Basis Set: (AUG-CC-PVTZ AUX)
    Blend: AUG-CC-PVTZ-JKFIT
	 Reference Energy          =    -188.8342937868226841 [Eh]
	 Singles Energy            =      -0.0000000000000000 [Eh]
	 Same-Spin Energy          =      -0.1732206003209820 [Eh]
	 Opposite-Spin Energy      =      -0.5193755258178123 [Eh]
	 Correlation Energy        =      -0.6925961261387943 [Eh]
	 Total Energy              =    -189.5268899129614795 [Eh]

	 ================> DF-SCS-MP2 Energies <==================
	-----------------------------------------------------------
	 SCS Same-Spin Scale       =       0.3333333333333333 [-]
	 SCS Opposite-Spin Scale   =       1.2000000000000000 [-]
	 SCS Same-Spin Energy      =      -0.0577402001069940 [Eh]
	 SCS Opposite-Spin Energy  =      -0.6232506309813748 [Eh]
	 SCS Correlation Energy    =      -0.6809908310883688 [Eh]
	 SCS Total Energy          =    -189.5152846179110497 [Eh]
	-----------------------------------------------------------

  Dipole Moment: [D]
     X:     2.8120      Y:     2.7423      Z:    -0.0000     Total:     3.9278

*** Psi4 exiting successfully. Buy a developer a beer!
