                               Psi4 1.4a3.dev225

  ==> Input File <==

--------------------------------------------------------------------------
#psi4
#
memory 32 gb

molecule  {
0 1
  C       -0.1291220     0.3651120    -0.0000010
  H       -0.0354980     1.4652460     0.0000010
  O       -1.1850860    -0.2198210     0.0000000
  O        1.0634740    -0.2838260     0.0000000
  H        1.7683544     0.3597705    -0.0000010
units angstrom
no_reorient  #important for SAPT in psi4, default
symmetry c1  #important for SAPT in psi4, default
}

set PROPERTIES_ORIGIN ["COM"]
properties('MP2/aug-cc-pvtz', properties = ['dipole'])
--------------------------------------------------------------------------

    Molecular point group: c1
  Charge       = 0
  Multiplicity = 1
  Basis Set: AUG-CC-PVTZ
    Blend: AUG-CC-PVTZ
  Basis Set: (AUG-CC-PVTZ AUX)
    Blend: AUG-CC-PVTZ-JKFIT

    Orbital Energies [Eh]
    ---------------------

    Doubly Occupied:

       1A    -20.631534     2A    -20.566067     3A    -11.401925
       4A     -1.471188     5A     -1.378027     6A     -0.873220
       7A     -0.794845     8A     -0.670026     9A     -0.634332
      10A     -0.604008    11A     -0.493484    12A     -0.470854

  @DF-RHF Final Energy:  -188.83496112826091

   => Energetics <=

    Nuclear Repulsion Energy =             69.5712793042927586
    One-Electron Energy =                -396.8334613326809404
    Two-Electron Energy =                 138.4272209001272529
    Total Energy =                       -188.8349611282609146
  Basis Set: (AUG-CC-PVTZ AUX)
    Blend: AUG-CC-PVTZ-RI
    Molecular point group: c1

    Geometry (in Angstrom), charge = 0, multiplicity = 1:

       Center              X                  Y                   Z               Mass
    ------------   -----------------  -----------------  -----------------  -----------------
         C           -0.091121711208     0.405001801786    -0.000000739162    12.000000000000
         H            0.002502288792     1.505135801786     0.000001260838     1.007825032230
         O           -1.147085711208    -0.179931198214     0.000000260838    15.994914619570
         O            1.101474288792    -0.243936198214     0.000000260838    15.994914619570
         H            1.806354688792     0.399660301786    -0.000000739162     1.007825032230

  Basis Set: AUG-CC-PVTZ
    Blend: AUG-CC-PVTZ
  Basis Set: (AUG-CC-PVTZ AUX)
    Blend: AUG-CC-PVTZ-JKFIT
	 Reference Energy          =    -188.8349611282609146 [Eh]
	 Singles Energy            =      -0.0000000000000000 [Eh]
	 Same-Spin Energy          =      -0.1730453307312463 [Eh]
	 Opposite-Spin Energy      =      -0.5188915702959530 [Eh]
	 Correlation Energy        =      -0.6919369010271994 [Eh]
	 Total Energy              =    -189.5268980292881054 [Eh]

	 ================> DF-SCS-MP2 Energies <==================
	-----------------------------------------------------------
	 SCS Same-Spin Scale       =       0.3333333333333333 [-]
	 SCS Opposite-Spin Scale   =       1.2000000000000000 [-]
	 SCS Same-Spin Energy      =      -0.0576817769104154 [Eh]
	 SCS Opposite-Spin Energy  =      -0.6226698843551436 [Eh]
	 SCS Correlation Energy    =      -0.6803516612655590 [Eh]
	 SCS Total Energy          =    -189.5153127895264618 [Eh]
	-----------------------------------------------------------

  Dipole Moment: [D]
     X:     2.7859      Y:     2.7163      Z:    -0.0000     Total:     3.8909

*** Psi4 exiting successfully. Buy a developer a beer!
