                               Psi4 1.4a3.dev225

  ==> Input File <==

--------------------------------------------------------------------------
#psi4
#
memory 32 gb

molecule  {
0 1
  C       -0.1291220     0.3651120    -0.0000010
  H       -0.0354980     1.4652460     0.0000010
  O       -1.1850860    -0.2198210     0.0000000
  O        1.0634740    -0.2838260     0.0000000
  H        1.8200480     0.4069698    -0.0000011
units angstrom
no_reorient  #important for SAPT in psi4, default
symmetry c1  #important for SAPT in psi4, default
}

set PROPERTIES_ORIGIN ["COM"]
properties('MP2/aug-cc-pvtz', properties = ['dipole'])
--------------------------------------------------------------------------

    Molecular point group: c1
  Charge       = 0
  Multiplicity = 1
  Basis Set: AUG-CC-PVTZ
    Blend: AUG-CC-PVTZ
  Basis Set: (AUG-CC-PVTZ AUX)
    Blend: AUG-CC-PVTZ-JKFIT

    Orbital Energies [Eh]
    ---------------------

    Doubly Occupied:

       1A    -20.636534     2A    -20.565114     3A    -11.400683
       4A     -1.461842     5A     -1.370919     6A     -0.863960
       7A     -0.782828     8A     -0.668442     9A     -0.631984
      10A     -0.596879    11A     -0.491738    12A     -0.469473

  @DF-RHF Final Energy:  -188.82896894412241

   => Energetics <=

    Nuclear Repulsion Energy =             69.1935902404208036
    One-Electron Energy =                -396.1643264343182409
    Two-Electron Energy =                 138.1417672497750289
    Total Energy =                       -188.8289689441224084
  Basis Set: (AUG-CC-PVTZ AUX)
    Blend: AUG-CC-PVTZ-RI
    Molecular point group: c1

    Geometry (in Angstrom), charge = 0, multiplicity = 1:

       Center              X                  Y                   Z               Mass
    ------------   -----------------  -----------------  -----------------  -----------------
         C           -0.092254143798     0.403967824165    -0.000000736971    12.000000000000
         H            0.001369856202     1.504101824165     0.000001263029     1.007825032230
         O           -1.148218143798    -0.180965175835     0.000000263029    15.994914619570
         O            1.100341856202    -0.244970175835     0.000000263029    15.994914619570
         H            1.856915856202     0.445825624165    -0.000000836971     1.007825032230

  Basis Set: AUG-CC-PVTZ
    Blend: AUG-CC-PVTZ
  Basis Set: (AUG-CC-PVTZ AUX)
    Blend: AUG-CC-PVTZ-JKFIT
	 Reference Energy          =    -188.8289689441224084 [Eh]
	 Singles Energy            =      -0.0000000000000000 [Eh]
	 Same-Spin Energy          =      -0.1738796707188443 [Eh]
	 Opposite-Spin Energy      =      -0.5210428030338671 [Eh]
	 Correlation Energy        =      -0.6949224737527113 [Eh]
	 Total Energy              =    -189.5238914178751202 [Eh]

	 ================> DF-SCS-MP2 Energies <==================
	-----------------------------------------------------------
	 SCS Same-Spin Scale       =       0.3333333333333333 [-]
	 SCS Opposite-Spin Scale   =       1.2000000000000000 [-]
	 SCS Same-Spin Energy      =      -0.0579598902396148 [Eh]
	 SCS Opposite-Spin Energy  =      -0.6252513636406405 [Eh]
	 SCS Correlation Energy    =      -0.6832112538802553 [Eh]
	 SCS Total Energy          =    -189.5121801980026532 [Eh]
	-----------------------------------------------------------

  Dipole Moment: [D]
     X:     2.8634      Y:     2.7532      Z:    -0.0000     Total:     3.9723

*** Psi4 exiting successfully. Buy a developer a beer!
