                               Psi4 1.3.2 release

  ==> Input File <==

--------------------------------------------------------------------------
#psi4
#
memory 32 gb

molecule  {
0 1
  C       -0.0151909     0.4425583     0.0000000
  H       -0.3773750     1.4537240     0.0000000
  O        1.1704280     0.1036740     0.0000000
  O       -1.0419470    -0.4368220     0.0000000
  H       -0.6504660    -1.3355670     0.0000000
units angstrom
no_reorient  #important for SAPT in psi4, default
symmetry c1  #important for SAPT in psi4, default
}

set PROPERTIES_ORIGIN ["COM"]
properties('MP2/aug-cc-pvtz', properties = ['dipole'])
--------------------------------------------------------------------------

    Molecular point group: c1
  Charge       = 0
  Multiplicity = 1
  Basis Set: AUG-CC-PVTZ
    Blend: AUG-CC-PVTZ
  Basis Set: (AUG-CC-PVTZ AUX)
    Blend: AUG-CC-PVTZ-JKFIT

    Orbital Energies [Eh]
    ---------------------

    Doubly Occupied:

       1A    -20.632833     2A    -20.568661     3A    -11.403851
       4A     -1.469421     5A     -1.362742     6A     -0.902348
       7A     -0.724549     8A     -0.711055     9A     -0.633066
      10A     -0.603563    11A     -0.490454    12A     -0.475296

  @DF-RHF Final Energy:  -188.83871748559270

   => Energetics <=

    Nuclear Repulsion Energy =             69.4015326028785893
    One-Electron Energy =                -396.5248187760201404
    Two-Electron Energy =                 138.2845686875488411
    Total Energy =                       -188.8387174855926958
  Basis Set: (AUG-CC-PVTZ AUX)
    Blend: AUG-CC-PVTZ-RI
    Molecular point group: c1

    Geometry (in Angstrom), charge = 0, multiplicity = 1:

       Center              X                  Y                   Z               Mass
    ------------   -----------------  -----------------  -----------------  -----------------
         C           -0.033381514443     0.440360575551     0.000000000000    12.000000000000
         H           -0.395565614443     1.451526275551     0.000000000000     1.007825032230
         O            1.152237385557     0.101476275551     0.000000000000    15.994914619570
         O           -1.060137614443    -0.439019724449     0.000000000000    15.994914619570
         H           -0.668656614443    -1.337764724449     0.000000000000     1.007825032230

  Basis Set: AUG-CC-PVTZ
    Blend: AUG-CC-PVTZ
  Basis Set: (AUG-CC-PVTZ AUX)
    Blend: AUG-CC-PVTZ-JKFIT
	 Reference Energy          =    -188.8387174855926958 [Eh]
	 Singles Energy            =      -0.0000000000000000 [Eh]
	 Same-Spin Energy          =      -0.1736358112026578 [Eh]
	 Opposite-Spin Energy      =      -0.5199211326818038 [Eh]
	 Correlation Energy        =      -0.6935569438844617 [Eh]
	 Total Energy              =    -189.5322744294771553 [Eh]

	 ================> DF-SCS-MP2 Energies <==================
	-----------------------------------------------------------
	 SCS Same-Spin Scale       =       0.3333333333333333 [-]
	 SCS Opposite-Spin Scale   =       1.2000000000000000 [-]
	 SCS Same-Spin Energy      =      -0.0578786037342193 [Eh]
	 SCS Opposite-Spin Energy  =      -0.6239053592181646 [Eh]
	 SCS Correlation Energy    =      -0.6817839629523839 [Eh]
	 SCS Total Energy          =    -189.5205014485450761 [Eh]
	-----------------------------------------------------------

  Dipole Moment: [D]
     X:    -1.5191      Y:    -0.1587      Z:    -0.0000     Total:     1.5273

*** Psi4 exiting successfully. Buy a developer a beer!
