                               Psi4 1.3.2 release

  ==> Input File <==

--------------------------------------------------------------------------
#psi4
#
memory 32 gb

molecule  {
0 1
  C        0.0000000     0.4245050     0.0000000
  H       -0.3773750     1.4537240     0.0000000
  O        1.1704280     0.1036740     0.0000000
  O       -1.0419470    -0.4368220     0.0000000
  H       -0.6504660    -1.3355670     0.0000000
units angstrom
no_reorient  #important for SAPT in psi4, default
symmetry c1  #important for SAPT in psi4, default
}

set PROPERTIES_ORIGIN ["COM"]
properties('MP2/aug-cc-pvtz', properties = ['dipole'])
--------------------------------------------------------------------------

    Molecular point group: c1
  Charge       = 0
  Multiplicity = 1
  Basis Set: AUG-CC-PVTZ
    Blend: AUG-CC-PVTZ
  Basis Set: (AUG-CC-PVTZ AUX)
    Blend: AUG-CC-PVTZ-JKFIT

    Orbital Energies [Eh]
    ---------------------

    Doubly Occupied:

       1A    -20.632078     2A    -20.570242     3A    -11.401907
       4A     -1.472825     5A     -1.373512     6A     -0.895545
       7A     -0.722519     8A     -0.712785     9A     -0.635783
      10A     -0.605909    11A     -0.496495    12A     -0.475679

  @DF-RHF Final Energy:  -188.84148102012875

   => Energetics <=

    Nuclear Repulsion Energy =             69.6832700805609306
    One-Electron Energy =                -397.0589402183337597
    Two-Electron Energy =                 138.5341891176440754
    Total Energy =                       -188.8414810201287537
  Basis Set: (AUG-CC-PVTZ AUX)
    Blend: AUG-CC-PVTZ-RI
    Molecular point group: c1

    Geometry (in Angstrom), charge = 0, multiplicity = 1:

       Center              X                  Y                   Z               Mass
    ------------   -----------------  -----------------  -----------------  -----------------
         C           -0.022152985942     0.427016271159     0.000000000000    12.000000000000
         H           -0.399527985942     1.456235271159     0.000000000000     1.007825032230
         O            1.148275014058     0.106185271159     0.000000000000    15.994914619570
         O           -1.064099985942    -0.434310728841     0.000000000000    15.994914619570
         H           -0.672618985942    -1.333055728841     0.000000000000     1.007825032230

  Basis Set: AUG-CC-PVTZ
    Blend: AUG-CC-PVTZ
  Basis Set: (AUG-CC-PVTZ AUX)
    Blend: AUG-CC-PVTZ-JKFIT
	 Reference Energy          =    -188.8414810201287537 [Eh]
	 Singles Energy            =      -0.0000000000000000 [Eh]
	 Same-Spin Energy          =      -0.1732825718165764 [Eh]
	 Opposite-Spin Energy      =      -0.5189404646032518 [Eh]
	 Correlation Energy        =      -0.6922230364198282 [Eh]
	 Total Energy              =    -189.5337040565485722 [Eh]

	 ================> DF-SCS-MP2 Energies <==================
	-----------------------------------------------------------
	 SCS Same-Spin Scale       =       0.3333333333333333 [-]
	 SCS Opposite-Spin Scale   =       1.2000000000000000 [-]
	 SCS Same-Spin Energy      =      -0.0577608572721921 [Eh]
	 SCS Opposite-Spin Energy  =      -0.6227285575239022 [Eh]
	 SCS Correlation Energy    =      -0.6804894147960944 [Eh]
	 SCS Total Energy          =    -189.5219704349248389 [Eh]
	-----------------------------------------------------------

  Dipole Moment: [D]
     X:    -1.4243      Y:    -0.2163      Z:    -0.0000     Total:     1.4407

*** Psi4 exiting successfully. Buy a developer a beer!
