                               Psi4 1.3.2 release

  ==> Input File <==

--------------------------------------------------------------------------
#psi4
#
memory 32 gb

molecule  {
0 1
  C       -0.0957411     0.5286997     0.0000000
  H       -0.3773750     1.4537240     0.0000000
  O        1.1704280     0.1036740     0.0000000
  O       -1.0419470    -0.4368220     0.0000000
  H       -0.6504660    -1.3355670     0.0000000
units angstrom
no_reorient  #important for SAPT in psi4, default
symmetry c1  #important for SAPT in psi4, default
}

set PROPERTIES_ORIGIN ["COM"]
properties('MP2/aug-cc-pvtz', properties = ['dipole'])
--------------------------------------------------------------------------

    Molecular point group: c1
  Charge       = 0
  Multiplicity = 1
  Basis Set: AUG-CC-PVTZ
    Blend: AUG-CC-PVTZ
  Basis Set: (AUG-CC-PVTZ AUX)
    Blend: AUG-CC-PVTZ-JKFIT

    Orbital Energies [Eh]
    ---------------------

    Doubly Occupied:

       1A    -20.638909     2A    -20.561640     3A    -11.414827
       4A     -1.461143     5A     -1.307050     6A     -0.940600
       7A     -0.753513     8A     -0.700070     9A     -0.625132
      10A     -0.582474    11A     -0.466196    12A     -0.460487

  @DF-RHF Final Energy:  -188.79567364820710

   => Energetics <=

    Nuclear Repulsion Energy =             68.0990080206837547
    One-Electron Energy =                -393.9652786525849706
    Two-Electron Energy =                 137.0705969836941165
    Total Energy =                       -188.7956736482070994
  Basis Set: (AUG-CC-PVTZ AUX)
    Blend: AUG-CC-PVTZ-RI
    Molecular point group: c1

    Geometry (in Angstrom), charge = 0, multiplicity = 1:

       Center              X                  Y                   Z               Mass
    ------------   -----------------  -----------------  -----------------  -----------------
         C           -0.092921121474     0.504032982387     0.000000000000    12.000000000000
         H           -0.374555021474     1.429057282387     0.000000000000     1.007825032230
         O            1.173247978526     0.079007282387     0.000000000000    15.994914619570
         O           -1.039127021474    -0.461488717613     0.000000000000    15.994914619570
         H           -0.647646021474    -1.360233717613     0.000000000000     1.007825032230

  Basis Set: AUG-CC-PVTZ
    Blend: AUG-CC-PVTZ
  Basis Set: (AUG-CC-PVTZ AUX)
    Blend: AUG-CC-PVTZ-JKFIT
	 Reference Energy          =    -188.7956736482070994 [Eh]
	 Singles Energy            =      -0.0000000000000000 [Eh]
	 Same-Spin Energy          =      -0.1759208177527856 [Eh]
	 Opposite-Spin Energy      =      -0.5262429231403247 [Eh]
	 Correlation Energy        =      -0.7021637408931103 [Eh]
	 Total Energy              =    -189.4978373891001979 [Eh]

	 ================> DF-SCS-MP2 Energies <==================
	-----------------------------------------------------------
	 SCS Same-Spin Scale       =       0.3333333333333333 [-]
	 SCS Opposite-Spin Scale   =       1.2000000000000000 [-]
	 SCS Same-Spin Energy      =      -0.0586402725842619 [Eh]
	 SCS Opposite-Spin Energy  =      -0.6314915077683897 [Eh]
	 SCS Correlation Energy    =      -0.6901317803526515 [Eh]
	 SCS Total Energy          =    -189.4858054285597575 [Eh]
	-----------------------------------------------------------

  Dipole Moment: [D]
     X:    -1.9277      Y:     0.0162      Z:    -0.0000     Total:     1.9278

*** Psi4 exiting successfully. Buy a developer a beer!
