                               Psi4 1.3.2 release

  ==> Input File <==

--------------------------------------------------------------------------
#psi4
#
memory 32 gb

molecule  {
0 1
  C        0.0000000     0.4245050     0.0000000
  H       -0.3773750     1.4537240     0.0000000
  O        1.1704280     0.1036740     0.0000000
  O       -1.1190218    -0.5005360     0.0000000
  H       -0.6504660    -1.3355670     0.0000000
units angstrom
no_reorient  #important for SAPT in psi4, default
symmetry c1  #important for SAPT in psi4, default
}

set PROPERTIES_ORIGIN ["COM"]
properties('MP2/aug-cc-pvtz', properties = ['dipole'])
--------------------------------------------------------------------------

    Molecular point group: c1
  Charge       = 0
  Multiplicity = 1
  Basis Set: AUG-CC-PVTZ
    Blend: AUG-CC-PVTZ
  Basis Set: (AUG-CC-PVTZ AUX)
    Blend: AUG-CC-PVTZ-JKFIT

    Orbital Energies [Eh]
    ---------------------

    Doubly Occupied:

       1A    -20.623319     2A    -20.589358     3A    -11.415797
       4A     -1.452350     5A     -1.373049     6A     -0.882297
       7A     -0.715684     8A     -0.702343     9A     -0.620421
      10A     -0.616726    11A     -0.505704    12A     -0.481169

  @DF-RHF Final Energy:  -188.82932556971701

   => Energetics <=

    Nuclear Repulsion Energy =             67.8370101859491257
    One-Electron Energy =                -393.3762367916617677
    Two-Electron Energy =                 136.7099010359956424
    Total Energy =                       -188.8293255697170139
  Basis Set: (AUG-CC-PVTZ AUX)
    Blend: AUG-CC-PVTZ-RI
    Molecular point group: c1

    Geometry (in Angstrom), charge = 0, multiplicity = 1:

       Center              X                  Y                   Z               Mass
    ------------   -----------------  -----------------  -----------------  -----------------
         C            0.004643927468     0.449167980162     0.000000000000    12.000000000000
         H           -0.372731072532     1.478386980162     0.000000000000     1.007825032230
         O            1.175071927468     0.128336980162     0.000000000000    15.994914619570
         O           -1.114377872532    -0.475873019838     0.000000000000    15.994914619570
         H           -0.645822072532    -1.310904019838     0.000000000000     1.007825032230

  Basis Set: AUG-CC-PVTZ
    Blend: AUG-CC-PVTZ
  Basis Set: (AUG-CC-PVTZ AUX)
    Blend: AUG-CC-PVTZ-JKFIT
	 Reference Energy          =    -188.8293255697170139 [Eh]
	 Singles Energy            =      -0.0000000000000000 [Eh]
	 Same-Spin Energy          =      -0.1741488955813891 [Eh]
	 Opposite-Spin Energy      =      -0.5225930735464605 [Eh]
	 Correlation Energy        =      -0.6967419691278496 [Eh]
	 Total Energy              =    -189.5260675388448703 [Eh]

	 ================> DF-SCS-MP2 Energies <==================
	-----------------------------------------------------------
	 SCS Same-Spin Scale       =       0.3333333333333333 [-]
	 SCS Opposite-Spin Scale   =       1.2000000000000000 [-]
	 SCS Same-Spin Energy      =      -0.0580496318604630 [Eh]
	 SCS Opposite-Spin Energy  =      -0.6271116882557525 [Eh]
	 SCS Correlation Energy    =      -0.6851613201162154 [Eh]
	 SCS Total Energy          =    -189.5144868898332220 [Eh]
	-----------------------------------------------------------

  Dipole Moment: [D]
     X:    -0.8747      Y:     0.1633      Z:     0.0000     Total:     0.8899

*** Psi4 exiting successfully. Buy a developer a beer!
