                               Psi4 1.3.2 release

  ==> Input File <==

--------------------------------------------------------------------------
#psi4
#
memory 32 gb

molecule  {
0 1
  C        0.0000000     0.4245050     0.0000000
  H       -0.3773750     1.4537240     0.0000000
  O        1.2668703     0.0772378     0.0000000
  O       -1.0419470    -0.4368220     0.0000000
  H       -0.6504660    -1.3355670     0.0000000
units angstrom
no_reorient  #important for SAPT in psi4, default
symmetry c1  #important for SAPT in psi4, default
}

set PROPERTIES_ORIGIN ["COM"]
properties('MP2/aug-cc-pvtz', properties = ['dipole'])
--------------------------------------------------------------------------

    Molecular point group: c1
  Charge       = 0
  Multiplicity = 1
  Basis Set: AUG-CC-PVTZ
    Blend: AUG-CC-PVTZ
  Basis Set: (AUG-CC-PVTZ AUX)
    Blend: AUG-CC-PVTZ-JKFIT

    Orbital Energies [Eh]
    ---------------------

    Doubly Occupied:

       1A    -20.648973     2A    -20.570652     3A    -11.423589
       4A     -1.468841     5A     -1.327519     6A     -0.910045
       7A     -0.716844     8A     -0.711757     9A     -0.632004
      10A     -0.591893    11A     -0.474884    12A     -0.471575

  @DF-RHF Final Energy:  -188.81637260357428

   => Energetics <=

    Nuclear Repulsion Energy =             67.4038423771363426
    One-Electron Energy =                -392.5432807158264268
    Two-Electron Energy =                 136.3230657351157902
    Total Energy =                       -188.8163726035742798
  Basis Set: (AUG-CC-PVTZ AUX)
    Blend: AUG-CC-PVTZ-RI
    Molecular point group: c1

    Geometry (in Angstrom), charge = 0, multiplicity = 1:

       Center              X                  Y                   Z               Mass
    ------------   -----------------  -----------------  -----------------  -----------------
         C           -0.055683477909     0.436207453781     0.000000000000    12.000000000000
         H           -0.433058477909     1.465426453781     0.000000000000     1.007825032230
         O            1.211186822091     0.088940253781     0.000000000000    15.994914619570
         O           -1.097630477909    -0.425119546219     0.000000000000    15.994914619570
         H           -0.706149477909    -1.323864546219     0.000000000000     1.007825032230

  Basis Set: AUG-CC-PVTZ
    Blend: AUG-CC-PVTZ
  Basis Set: (AUG-CC-PVTZ AUX)
    Blend: AUG-CC-PVTZ-JKFIT
	 Reference Energy          =    -188.8163726035742798 [Eh]
	 Singles Energy            =      -0.0000000000000000 [Eh]
	 Same-Spin Energy          =      -0.1759974602081917 [Eh]
	 Opposite-Spin Energy      =      -0.5258876166982904 [Eh]
	 Correlation Energy        =      -0.7018850769064822 [Eh]
	 Total Energy              =    -189.5182576804807582 [Eh]

	 ================> DF-SCS-MP2 Energies <==================
	-----------------------------------------------------------
	 SCS Same-Spin Scale       =       0.3333333333333333 [-]
	 SCS Opposite-Spin Scale   =       1.2000000000000000 [-]
	 SCS Same-Spin Energy      =      -0.0586658200693972 [Eh]
	 SCS Opposite-Spin Energy  =      -0.6310651400379484 [Eh]
	 SCS Correlation Energy    =      -0.6897309601073457 [Eh]
	 SCS Total Energy          =    -189.5061035636816200 [Eh]
	-----------------------------------------------------------

  Dipole Moment: [D]
     X:    -1.8948      Y:    -0.2250      Z:    -0.0000     Total:     1.9081

*** Psi4 exiting successfully. Buy a developer a beer!
