                               Psi4 1.3.2 release

  ==> Input File <==

--------------------------------------------------------------------------
#psi4
#
memory 32 gb

molecule  {
0 1
  C        0.0000000     0.4245050     0.0000000
  H       -0.3773750     1.4537240     0.0000000
  O        1.1899569     0.1861005     0.0000000
  O       -1.0419470    -0.4368220     0.0000000
  H       -0.6504660    -1.3355670     0.0000000
units angstrom
no_reorient  #important for SAPT in psi4, default
symmetry c1  #important for SAPT in psi4, default
}

set PROPERTIES_ORIGIN ["COM"]
properties('MP2/aug-cc-pvtz', properties = ['dipole'])
--------------------------------------------------------------------------

    Molecular point group: c1
  Charge       = 0
  Multiplicity = 1
  Basis Set: AUG-CC-PVTZ
    Blend: AUG-CC-PVTZ
  Basis Set: (AUG-CC-PVTZ AUX)
    Blend: AUG-CC-PVTZ-JKFIT

    Orbital Energies [Eh]
    ---------------------

    Doubly Occupied:

       1A    -20.637658     2A    -20.571188     3A    -11.401648
       4A     -1.472538     5A     -1.378463     6A     -0.895092
       7A     -0.722689     8A     -0.715587     9A     -0.637491
      10A     -0.606072    11A     -0.499271    12A     -0.473904

  @DF-RHF Final Energy:  -188.83996827019979

   => Energetics <=

    Nuclear Repulsion Energy =             69.4158455665252490
    One-Electron Energy =                -396.4884227106985009
    Two-Electron Energy =                 138.2326088739734473
    Total Energy =                       -188.8399682701997904
  Basis Set: (AUG-CC-PVTZ AUX)
    Blend: AUG-CC-PVTZ-RI
    Molecular point group: c1

    Geometry (in Angstrom), charge = 0, multiplicity = 1:

       Center              X                  Y                   Z               Mass
    ------------   -----------------  -----------------  -----------------  -----------------
         C           -0.028942679102     0.398358710150     0.000000000000    12.000000000000
         H           -0.406317679102     1.427577710150     0.000000000000     1.007825032230
         O            1.161014220898     0.159954210150     0.000000000000    15.994914619570
         O           -1.070889679102    -0.462968289850     0.000000000000    15.994914619570
         H           -0.679408679102    -1.361713289850     0.000000000000     1.007825032230

  Basis Set: AUG-CC-PVTZ
    Blend: AUG-CC-PVTZ
  Basis Set: (AUG-CC-PVTZ AUX)
    Blend: AUG-CC-PVTZ-JKFIT
	 Reference Energy          =    -188.8399682701997904 [Eh]
	 Singles Energy            =      -0.0000000000000000 [Eh]
	 Same-Spin Energy          =      -0.1733750494799892 [Eh]
	 Opposite-Spin Energy      =      -0.5192693713512559 [Eh]
	 Correlation Energy        =      -0.6926444208312452 [Eh]
	 Total Energy              =    -189.5326126910310336 [Eh]

	 ================> DF-SCS-MP2 Energies <==================
	-----------------------------------------------------------
	 SCS Same-Spin Scale       =       0.3333333333333333 [-]
	 SCS Opposite-Spin Scale   =       1.2000000000000000 [-]
	 SCS Same-Spin Energy      =      -0.0577916831599964 [Eh]
	 SCS Opposite-Spin Energy  =      -0.6231232456215071 [Eh]
	 SCS Correlation Energy    =      -0.6809149287815035 [Eh]
	 SCS Total Energy          =    -189.5208831989812950 [Eh]
	-----------------------------------------------------------

  Dipole Moment: [D]
     X:    -1.4625      Y:    -0.4322      Z:     0.0000     Total:     1.5250

*** Psi4 exiting successfully. Buy a developer a beer!
