                               Psi4 1.3.2 release

  ==> Input File <==

--------------------------------------------------------------------------
#psi4
#
memory 32 gb

molecule  {
0 1
  C        0.0000000     0.4245050     0.0000000
  H       -0.4462251     1.6414996     0.0000000
  O        1.1704280     0.1036740     0.0000000
  O       -1.0419470    -0.4368220     0.0000000
  H       -0.6504660    -1.3355670     0.0000000
units angstrom
no_reorient  #important for SAPT in psi4, default
symmetry c1  #important for SAPT in psi4, default
}

set PROPERTIES_ORIGIN ["COM"]
properties('MP2/aug-cc-pvtz', properties = ['dipole'])
--------------------------------------------------------------------------

    Molecular point group: c1
  Charge       = 0
  Multiplicity = 1
  Basis Set: AUG-CC-PVTZ
    Blend: AUG-CC-PVTZ
  Basis Set: (AUG-CC-PVTZ AUX)
    Blend: AUG-CC-PVTZ-JKFIT

    Orbital Energies [Eh]
    ---------------------

    Doubly Occupied:

       1A    -20.636389     2A    -20.575126     3A    -11.421177
       4A     -1.475173     5A     -1.377075     6A     -0.871681
       7A     -0.718632     8A     -0.698650     9A     -0.638536
      10A     -0.592786    11A     -0.500234    12A     -0.467717

  @DF-RHF Final Energy:  -188.82010118669405

   => Energetics <=

    Nuclear Repulsion Energy =             68.9065772501560758
    One-Electron Energy =                -395.5070065455186068
    Two-Electron Energy =                 137.7803281086684706
    Total Energy =                       -188.8201011866940462
  Basis Set: (AUG-CC-PVTZ AUX)
    Blend: AUG-CC-PVTZ-RI
    Molecular point group: c1

    Geometry (in Angstrom), charge = 0, multiplicity = 1:

       Center              X                  Y                   Z               Mass
    ------------   -----------------  -----------------  -----------------  -----------------
         C           -0.020644712248     0.422902740489     0.000000000000    12.000000000000
         H           -0.466869812248     1.639897340489     0.000000000000     1.007825032230
         O            1.149783287752     0.102071740489     0.000000000000    15.994914619570
         O           -1.062591712248    -0.438424259511     0.000000000000    15.994914619570
         H           -0.671110712248    -1.337169259511     0.000000000000     1.007825032230

  Basis Set: AUG-CC-PVTZ
    Blend: AUG-CC-PVTZ
  Basis Set: (AUG-CC-PVTZ AUX)
    Blend: AUG-CC-PVTZ-JKFIT
	 Reference Energy          =    -188.8201011866940462 [Eh]
	 Singles Energy            =      -0.0000000000000000 [Eh]
	 Same-Spin Energy          =      -0.1739870593414463 [Eh]
	 Opposite-Spin Energy      =      -0.5208971283335817 [Eh]
	 Correlation Energy        =      -0.6948841876750280 [Eh]
	 Total Energy              =    -189.5149853743690755 [Eh]

	 ================> DF-SCS-MP2 Energies <==================
	-----------------------------------------------------------
	 SCS Same-Spin Scale       =       0.3333333333333333 [-]
	 SCS Opposite-Spin Scale   =       1.2000000000000000 [-]
	 SCS Same-Spin Energy      =      -0.0579956864471488 [Eh]
	 SCS Opposite-Spin Energy  =      -0.6250765540002980 [Eh]
	 SCS Correlation Energy    =      -0.6830722404474469 [Eh]
	 SCS Total Energy          =    -189.5031734271414905 [Eh]
	-----------------------------------------------------------

  Dipole Moment: [D]
     X:    -1.3575      Y:    -0.3399      Z:    -0.0000     Total:     1.3994

*** Psi4 exiting successfully. Buy a developer a beer!
