                               Psi4 1.3.2 release

  ==> Input File <==

--------------------------------------------------------------------------
#psi4
#
memory 32 gb

molecule  {
0 1
  C        0.0000000     0.4245050     0.0000000
  H       -0.3773750     1.4537240     0.0000000
  O        1.1451969     0.0228106     0.0000000
  O       -1.0419470    -0.4368220     0.0000000
  H       -0.6504660    -1.3355670     0.0000000
units angstrom
no_reorient  #important for SAPT in psi4, default
symmetry c1  #important for SAPT in psi4, default
}

set PROPERTIES_ORIGIN ["COM"]
properties('MP2/aug-cc-pvtz', properties = ['dipole'])
--------------------------------------------------------------------------

    Molecular point group: c1
  Charge       = 0
  Multiplicity = 1
  Basis Set: AUG-CC-PVTZ
    Blend: AUG-CC-PVTZ
  Basis Set: (AUG-CC-PVTZ AUX)
    Blend: AUG-CC-PVTZ-JKFIT

    Orbital Energies [Eh]
    ---------------------

    Doubly Occupied:

       1A    -20.626124     2A    -20.569119     3A    -11.402258
       4A     -1.473584     5A     -1.367924     6A     -0.896066
       7A     -0.722404     8A     -0.709543     9A     -0.634154
      10A     -0.605950    11A     -0.493392    12A     -0.476085

  @DF-RHF Final Energy:  -188.84053870467349

   => Energetics <=

    Nuclear Repulsion Energy =             69.9873565423711170
    One-Electron Energy =                -397.7025854228820663
    Two-Electron Energy =                 138.8746901758374577
    Total Energy =                       -188.8405387046734916
  Basis Set: (AUG-CC-PVTZ AUX)
    Blend: AUG-CC-PVTZ-RI
    Molecular point group: c1

    Geometry (in Angstrom), charge = 0, multiplicity = 1:

       Center              X                  Y                   Z               Mass
    ------------   -----------------  -----------------  -----------------  -----------------
         C           -0.013380785405     0.455130382748     0.000000000000    12.000000000000
         H           -0.390755785405     1.484349382748     0.000000000000     1.007825032230
         O            1.131816114595     0.053435982748     0.000000000000    15.994914619570
         O           -1.055327785405    -0.406196617252     0.000000000000    15.994914619570
         H           -0.663846785405    -1.304941617252     0.000000000000     1.007825032230

  Basis Set: AUG-CC-PVTZ
    Blend: AUG-CC-PVTZ
  Basis Set: (AUG-CC-PVTZ AUX)
    Blend: AUG-CC-PVTZ-JKFIT
	 Reference Energy          =    -188.8405387046734916 [Eh]
	 Singles Energy            =      -0.0000000000000000 [Eh]
	 Same-Spin Energy          =      -0.1732638814806963 [Eh]
	 Opposite-Spin Energy      =      -0.5187670504918890 [Eh]
	 Correlation Energy        =      -0.6920309319725853 [Eh]
	 Total Energy              =    -189.5325696366460875 [Eh]

	 ================> DF-SCS-MP2 Energies <==================
	-----------------------------------------------------------
	 SCS Same-Spin Scale       =       0.3333333333333333 [-]
	 SCS Opposite-Spin Scale   =       1.2000000000000000 [-]
	 SCS Same-Spin Energy      =      -0.0577546271602321 [Eh]
	 SCS Opposite-Spin Energy  =      -0.6225204605902668 [Eh]
	 SCS Correlation Energy    =      -0.6802750877504988 [Eh]
	 SCS Total Energy          =    -189.5208137924239793 [Eh]
	-----------------------------------------------------------

  Dipole Moment: [D]
     X:    -1.3706      Y:    -0.0017      Z:     0.0000     Total:     1.3706

*** Psi4 exiting successfully. Buy a developer a beer!
