                               Psi4 1.3.2 release

  ==> Input File <==

--------------------------------------------------------------------------
#psi4
#
memory 32 gb

molecule  {
0 1
  C        0.0000000     0.4245050     0.0000000
  H       -0.3952799     1.4469811     0.0000000
  O        1.1704280     0.1036740     0.0000000
  O       -1.0419470    -0.4368220     0.0000000
  H       -0.6504660    -1.3355670     0.0000000
units angstrom
no_reorient  #important for SAPT in psi4, default
symmetry c1  #important for SAPT in psi4, default
}

set PROPERTIES_ORIGIN ["COM"]
properties('MP2/aug-cc-pvtz', properties = ['dipole'])
--------------------------------------------------------------------------

    Molecular point group: c1
  Charge       = 0
  Multiplicity = 1
  Basis Set: AUG-CC-PVTZ
    Blend: AUG-CC-PVTZ
  Basis Set: (AUG-CC-PVTZ AUX)
    Blend: AUG-CC-PVTZ-JKFIT

    Orbital Energies [Eh]
    ---------------------

    Doubly Occupied:

       1A    -20.631716     2A    -20.570734     3A    -11.402105
       4A     -1.472850     5A     -1.373612     6A     -0.896240
       7A     -0.721971     8A     -0.712270     9A     -0.635737
      10A     -0.606132    11A     -0.496642    12A     -0.476032

  @DF-RHF Final Energy:  -188.84130184894610

   => Energetics <=

    Nuclear Repulsion Energy =             69.6877041134476229
    One-Electron Energy =                -397.0659270048042799
    Two-Electron Energy =                 138.5369210424105404
    Total Energy =                       -188.8413018489461024
  Basis Set: (AUG-CC-PVTZ AUX)
    Blend: AUG-CC-PVTZ-RI
    Molecular point group: c1

    Geometry (in Angstrom), charge = 0, multiplicity = 1:

       Center              X                  Y                   Z               Mass
    ------------   -----------------  -----------------  -----------------  -----------------
         C           -0.021760749915     0.427163985378     0.000000000000    12.000000000000
         H           -0.417040649915     1.449640085378     0.000000000000     1.007825032230
         O            1.148667250085     0.106332985378     0.000000000000    15.994914619570
         O           -1.063707749915    -0.434163014622     0.000000000000    15.994914619570
         H           -0.672226749915    -1.332908014622     0.000000000000     1.007825032230

  Basis Set: AUG-CC-PVTZ
    Blend: AUG-CC-PVTZ
  Basis Set: (AUG-CC-PVTZ AUX)
    Blend: AUG-CC-PVTZ-JKFIT
	 Reference Energy          =    -188.8413018489461024 [Eh]
	 Singles Energy            =      -0.0000000000000000 [Eh]
	 Same-Spin Energy          =      -0.1733249574246788 [Eh]
	 Opposite-Spin Energy      =      -0.5190195322941646 [Eh]
	 Correlation Energy        =      -0.6923444897188434 [Eh]
	 Total Energy              =    -189.5336463386649370 [Eh]

	 ================> DF-SCS-MP2 Energies <==================
	-----------------------------------------------------------
	 SCS Same-Spin Scale       =       0.3333333333333333 [-]
	 SCS Opposite-Spin Scale   =       1.2000000000000000 [-]
	 SCS Same-Spin Energy      =      -0.0577749858082263 [Eh]
	 SCS Opposite-Spin Energy  =      -0.6228234387529975 [Eh]
	 SCS Correlation Energy    =      -0.6805984245612238 [Eh]
	 SCS Total Energy          =    -189.5219002735073275 [Eh]
	-----------------------------------------------------------

  Dipole Moment: [D]
     X:    -1.4274      Y:    -0.2204      Z:     0.0000     Total:     1.4443

*** Psi4 exiting successfully. Buy a developer a beer!
