                               Psi4 1.3.2 release

  ==> Input File <==

--------------------------------------------------------------------------
#psi4
#
memory 32 gb

molecule  {
0 1
  C        0.0000000     0.4245050     0.0000000
  H       -0.3593552     1.4601533     0.0000000
  O        1.1704280     0.1036740     0.0000000
  O       -1.0419470    -0.4368220     0.0000000
  H       -0.6504660    -1.3355670     0.0000000
units angstrom
no_reorient  #important for SAPT in psi4, default
symmetry c1  #important for SAPT in psi4, default
}

set PROPERTIES_ORIGIN ["COM"]
properties('MP2/aug-cc-pvtz', properties = ['dipole'])
--------------------------------------------------------------------------

    Molecular point group: c1
  Charge       = 0
  Multiplicity = 1
  Basis Set: AUG-CC-PVTZ
    Blend: AUG-CC-PVTZ
  Basis Set: (AUG-CC-PVTZ AUX)
    Blend: AUG-CC-PVTZ-JKFIT

    Orbital Energies [Eh]
    ---------------------

    Doubly Occupied:

       1A    -20.632442     2A    -20.569751     3A    -11.401709
       4A     -1.472810     5A     -1.373422     6A     -0.894852
       7A     -0.723178     8A     -0.713192     9A     -0.635836
      10A     -0.605658    11A     -0.496352    12A     -0.475303

  @DF-RHF Final Energy:  -188.84156090398636

   => Energetics <=

    Nuclear Repulsion Energy =             69.6794048346755091
    One-Electron Energy =                -397.0529199572829384
    Two-Electron Energy =                 138.5319542186210811
    Total Energy =                       -188.8415609039863625
  Basis Set: (AUG-CC-PVTZ AUX)
    Blend: AUG-CC-PVTZ-RI
    Molecular point group: c1

    Geometry (in Angstrom), charge = 0, multiplicity = 1:

       Center              X                  Y                   Z               Mass
    ------------   -----------------  -----------------  -----------------  -----------------
         C           -0.022547739041     0.426875426860     0.000000000000    12.000000000000
         H           -0.381902939041     1.462523726860     0.000000000000     1.007825032230
         O            1.147880260959     0.106044426860     0.000000000000    15.994914619570
         O           -1.064494739041    -0.434451573140     0.000000000000    15.994914619570
         H           -0.673013739041    -1.333196573140     0.000000000000     1.007825032230

  Basis Set: AUG-CC-PVTZ
    Blend: AUG-CC-PVTZ
  Basis Set: (AUG-CC-PVTZ AUX)
    Blend: AUG-CC-PVTZ-JKFIT
	 Reference Energy          =    -188.8415609039863625 [Eh]
	 Singles Energy            =      -0.0000000000000000 [Eh]
	 Same-Spin Energy          =      -0.1732442185810229 [Eh]
	 Opposite-Spin Energy      =      -0.5188686960033362 [Eh]
	 Correlation Energy        =      -0.6921129145843591 [Eh]
	 Total Energy              =    -189.5336738185707190 [Eh]

	 ================> DF-SCS-MP2 Energies <==================
	-----------------------------------------------------------
	 SCS Same-Spin Scale       =       0.3333333333333333 [-]
	 SCS Opposite-Spin Scale   =       1.2000000000000000 [-]
	 SCS Same-Spin Energy      =      -0.0577480728603410 [Eh]
	 SCS Opposite-Spin Energy  =      -0.6226424352040034 [Eh]
	 SCS Correlation Energy    =      -0.6803905080643444 [Eh]
	 SCS Total Energy          =    -189.5219514120506972 [Eh]
	-----------------------------------------------------------

  Dipole Moment: [D]
     X:    -1.4211      Y:    -0.2124      Z:    -0.0000     Total:     1.4369

*** Psi4 exiting successfully. Buy a developer a beer!
