                               Psi4 1.3.2 release

  ==> Input File <==

--------------------------------------------------------------------------
#psi4
#
memory 32 gb

molecule  {
0 1
  C        0.0000000     0.4245050     0.0000000
  H       -0.2677250     1.4875323     0.0000000
  O        1.1704280     0.1036740     0.0000000
  O       -1.0419470    -0.4368220     0.0000000
  H       -0.6504660    -1.3355670     0.0000000
units angstrom
no_reorient  #important for SAPT in psi4, default
symmetry c1  #important for SAPT in psi4, default
}

set PROPERTIES_ORIGIN ["COM"]
properties('MP2/aug-cc-pvtz', properties = ['dipole'])
--------------------------------------------------------------------------

    Molecular point group: c1
  Charge       = 0
  Multiplicity = 1
  Basis Set: AUG-CC-PVTZ
    Blend: AUG-CC-PVTZ
  Basis Set: (AUG-CC-PVTZ AUX)
    Blend: AUG-CC-PVTZ-JKFIT

    Orbital Energies [Eh]
    ---------------------

    Doubly Occupied:

       1A    -20.634277     2A    -20.567329     3A    -11.400708
       4A     -1.472870     5A     -1.373141     6A     -0.891418
       7A     -0.727620     8A     -0.714076     9A     -0.636180
      10A     -0.604013    11A     -0.495705    12A     -0.473082

  @DF-RHF Final Energy:  -188.84048707327719

   => Energetics <=

    Nuclear Repulsion Energy =             69.6685192212478768
    One-Electron Energy =                -397.0371729822462612
    Two-Electron Energy =                 138.5281666877211819
    Total Energy =                       -188.8404870732771883
  Basis Set: (AUG-CC-PVTZ AUX)
    Blend: AUG-CC-PVTZ-RI
    Molecular point group: c1

    Geometry (in Angstrom), charge = 0, multiplicity = 1:

       Center              X                  Y                   Z               Mass
    ------------   -----------------  -----------------  -----------------  -----------------
         C           -0.024555047968     0.426275645226     0.000000000000    12.000000000000
         H           -0.292280047968     1.489302945226     0.000000000000     1.007825032230
         O            1.145872952032     0.105444645226     0.000000000000    15.994914619570
         O           -1.066502047968    -0.435051354774     0.000000000000    15.994914619570
         H           -0.675021047968    -1.333796354774     0.000000000000     1.007825032230

  Basis Set: AUG-CC-PVTZ
    Blend: AUG-CC-PVTZ
  Basis Set: (AUG-CC-PVTZ AUX)
    Blend: AUG-CC-PVTZ-JKFIT
	 Reference Energy          =    -188.8404870732771883 [Eh]
	 Singles Energy            =      -0.0000000000000000 [Eh]
	 Same-Spin Energy          =      -0.1731137293746907 [Eh]
	 Opposite-Spin Energy      =      -0.5186230747233398 [Eh]
	 Correlation Energy        =      -0.6917368040980305 [Eh]
	 Total Energy              =    -189.5322238773752304 [Eh]

	 ================> DF-SCS-MP2 Energies <==================
	-----------------------------------------------------------
	 SCS Same-Spin Scale       =       0.3333333333333333 [-]
	 SCS Opposite-Spin Scale   =       1.2000000000000000 [-]
	 SCS Same-Spin Energy      =      -0.0577045764582302 [Eh]
	 SCS Opposite-Spin Energy  =      -0.6223476896680077 [Eh]
	 SCS Correlation Energy    =      -0.6800522661262379 [Eh]
	 SCS Total Energy          =    -189.5205393394034274 [Eh]
	-----------------------------------------------------------

  Dipole Moment: [D]
     X:    -1.4020      Y:    -0.1956      Z:     0.0000     Total:     1.4156

*** Psi4 exiting successfully. Buy a developer a beer!
