                               Psi4 1.4a3.dev225

  ==> Input File <==

--------------------------------------------------------------------------
#psi4
#
memory 32 gb

molecule  {
0 1
  C       -0.1291220     0.3651120    -0.0000010
  H       -0.0354980     1.4652460     0.0000010
  O       -1.1850860    -0.2198210     0.0000000
  O        1.0810416    -0.2933852     0.0000000
  H        1.7831240     0.3732560    -0.0000010
units angstrom
no_reorient  #important for SAPT in psi4, default
symmetry c1  #important for SAPT in psi4, default
}

set PROPERTIES_ORIGIN ["COM"]
properties('MP2/aug-cc-pvtz', properties = ['dipole'])
--------------------------------------------------------------------------

    Molecular point group: c1
  Charge       = 0
  Multiplicity = 1
  Basis Set: AUG-CC-PVTZ
    Blend: AUG-CC-PVTZ
  Basis Set: (AUG-CC-PVTZ AUX)
    Blend: AUG-CC-PVTZ-JKFIT

    Orbital Energies [Eh]
    ---------------------

    Doubly Occupied:

       1A    -20.631088     2A    -20.569635     3A    -11.404333
       4A     -1.462627     5A     -1.376934     6A     -0.868406
       7A     -0.787699     8A     -0.669420     9A     -0.629119
      10A     -0.604933    11A     -0.495161    12A     -0.472055

  @DF-RHF Final Energy:  -188.83287599969992

   => Energetics <=

    Nuclear Repulsion Energy =             69.0798745412214004
    One-Electron Energy =                -395.8826845463339055
    Two-Electron Energy =                 137.9699340054125969
    Total Energy =                       -188.8328759996999224
  Basis Set: (AUG-CC-PVTZ AUX)
    Blend: AUG-CC-PVTZ-RI
    Molecular point group: c1

    Geometry (in Angstrom), charge = 0, multiplicity = 1:

       Center              X                  Y                   Z               Mass
    ------------   -----------------  -----------------  -----------------  -----------------
         C           -0.097553063281     0.408029866387    -0.000000739162    12.000000000000
         H           -0.003929063281     1.508163866387     0.000001260838     1.007825032230
         O           -1.153517063281    -0.176903133613     0.000000260838    15.994914619570
         O            1.112610536719    -0.250467333613     0.000000260838    15.994914619570
         H            1.814692936719     0.416173866387    -0.000000739162     1.007825032230

  Basis Set: AUG-CC-PVTZ
    Blend: AUG-CC-PVTZ
  Basis Set: (AUG-CC-PVTZ AUX)
    Blend: AUG-CC-PVTZ-JKFIT
	 Reference Energy          =    -188.8328759996999224 [Eh]
	 Singles Energy            =      -0.0000000000000000 [Eh]
	 Same-Spin Energy          =      -0.1733952313966272 [Eh]
	 Opposite-Spin Energy      =      -0.5200985301838542 [Eh]
	 Correlation Energy        =      -0.6934937615804814 [Eh]
	 Total Energy              =    -189.5263697612803924 [Eh]

	 ================> DF-SCS-MP2 Energies <==================
	-----------------------------------------------------------
	 SCS Same-Spin Scale       =       0.3333333333333333 [-]
	 SCS Opposite-Spin Scale   =       1.2000000000000000 [-]
	 SCS Same-Spin Energy      =      -0.0577984104655424 [Eh]
	 SCS Opposite-Spin Energy  =      -0.6241182362206250 [Eh]
	 SCS Correlation Energy    =      -0.6819166466861674 [Eh]
	 SCS Total Energy          =    -189.5147926463860983 [Eh]
	-----------------------------------------------------------

  Dipole Moment: [D]
     X:     2.6722      Y:     2.7615      Z:    -0.0000     Total:     3.8427

*** Psi4 exiting successfully. Buy a developer a beer!
