                               Psi4 1.3.2 release

  ==> Input File <==

--------------------------------------------------------------------------
#psi4
#
memory 32 gb

molecule  {
0 1
  C        0.0000000     0.4245050     0.0000000
  H       -0.4828904     1.4086394     0.0000000
  O        1.1704280     0.1036740     0.0000000
  O       -1.0419470    -0.4368220     0.0000000
  H       -0.6504660    -1.3355670     0.0000000
units angstrom
no_reorient  #important for SAPT in psi4, default
symmetry c1  #important for SAPT in psi4, default
}

set PROPERTIES_ORIGIN ["COM"]
properties('MP2/aug-cc-pvtz', properties = ['dipole'])
--------------------------------------------------------------------------

    Molecular point group: c1
  Charge       = 0
  Multiplicity = 1
  Basis Set: AUG-CC-PVTZ
    Blend: AUG-CC-PVTZ
  Basis Set: (AUG-CC-PVTZ AUX)
    Blend: AUG-CC-PVTZ-JKFIT

    Orbital Energies [Eh]
    ---------------------

    Doubly Occupied:

       1A    -20.629962     2A    -20.573191     3A    -11.403068
       4A     -1.473139     5A     -1.374263     6A     -0.899768
       7A     -0.720830     8A     -0.708166     9A     -0.635609
      10A     -0.606784    11A     -0.497435    12A     -0.477448

  @DF-RHF Final Energy:  -188.83889690976963

   => Energetics <=

    Nuclear Repulsion Energy =             69.7185339248990346
    One-Electron Energy =                -397.1155341657615168
    Two-Electron Energy =                 138.5581033310928660
    Total Energy =                       -188.8388969097696304
  Basis Set: (AUG-CC-PVTZ AUX)
    Blend: AUG-CC-PVTZ-RI
    Molecular point group: c1

    Geometry (in Angstrom), charge = 0, multiplicity = 1:

       Center              X                  Y                   Z               Mass
    ------------   -----------------  -----------------  -----------------  -----------------
         C           -0.019841499071     0.428003922829     0.000000000000    12.000000000000
         H           -0.502731899071     1.412138322829     0.000000000000     1.007825032230
         O            1.150586500929     0.107172922829     0.000000000000    15.994914619570
         O           -1.061788499071    -0.433323077171     0.000000000000    15.994914619570
         H           -0.670307499071    -1.332068077171     0.000000000000     1.007825032230

  Basis Set: AUG-CC-PVTZ
    Blend: AUG-CC-PVTZ
  Basis Set: (AUG-CC-PVTZ AUX)
    Blend: AUG-CC-PVTZ-JKFIT
	 Reference Energy          =    -188.8388969097696304 [Eh]
	 Singles Energy            =      -0.0000000000000000 [Eh]
	 Same-Spin Energy          =      -0.1735973541611855 [Eh]
	 Opposite-Spin Energy      =      -0.5195193326357765 [Eh]
	 Correlation Energy        =      -0.6931166867969620 [Eh]
	 Total Energy              =    -189.5320135965665997 [Eh]

	 ================> DF-SCS-MP2 Energies <==================
	-----------------------------------------------------------
	 SCS Same-Spin Scale       =       0.3333333333333333 [-]
	 SCS Opposite-Spin Scale   =       1.2000000000000000 [-]
	 SCS Same-Spin Energy      =      -0.0578657847203952 [Eh]
	 SCS Opposite-Spin Energy  =      -0.6234231991629319 [Eh]
	 SCS Correlation Energy    =      -0.6812889838833270 [Eh]
	 SCS Total Energy          =    -189.5201858936529504 [Eh]
	-----------------------------------------------------------

  Dipole Moment: [D]
     X:    -1.4411      Y:    -0.2440      Z:    -0.0000     Total:     1.4616

*** Psi4 exiting successfully. Buy a developer a beer!
