                               Psi4 1.3.2 release

  ==> Input File <==

--------------------------------------------------------------------------
#psi4
#
memory 32 gb

molecule  {
0 1
  C        0.0843253     0.3108734     0.0000000
  H       -0.3773750     1.4537240     0.0000000
  O        1.1704280     0.1036740     0.0000000
  O       -1.0419470    -0.4368220     0.0000000
  H       -0.6504660    -1.3355670     0.0000000
units angstrom
no_reorient  #important for SAPT in psi4, default
symmetry c1  #important for SAPT in psi4, default
}

set PROPERTIES_ORIGIN ["COM"]
properties('MP2/aug-cc-pvtz', properties = ['dipole'])
--------------------------------------------------------------------------

    Molecular point group: c1
  Charge       = 0
  Multiplicity = 1
  Basis Set: AUG-CC-PVTZ
    Blend: AUG-CC-PVTZ
  Basis Set: (AUG-CC-PVTZ AUX)
    Blend: AUG-CC-PVTZ-JKFIT

    Orbital Energies [Eh]
    ---------------------

    Doubly Occupied:

       1A    -20.632075     2A    -20.583238     3A    -11.394574
       4A     -1.517024     5A     -1.422611     6A     -0.861527
       7A     -0.740808     8A     -0.722450     9A     -0.663477
      10A     -0.614808    11A     -0.530421    12A     -0.458307

  @DF-RHF Final Energy:  -188.81571441958519

   => Energetics <=

    Nuclear Repulsion Energy =             71.4744913183978525
    One-Electron Energy =                -400.2977694434078444
    Two-Electron Energy =                 140.0075637054248148
    Total Energy =                       -188.8157144195851913
  Basis Set: (AUG-CC-PVTZ AUX)
    Blend: AUG-CC-PVTZ-RI
    Molecular point group: c1

    Geometry (in Angstrom), charge = 0, multiplicity = 1:

       Center              X                  Y                   Z               Mass
    ------------   -----------------  -----------------  -----------------  -----------------
         C            0.040177029685     0.343024166729     0.000000000000    12.000000000000
         H           -0.421523270315     1.485874766729     0.000000000000     1.007825032230
         O            1.126279729685     0.135824766729     0.000000000000    15.994914619570
         O           -1.086095270315    -0.404671233271     0.000000000000    15.994914619570
         H           -0.694614270315    -1.303416233271     0.000000000000     1.007825032230

  Basis Set: AUG-CC-PVTZ
    Blend: AUG-CC-PVTZ
  Basis Set: (AUG-CC-PVTZ AUX)
    Blend: AUG-CC-PVTZ-JKFIT
	 Reference Energy          =    -188.8157144195851913 [Eh]
	 Singles Energy            =      -0.0000000000000000 [Eh]
	 Same-Spin Energy          =      -0.1718805503971312 [Eh]
	 Opposite-Spin Energy      =      -0.5151696314716283 [Eh]
	 Correlation Energy        =      -0.6870501818687595 [Eh]
	 Total Energy              =    -189.5027646014539471 [Eh]

	 ================> DF-SCS-MP2 Energies <==================
	-----------------------------------------------------------
	 SCS Same-Spin Scale       =       0.3333333333333333 [-]
	 SCS Opposite-Spin Scale   =       1.2000000000000000 [-]
	 SCS Same-Spin Energy      =      -0.0572935167990437 [Eh]
	 SCS Opposite-Spin Energy  =      -0.6182035577659539 [Eh]
	 SCS Correlation Energy    =      -0.6754970745649976 [Eh]
	 SCS Total Energy          =    -189.4912114941501784 [Eh]
	-----------------------------------------------------------

  Dipole Moment: [D]
     X:    -0.7823      Y:    -0.7517      Z:    -0.0000     Total:     1.0849

*** Psi4 exiting successfully. Buy a developer a beer!
