                               Psi4 1.3.2 release

  ==> Input File <==

--------------------------------------------------------------------------
#psi4
#
memory 32 gb

molecule  {
0 1
  C       -0.0626213     0.4950894     0.0000000
  H       -0.3773750     1.4537240     0.0000000
  O        1.1704280     0.1036740     0.0000000
  O       -1.0419470    -0.4368220     0.0000000
  H       -0.6504660    -1.3355670     0.0000000
units angstrom
no_reorient  #important for SAPT in psi4, default
symmetry c1  #important for SAPT in psi4, default
}

set PROPERTIES_ORIGIN ["COM"]
properties('MP2/aug-cc-pvtz', properties = ['dipole'])
--------------------------------------------------------------------------

    Molecular point group: c1
  Charge       = 0
  Multiplicity = 1
  Basis Set: AUG-CC-PVTZ
    Blend: AUG-CC-PVTZ
  Basis Set: (AUG-CC-PVTZ AUX)
    Blend: AUG-CC-PVTZ-JKFIT

    Orbital Energies [Eh]
    ---------------------

    Doubly Occupied:

       1A    -20.636063     2A    -20.564369     3A    -11.410271
       4A     -1.463165     5A     -1.329191     6A     -0.924510
       7A     -0.739583     8A     -0.704221     9A     -0.627339
      10A     -0.592694    11A     -0.472298    12A     -0.470872

  @DF-RHF Final Energy:  -188.81865725201160

   => Energetics <=

    Nuclear Repulsion Energy =             68.5973816682909785
    One-Electron Energy =                -394.9629292111534369
    Two-Electron Energy =                 137.5468902908508824
    Total Energy =                       -188.8186572520116044
  Basis Set: (AUG-CC-PVTZ AUX)
    Blend: AUG-CC-PVTZ-RI
    Molecular point group: c1

    Geometry (in Angstrom), charge = 0, multiplicity = 1:

       Center              X                  Y                   Z               Mass
    ------------   -----------------  -----------------  -----------------  -----------------
         C           -0.068440240273     0.479189542467     0.000000000000    12.000000000000
         H           -0.383193940273     1.437824142467     0.000000000000     1.007825032230
         O            1.164609059727     0.087774142467     0.000000000000    15.994914619570
         O           -1.047765940273    -0.452721857533     0.000000000000    15.994914619570
         H           -0.656284940273    -1.351466857533     0.000000000000     1.007825032230

  Basis Set: AUG-CC-PVTZ
    Blend: AUG-CC-PVTZ
  Basis Set: (AUG-CC-PVTZ AUX)
    Blend: AUG-CC-PVTZ-JKFIT
	 Reference Energy          =    -188.8186572520116044 [Eh]
	 Singles Energy            =      -0.0000000000000000 [Eh]
	 Same-Spin Energy          =      -0.1749078210515212 [Eh]
	 Opposite-Spin Energy      =      -0.5234496241676112 [Eh]
	 Correlation Energy        =      -0.6983574452191323 [Eh]
	 Total Energy              =    -189.5170146972307350 [Eh]

	 ================> DF-SCS-MP2 Energies <==================
	-----------------------------------------------------------
	 SCS Same-Spin Scale       =       0.3333333333333333 [-]
	 SCS Opposite-Spin Scale   =       1.2000000000000000 [-]
	 SCS Same-Spin Energy      =      -0.0583026070171737 [Eh]
	 SCS Opposite-Spin Energy  =      -0.6281395490011334 [Eh]
	 SCS Correlation Energy    =      -0.6864421560183072 [Eh]
	 SCS Total Energy          =    -189.5050994080299063 [Eh]
	-----------------------------------------------------------

  Dipole Moment: [D]
     X:    -1.7778      Y:    -0.0327      Z:    -0.0000     Total:     1.7781

*** Psi4 exiting successfully. Buy a developer a beer!
