                               Psi4 1.3.2 release

  ==> Input File <==

--------------------------------------------------------------------------
#psi4
#
memory 32 gb

molecule  {
0 1
  C        0.0000000     0.4245050     0.0000000
  H       -0.3773750     1.4537240     0.0000000
  O        1.1704280     0.1036740     0.0000000
  O       -0.8877974    -0.3093940     0.0000000
  H       -0.6504660    -1.3355670     0.0000000
units angstrom
no_reorient  #important for SAPT in psi4, default
symmetry c1  #important for SAPT in psi4, default
}

set PROPERTIES_ORIGIN ["COM"]
properties('MP2/aug-cc-pvtz', properties = ['dipole'])
--------------------------------------------------------------------------

    Molecular point group: c1
  Charge       = 0
  Multiplicity = 1
  Basis Set: AUG-CC-PVTZ
    Blend: AUG-CC-PVTZ
  Basis Set: (AUG-CC-PVTZ AUX)
    Blend: AUG-CC-PVTZ-JKFIT

    Orbital Energies [Eh]
    ---------------------

    Doubly Occupied:

       1A    -20.649664     2A    -20.525423     3A    -11.369174
       4A     -1.563456     5A     -1.352767     6A     -0.931948
       7A     -0.770448     8A     -0.699118     9A     -0.697358
      10A     -0.563526    11A     -0.469291    12A     -0.452392

  @DF-RHF Final Energy:  -188.80078493956555

   => Energetics <=

    Nuclear Repulsion Energy =             74.1025718809476217
    One-Electron Energy =                -405.7175847522691470
    Two-Electron Energy =                 142.8142279317559939
    Total Energy =                       -188.8007849395655455
  Basis Set: (AUG-CC-PVTZ AUX)
    Blend: AUG-CC-PVTZ-RI
    Molecular point group: c1

    Geometry (in Angstrom), charge = 0, multiplicity = 1:

       Center              X                  Y                   Z               Mass
    ------------   -----------------  -----------------  -----------------  -----------------
         C           -0.075746812764     0.382712853154     0.000000000000    12.000000000000
         H           -0.453121812764     1.411931853154     0.000000000000     1.007825032230
         O            1.094681187236     0.061881853154     0.000000000000    15.994914619570
         O           -0.963544212764    -0.351186146846     0.000000000000    15.994914619570
         H           -0.726212812764    -1.377359146846     0.000000000000     1.007825032230

  Basis Set: AUG-CC-PVTZ
    Blend: AUG-CC-PVTZ
  Basis Set: (AUG-CC-PVTZ AUX)
    Blend: AUG-CC-PVTZ-JKFIT
	 Reference Energy          =    -188.8007849395655455 [Eh]
	 Singles Energy            =      -0.0000000000000000 [Eh]
	 Same-Spin Energy          =      -0.1726998873668099 [Eh]
	 Opposite-Spin Energy      =      -0.5136724536771393 [Eh]
	 Correlation Energy        =      -0.6863723410439493 [Eh]
	 Total Energy              =    -189.4871572806094946 [Eh]

	 ================> DF-SCS-MP2 Energies <==================
	-----------------------------------------------------------
	 SCS Same-Spin Scale       =       0.3333333333333333 [-]
	 SCS Opposite-Spin Scale   =       1.2000000000000000 [-]
	 SCS Same-Spin Energy      =      -0.0575666291222700 [Eh]
	 SCS Opposite-Spin Energy  =      -0.6164069444125672 [Eh]
	 SCS Correlation Energy    =      -0.6739735735348371 [Eh]
	 SCS Total Energy          =    -189.4747585131003689 [Eh]
	-----------------------------------------------------------

  Dipole Moment: [D]
     X:    -2.6434      Y:    -0.9421      Z:    -0.0000     Total:     2.8062

*** Psi4 exiting successfully. Buy a developer a beer!
