                               Psi4 1.3.2 release

  ==> Input File <==

--------------------------------------------------------------------------
#psi4
#
memory 32 gb

molecule  {
0 1
  C        0.0000000     0.4245050     0.0000000
  H       -0.3773750     1.4537240     0.0000000
  O        1.1975522     0.2277746     0.0000000
  O       -1.0419470    -0.4368220     0.0000000
  H       -0.6504660    -1.3355670     0.0000000
units angstrom
no_reorient  #important for SAPT in psi4, default
symmetry c1  #important for SAPT in psi4, default
}

set PROPERTIES_ORIGIN ["COM"]
properties('MP2/aug-cc-pvtz', properties = ['dipole'])
--------------------------------------------------------------------------

    Molecular point group: c1
  Charge       = 0
  Multiplicity = 1
  Basis Set: AUG-CC-PVTZ
    Blend: AUG-CC-PVTZ
  Basis Set: (AUG-CC-PVTZ AUX)
    Blend: AUG-CC-PVTZ-JKFIT

    Orbital Energies [Eh]
    ---------------------

    Doubly Occupied:

       1A    -20.640315     2A    -20.571603     3A    -11.401551
       4A     -1.472546     5A     -1.380728     6A     -0.894880
       7A     -0.722805     8A     -0.716837     9A     -0.638364
      10A     -0.606200    11A     -0.500552    12A     -0.472524

  @DF-RHF Final Energy:  -188.83832430845646

   => Energetics <=

    Nuclear Repulsion Energy =             69.2951869099899511
    One-Electron Energy =                -396.2292132860029596
    Two-Electron Energy =                 138.0957020675565161
    Total Energy =                       -188.8383243084564640
  Basis Set: (AUG-CC-PVTZ AUX)
    Blend: AUG-CC-PVTZ-RI
    Molecular point group: c1

    Geometry (in Angstrom), charge = 0, multiplicity = 1:

       Center              X                  Y                   Z               Mass
    ------------   -----------------  -----------------  -----------------  -----------------
         C           -0.031583368360     0.383869704027     0.000000000000    12.000000000000
         H           -0.408958368360     1.413088704027     0.000000000000     1.007825032230
         O            1.165968831640     0.187139304027     0.000000000000    15.994914619570
         O           -1.073530368360    -0.477457295973     0.000000000000    15.994914619570
         H           -0.682049368360    -1.376202295973     0.000000000000     1.007825032230

  Basis Set: AUG-CC-PVTZ
    Blend: AUG-CC-PVTZ
  Basis Set: (AUG-CC-PVTZ AUX)
    Blend: AUG-CC-PVTZ-JKFIT
	 Reference Energy          =    -188.8383243084564640 [Eh]
	 Singles Energy            =      -0.0000000000000000 [Eh]
	 Same-Spin Energy          =      -0.1734478562368961 [Eh]
	 Opposite-Spin Energy      =      -0.5194903982389051 [Eh]
	 Correlation Energy        =      -0.6929382544758012 [Eh]
	 Total Energy              =    -189.5312625629322554 [Eh]

	 ================> DF-SCS-MP2 Energies <==================
	-----------------------------------------------------------
	 SCS Same-Spin Scale       =       0.3333333333333333 [-]
	 SCS Opposite-Spin Scale   =       1.2000000000000000 [-]
	 SCS Same-Spin Energy      =      -0.0578159520789654 [Eh]
	 SCS Opposite-Spin Energy  =      -0.6233884778866861 [Eh]
	 SCS Correlation Energy    =      -0.6812044299656514 [Eh]
	 SCS Total Energy          =    -189.5195287384221103 [Eh]
	-----------------------------------------------------------

  Dipole Moment: [D]
     X:    -1.4757      Y:    -0.5401      Z:     0.0000     Total:     1.5714

*** Psi4 exiting successfully. Buy a developer a beer!
