                               Psi4 1.3.2 release

  ==> Input File <==

--------------------------------------------------------------------------
#psi4
#
memory 32 gb

molecule  {
0 1
  C        0.0000000     0.4245050     0.0000000
  H       -0.3773750     1.4537240     0.0000000
  O        1.1704280     0.1036740     0.0000000
  O       -1.0419470    -0.4368220     0.0000000
  H       -0.5705969    -1.5189271     0.0000000
units angstrom
no_reorient  #important for SAPT in psi4, default
symmetry c1  #important for SAPT in psi4, default
}

set PROPERTIES_ORIGIN ["COM"]
properties('MP2/aug-cc-pvtz', properties = ['dipole'])
--------------------------------------------------------------------------

    Molecular point group: c1
  Charge       = 0
  Multiplicity = 1
  Basis Set: AUG-CC-PVTZ
    Blend: AUG-CC-PVTZ
  Basis Set: (AUG-CC-PVTZ AUX)
    Blend: AUG-CC-PVTZ-JKFIT

    Orbital Energies [Eh]
    ---------------------

    Doubly Occupied:

       1A    -20.640518     2A    -20.566471     3A    -11.398219
       4A     -1.451923     5A     -1.356684     6A     -0.866203
       7A     -0.715782     8A     -0.688103     9A     -0.628484
      10A     -0.582392    11A     -0.490730    12A     -0.471908

  @DF-RHF Final Energy:  -188.80692179800403

   => Energetics <=

    Nuclear Repulsion Energy =             68.7706823405861201
    One-Electron Energy =                -395.4403740503046834
    Two-Electron Energy =                 137.8627699117145369
    Total Energy =                       -188.8069217980040264
  Basis Set: (AUG-CC-PVTZ AUX)
    Blend: AUG-CC-PVTZ-RI
    Molecular point group: c1

    Geometry (in Angstrom), charge = 0, multiplicity = 1:

       Center              X                  Y                   Z               Mass
    ------------   -----------------  -----------------  -----------------  -----------------
         C           -0.023902648798     0.431033073103     0.000000000000    12.000000000000
         H           -0.401277648798     1.460252073103     0.000000000000     1.007825032230
         O            1.146525351202     0.110202073103     0.000000000000    15.994914619570
         O           -1.065849648798    -0.430293926897     0.000000000000    15.994914619570
         H           -0.594499548798    -1.512399026897     0.000000000000     1.007825032230

  Basis Set: AUG-CC-PVTZ
    Blend: AUG-CC-PVTZ
  Basis Set: (AUG-CC-PVTZ AUX)
    Blend: AUG-CC-PVTZ-JKFIT
	 Reference Energy          =    -188.8069217980040264 [Eh]
	 Singles Energy            =      -0.0000000000000000 [Eh]
	 Same-Spin Energy          =      -0.1757052458859767 [Eh]
	 Opposite-Spin Energy      =      -0.5252051819488576 [Eh]
	 Correlation Energy        =      -0.7009104278348343 [Eh]
	 Total Energy              =    -189.5078322258388539 [Eh]

	 ================> DF-SCS-MP2 Energies <==================
	-----------------------------------------------------------
	 SCS Same-Spin Scale       =       0.3333333333333333 [-]
	 SCS Opposite-Spin Scale   =       1.2000000000000000 [-]
	 SCS Same-Spin Energy      =      -0.0585684152953256 [Eh]
	 SCS Opposite-Spin Energy  =      -0.6302462183386290 [Eh]
	 SCS Correlation Energy    =      -0.6888146336339546 [Eh]
	 SCS Total Energy          =    -189.4957364316379937 [Eh]
	-----------------------------------------------------------

  Dipole Moment: [D]
     X:    -1.3787      Y:    -0.4501      Z:    -0.0000     Total:     1.4503

*** Psi4 exiting successfully. Buy a developer a beer!
