                               Psi4 1.3.2 release

  ==> Input File <==

--------------------------------------------------------------------------
#psi4
#
memory 32 gb

molecule  {
0 1
  C        0.0575450     0.3497243     0.0000000
  H       -0.3773750     1.4537240     0.0000000
  O        1.1704280     0.1036740     0.0000000
  O       -1.0419470    -0.4368220     0.0000000
  H       -0.6504660    -1.3355670     0.0000000
units angstrom
no_reorient  #important for SAPT in psi4, default
symmetry c1  #important for SAPT in psi4, default
}

set PROPERTIES_ORIGIN ["COM"]
properties('MP2/aug-cc-pvtz', properties = ['dipole'])
--------------------------------------------------------------------------

    Molecular point group: c1
  Charge       = 0
  Multiplicity = 1
  Basis Set: AUG-CC-PVTZ
    Blend: AUG-CC-PVTZ
  Basis Set: (AUG-CC-PVTZ AUX)
    Blend: AUG-CC-PVTZ-JKFIT

    Orbital Energies [Eh]
    ---------------------

    Doubly Occupied:

       1A    -20.631084     2A    -20.578041     3A    -11.395941
       4A     -1.497262     5A     -1.409842     6A     -0.871508
       7A     -0.732141     8A     -0.716497     9A     -0.651855
      10A     -0.611484    11A     -0.519714    12A     -0.468421

  @DF-RHF Final Energy:  -188.83241184719645

   => Energetics <=

    Nuclear Repulsion Energy =             70.8636119449692217
    One-Electron Energy =                -399.2244677778708706
    Two-Electron Energy =                 139.5284439857051666
    Total Energy =                       -188.8324118471964539
  Basis Set: (AUG-CC-PVTZ AUX)
    Blend: AUG-CC-PVTZ-RI
    Molecular point group: c1

    Geometry (in Angstrom), charge = 0, multiplicity = 1:

       Center              X                  Y                   Z               Mass
    ------------   -----------------  -----------------  -----------------  -----------------
         C            0.020382062842     0.371741256430     0.000000000000    12.000000000000
         H           -0.414537937158     1.475740956430     0.000000000000     1.007825032230
         O            1.133265062842     0.125690956430     0.000000000000    15.994914619570
         O           -1.079109937158    -0.414805043570     0.000000000000    15.994914619570
         H           -0.687628937158    -1.313550043570     0.000000000000     1.007825032230

  Basis Set: AUG-CC-PVTZ
    Blend: AUG-CC-PVTZ
  Basis Set: (AUG-CC-PVTZ AUX)
    Blend: AUG-CC-PVTZ-JKFIT
	 Reference Energy          =    -188.8324118471964539 [Eh]
	 Singles Energy            =      -0.0000000000000000 [Eh]
	 Same-Spin Energy          =      -0.1722195400458951 [Eh]
	 Opposite-Spin Energy      =      -0.5160360100536517 [Eh]
	 Correlation Energy        =      -0.6882555500995469 [Eh]
	 Total Energy              =    -189.5206673972959948 [Eh]

	 ================> DF-SCS-MP2 Energies <==================
	-----------------------------------------------------------
	 SCS Same-Spin Scale       =       0.3333333333333333 [-]
	 SCS Opposite-Spin Scale   =       1.2000000000000000 [-]
	 SCS Same-Spin Energy      =      -0.0574065133486317 [Eh]
	 SCS Opposite-Spin Energy  =      -0.6192432120643820 [Eh]
	 SCS Correlation Energy    =      -0.6766497254130137 [Eh]
	 SCS Total Energy          =    -189.5090615726094541 [Eh]
	-----------------------------------------------------------

  Dipole Moment: [D]
     X:    -1.0085      Y:    -0.5348      Z:     0.0000     Total:     1.1415

*** Psi4 exiting successfully. Buy a developer a beer!
