                               Psi4 1.3.2 release

  ==> Input File <==

--------------------------------------------------------------------------
#psi4
#
memory 32 gb

molecule  {
0 1
  C       -0.0306946     0.4603437     0.0000000
  H       -0.3773750     1.4537240     0.0000000
  O        1.1704280     0.1036740     0.0000000
  O       -1.0419470    -0.4368220     0.0000000
  H       -0.6504660    -1.3355670     0.0000000
units angstrom
no_reorient  #important for SAPT in psi4, default
symmetry c1  #important for SAPT in psi4, default
}

set PROPERTIES_ORIGIN ["COM"]
properties('MP2/aug-cc-pvtz', properties = ['dipole'])
--------------------------------------------------------------------------

    Molecular point group: c1
  Charge       = 0
  Multiplicity = 1
  Basis Set: AUG-CC-PVTZ
    Blend: AUG-CC-PVTZ
  Basis Set: (AUG-CC-PVTZ AUX)
    Blend: AUG-CC-PVTZ-JKFIT

    Orbital Energies [Eh]
    ---------------------

    Doubly Occupied:

       1A    -20.633757     2A    -20.567172     3A    -11.405910
       4A     -1.466771     5A     -1.351662     6A     -0.909451
       7A     -0.728410     8A     -0.708822     9A     -0.630782
      10A     -0.600584    11A     -0.484384    12A     -0.474290

  @DF-RHF Final Energy:  -188.83397827802628

   => Energetics <=

    Nuclear Repulsion Energy =             69.1263521611699332
    One-Electron Energy =                -395.9966692007292295
    Two-Electron Energy =                 138.0363387615329884
    Total Energy =                       -188.8339782780262794
  Basis Set: (AUG-CC-PVTZ AUX)
    Blend: AUG-CC-PVTZ-RI
    Molecular point group: c1

    Geometry (in Angstrom), charge = 0, multiplicity = 1:

       Center              X                  Y                   Z               Mass
    ------------   -----------------  -----------------  -----------------  -----------------
         C           -0.044841252663     0.453506858576     0.000000000000    12.000000000000
         H           -0.391521652663     1.446887158576     0.000000000000     1.007825032230
         O            1.156281347337     0.096837158576     0.000000000000    15.994914619570
         O           -1.056093652663    -0.443658841424     0.000000000000    15.994914619570
         H           -0.664612652663    -1.342403841424     0.000000000000     1.007825032230

  Basis Set: AUG-CC-PVTZ
    Blend: AUG-CC-PVTZ
  Basis Set: (AUG-CC-PVTZ AUX)
    Blend: AUG-CC-PVTZ-JKFIT
	 Reference Energy          =    -188.8339782780262794 [Eh]
	 Singles Energy            =      -0.0000000000000000 [Eh]
	 Same-Spin Energy          =      -0.1740248375025970 [Eh]
	 Opposite-Spin Energy      =      -0.5210018681854021 [Eh]
	 Correlation Energy        =      -0.6950267056879991 [Eh]
	 Total Energy              =    -189.5290049837142874 [Eh]

	 ================> DF-SCS-MP2 Energies <==================
	-----------------------------------------------------------
	 SCS Same-Spin Scale       =       0.3333333333333333 [-]
	 SCS Opposite-Spin Scale   =       1.2000000000000000 [-]
	 SCS Same-Spin Energy      =      -0.0580082791675323 [Eh]
	 SCS Opposite-Spin Energy  =      -0.6252022418224824 [Eh]
	 SCS Correlation Energy    =      -0.6832105209900148 [Eh]
	 SCS Total Energy          =    -189.5171887990162816 [Eh]
	-----------------------------------------------------------

  Dipole Moment: [D]
     X:    -1.6097      Y:    -0.1092      Z:     0.0000     Total:     1.6134

*** Psi4 exiting successfully. Buy a developer a beer!
