                               Psi4 1.4a3.dev225

  ==> Input File <==

--------------------------------------------------------------------------
#psi4
#
memory 32 gb

molecule  {
0 1
  C       -0.1291220     0.3651120    -0.0000010
  H       -0.0354980     1.4652460     0.0000010
  O       -1.2025812    -0.2295122     0.0000000
  O        1.0634740    -0.2838260     0.0000000
  H        1.7831240     0.3732560    -0.0000010
units angstrom
no_reorient  #important for SAPT in psi4, default
symmetry c1  #important for SAPT in psi4, default
}

set PROPERTIES_ORIGIN ["COM"]
properties('MP2/aug-cc-pvtz', properties = ['dipole'])
--------------------------------------------------------------------------

    Molecular point group: c1
  Charge       = 0
  Multiplicity = 1
  Basis Set: AUG-CC-PVTZ
    Blend: AUG-CC-PVTZ
  Basis Set: (AUG-CC-PVTZ AUX)
    Blend: AUG-CC-PVTZ-JKFIT

    Orbital Energies [Eh]
    ---------------------

    Doubly Occupied:

       1A    -20.636425     2A    -20.566125     3A    -11.406188
       4A     -1.466018     5A     -1.367196     6A     -0.873617
       7A     -0.791376     8A     -0.665966     9A     -0.632180
      10A     -0.600688    11A     -0.488445    12A     -0.470039

  @DF-RHF Final Energy:  -188.83075271954968

   => Energetics <=

    Nuclear Repulsion Energy =             68.9745008327584230
    One-Electron Energy =                -395.6819798823523797
    Two-Electron Energy =                 137.8767263300443062
    Total Energy =                       -188.8307527195496789
  Basis Set: (AUG-CC-PVTZ AUX)
    Blend: AUG-CC-PVTZ-RI
    Molecular point group: c1

    Geometry (in Angstrom), charge = 0, multiplicity = 1:

       Center              X                  Y                   Z               Mass
    ------------   -----------------  -----------------  -----------------  -----------------
         C           -0.085362635079     0.408075759371    -0.000000739162    12.000000000000
         H            0.008261364921     1.508209759371     0.000001260838     1.007825032230
         O           -1.158821835079    -0.186548440629     0.000000260838    15.994914619570
         O            1.107233364921    -0.240862240629     0.000000260838    15.994914619570
         H            1.826883364921     0.416219759371    -0.000000739162     1.007825032230

  Basis Set: AUG-CC-PVTZ
    Blend: AUG-CC-PVTZ
  Basis Set: (AUG-CC-PVTZ AUX)
    Blend: AUG-CC-PVTZ-JKFIT
	 Reference Energy          =    -188.8307527195496789 [Eh]
	 Singles Energy            =      -0.0000000000000000 [Eh]
	 Same-Spin Energy          =      -0.1738217956367585 [Eh]
	 Opposite-Spin Energy      =      -0.5209037421651258 [Eh]
	 Correlation Energy        =      -0.6947255378018843 [Eh]
	 Total Energy              =    -189.5254782573515513 [Eh]

	 ================> DF-SCS-MP2 Energies <==================
	-----------------------------------------------------------
	 SCS Same-Spin Scale       =       0.3333333333333333 [-]
	 SCS Opposite-Spin Scale   =       1.2000000000000000 [-]
	 SCS Same-Spin Energy      =      -0.0579405985455862 [Eh]
	 SCS Opposite-Spin Energy  =      -0.6250844905981510 [Eh]
	 SCS Correlation Energy    =      -0.6830250891437372 [Eh]
	 SCS Total Energy          =    -189.5137778086934190 [Eh]
	-----------------------------------------------------------

  Dipole Moment: [D]
     X:     2.9055      Y:     2.7552      Z:    -0.0000     Total:     4.0041

*** Psi4 exiting successfully. Buy a developer a beer!
