                               Psi4 1.3.2 release

  ==> Input File <==

--------------------------------------------------------------------------
#psi4
#
memory 32 gb

molecule  {
0 1
  C        0.0294252     0.3876169     0.0000000
  H       -0.3773750     1.4537240     0.0000000
  O        1.1704280     0.1036740     0.0000000
  O       -1.0419470    -0.4368220     0.0000000
  H       -0.6504660    -1.3355670     0.0000000
units angstrom
no_reorient  #important for SAPT in psi4, default
symmetry c1  #important for SAPT in psi4, default
}

set PROPERTIES_ORIGIN ["COM"]
properties('MP2/aug-cc-pvtz', properties = ['dipole'])
--------------------------------------------------------------------------

    Molecular point group: c1
  Charge       = 0
  Multiplicity = 1
  Basis Set: AUG-CC-PVTZ
    Blend: AUG-CC-PVTZ
  Basis Set: (AUG-CC-PVTZ AUX)
    Blend: AUG-CC-PVTZ-JKFIT

    Orbital Energies [Eh]
    ---------------------

    Doubly Occupied:

       1A    -20.631140     2A    -20.573789     3A    -11.398491
       4A     -1.482584     5A     -1.393362     6A     -0.882874
       7A     -0.725135     8A     -0.713938     9A     -0.642698
      10A     -0.609088    11A     -0.508354    12A     -0.474047

  @DF-RHF Final Energy:  -188.84100013197900

   => Energetics <=

    Nuclear Repulsion Energy =             70.2641719491958980
    One-Electron Energy =                -398.1393466719150069
    Two-Electron Energy =                 139.0341745907401219
    Total Energy =                       -188.8410001319790013
  Basis Set: (AUG-CC-PVTZ AUX)
    Blend: AUG-CC-PVTZ-RI
    Molecular point group: c1

    Geometry (in Angstrom), charge = 0, multiplicity = 1:

       Center              X                  Y                   Z               Mass
    ------------   -----------------  -----------------  -----------------  -----------------
         C           -0.000403010836     0.399750007660     0.000000000000    12.000000000000
         H           -0.407203210836     1.465857107660     0.000000000000     1.007825032230
         O            1.140599789164     0.115807107660     0.000000000000    15.994914619570
         O           -1.071775210836    -0.424688892340     0.000000000000    15.994914619570
         H           -0.680294210836    -1.323433892340     0.000000000000     1.007825032230

  Basis Set: AUG-CC-PVTZ
    Blend: AUG-CC-PVTZ
  Basis Set: (AUG-CC-PVTZ AUX)
    Blend: AUG-CC-PVTZ-JKFIT
	 Reference Energy          =    -188.8410001319790013 [Eh]
	 Singles Energy            =      -0.0000000000000000 [Eh]
	 Same-Spin Energy          =      -0.1726827725871853 [Eh]
	 Opposite-Spin Energy      =      -0.5172854883614530 [Eh]
	 Correlation Energy        =      -0.6899682609486384 [Eh]
	 Total Energy              =    -189.5309683929276332 [Eh]

	 ================> DF-SCS-MP2 Energies <==================
	-----------------------------------------------------------
	 SCS Same-Spin Scale       =       0.3333333333333333 [-]
	 SCS Opposite-Spin Scale   =       1.2000000000000000 [-]
	 SCS Same-Spin Energy      =      -0.0575609241957284 [Eh]
	 SCS Opposite-Spin Energy  =      -0.6207425860337437 [Eh]
	 SCS Correlation Energy    =      -0.6783035102294721 [Eh]
	 SCS Total Energy          =    -189.5193036422084845 [Eh]
	-----------------------------------------------------------

  Dipole Moment: [D]
     X:    -1.2233      Y:    -0.3572      Z:     0.0000     Total:     1.2744

*** Psi4 exiting successfully. Buy a developer a beer!
