                               Psi4 1.3.2 release

  ==> Input File <==

--------------------------------------------------------------------------
#psi4
#
memory 32 gb

molecule  {
0 1
  C        0.0000000     0.4245050     0.0000000
  H       -0.3085249     1.2659484     0.0000000
  O        1.1704280     0.1036740     0.0000000
  O       -1.0419470    -0.4368220     0.0000000
  H       -0.6504660    -1.3355670     0.0000000
units angstrom
no_reorient  #important for SAPT in psi4, default
symmetry c1  #important for SAPT in psi4, default
}

set PROPERTIES_ORIGIN ["COM"]
properties('MP2/aug-cc-pvtz', properties = ['dipole'])
--------------------------------------------------------------------------

    Molecular point group: c1
  Charge       = 0
  Multiplicity = 1
  Basis Set: AUG-CC-PVTZ
    Blend: AUG-CC-PVTZ
  Basis Set: (AUG-CC-PVTZ AUX)
    Blend: AUG-CC-PVTZ-JKFIT

    Orbital Energies [Eh]
    ---------------------

    Doubly Occupied:

       1A    -20.629312     2A    -20.567864     3A    -11.380386
       4A     -1.472663     5A     -1.371482     6A     -0.944355
       7A     -0.744255     8A     -0.712648     9A     -0.634496
      10A     -0.615033    11A     -0.494264    12A     -0.480375

  @DF-RHF Final Energy:  -188.80803213782639

   => Energetics <=

    Nuclear Repulsion Energy =             70.7027473741921995
    One-Electron Energy =                -398.9272913295208696
    Two-Electron Energy =                 139.4165118175022826
    Total Energy =                       -188.8080321378263875
  Basis Set: (AUG-CC-PVTZ AUX)
    Blend: AUG-CC-PVTZ-RI
    Molecular point group: c1

    Geometry (in Angstrom), charge = 0, multiplicity = 1:

       Center              X                  Y                   Z               Mass
    ------------   -----------------  -----------------  -----------------  -----------------
         C           -0.023661259637     0.431129801830     0.000000000000    12.000000000000
         H           -0.332186159637     1.272573201830     0.000000000000     1.007825032230
         O            1.146766740363     0.110298801830     0.000000000000    15.994914619570
         O           -1.065608259637    -0.430197198170     0.000000000000    15.994914619570
         H           -0.674127259637    -1.328942198170     0.000000000000     1.007825032230

  Basis Set: AUG-CC-PVTZ
    Blend: AUG-CC-PVTZ
  Basis Set: (AUG-CC-PVTZ AUX)
    Blend: AUG-CC-PVTZ-JKFIT
	 Reference Energy          =    -188.8080321378263875 [Eh]
	 Singles Energy            =      -0.0000000000000000 [Eh]
	 Same-Spin Energy          =      -0.1730265969900373 [Eh]
	 Opposite-Spin Energy      =      -0.5188760004932267 [Eh]
	 Correlation Energy        =      -0.6919025974832640 [Eh]
	 Total Energy              =    -189.4999347353096653 [Eh]

	 ================> DF-SCS-MP2 Energies <==================
	-----------------------------------------------------------
	 SCS Same-Spin Scale       =       0.3333333333333333 [-]
	 SCS Opposite-Spin Scale   =       1.2000000000000000 [-]
	 SCS Same-Spin Energy      =      -0.0576755323300124 [Eh]
	 SCS Opposite-Spin Energy  =      -0.6226512005918720 [Eh]
	 SCS Correlation Energy    =      -0.6803267329218844 [Eh]
	 SCS Total Energy          =    -189.4883588707482716 [Eh]
	-----------------------------------------------------------

  Dipole Moment: [D]
     X:    -1.4526      Y:    -0.1748      Z:     0.0000     Total:     1.4630

*** Psi4 exiting successfully. Buy a developer a beer!
