                               Psi4 1.3.2 release

  ==> Input File <==

--------------------------------------------------------------------------
#psi4
#
memory 32 gb

molecule  {
0 1
  C        0.0000000     0.4245050     0.0000000
  H       -0.3773750     1.4537240     0.0000000
  O        1.1704280     0.1036740     0.0000000
  O       -1.1960966    -0.5642500     0.0000000
  H       -0.6504660    -1.3355670     0.0000000
units angstrom
no_reorient  #important for SAPT in psi4, default
symmetry c1  #important for SAPT in psi4, default
}

set PROPERTIES_ORIGIN ["COM"]
properties('MP2/aug-cc-pvtz', properties = ['dipole'])
--------------------------------------------------------------------------

    Molecular point group: c1
  Charge       = 0
  Multiplicity = 1
  Basis Set: AUG-CC-PVTZ
    Blend: AUG-CC-PVTZ
  Basis Set: (AUG-CC-PVTZ AUX)
    Blend: AUG-CC-PVTZ-JKFIT

    Orbital Energies [Eh]
    ---------------------

    Doubly Occupied:

       1A    -20.615276     2A    -20.606514     3A    -11.428059
       4A     -1.447525     5A     -1.362361     6A     -0.875112
       7A     -0.716163     8A     -0.683812     9A     -0.630995
      10A     -0.604973    11A     -0.510698    12A     -0.481870

  @DF-RHF Final Energy:  -188.80805986124986

   => Energetics <=

    Nuclear Repulsion Energy =             66.1576482196208389
    One-Electron Energy =                -390.0047009103396931
    Two-Electron Energy =                 135.0389928294689810
    Total Energy =                       -188.8080598612498591
  Basis Set: (AUG-CC-PVTZ AUX)
    Blend: AUG-CC-PVTZ-RI
    Molecular point group: c1

    Geometry (in Angstrom), charge = 0, multiplicity = 1:

       Center              X                  Y                   Z               Mass
    ------------   -----------------  -----------------  -----------------  -----------------
         C            0.031440840879     0.471319689165     0.000000000000    12.000000000000
         H           -0.345934159121     1.500538689165     0.000000000000     1.007825032230
         O            1.201868840879     0.150488689165     0.000000000000    15.994914619570
         O           -1.164655759121    -0.517435310835     0.000000000000    15.994914619570
         H           -0.619025159121    -1.288752310835     0.000000000000     1.007825032230

  Basis Set: AUG-CC-PVTZ
    Blend: AUG-CC-PVTZ
  Basis Set: (AUG-CC-PVTZ AUX)
    Blend: AUG-CC-PVTZ-JKFIT
	 Reference Energy          =    -188.8080598612498591 [Eh]
	 Singles Energy            =      -0.0000000000000000 [Eh]
	 Same-Spin Energy          =      -0.1753886773868690 [Eh]
	 Opposite-Spin Energy      =      -0.5269929216687751 [Eh]
	 Correlation Energy        =      -0.7023815990556441 [Eh]
	 Total Energy              =    -189.5104414603055147 [Eh]

	 ================> DF-SCS-MP2 Energies <==================
	-----------------------------------------------------------
	 SCS Same-Spin Scale       =       0.3333333333333333 [-]
	 SCS Opposite-Spin Scale   =       1.2000000000000000 [-]
	 SCS Same-Spin Energy      =      -0.0584628924622897 [Eh]
	 SCS Opposite-Spin Energy  =      -0.6323915060025301 [Eh]
	 SCS Correlation Energy    =      -0.6908543984648198 [Eh]
	 SCS Total Energy          =    -189.4989142597146667 [Eh]
	-----------------------------------------------------------

  Dipole Moment: [D]
     X:    -0.3503      Y:     0.5464      Z:     0.0000     Total:     0.6491

*** Psi4 exiting successfully. Buy a developer a beer!
