                               Psi4 1.3.2 release

  ==> Input File <==

--------------------------------------------------------------------------
#psi4
#
memory 32 gb

molecule  {
0 1
  C        0.0000000     0.4245050     0.0000000
  H       -0.3773750     1.4537240     0.0000000
  O        0.9775433     0.1565464     0.0000000
  O       -1.0419470    -0.4368220     0.0000000
  H       -0.6504660    -1.3355670     0.0000000
units angstrom
no_reorient  #important for SAPT in psi4, default
symmetry c1  #important for SAPT in psi4, default
}

set PROPERTIES_ORIGIN ["COM"]
properties('MP2/aug-cc-pvtz', properties = ['dipole'])
--------------------------------------------------------------------------

    Molecular point group: c1
  Charge       = 0
  Multiplicity = 1
  Basis Set: AUG-CC-PVTZ
    Blend: AUG-CC-PVTZ
  Basis Set: (AUG-CC-PVTZ AUX)
    Blend: AUG-CC-PVTZ-JKFIT

    Orbital Energies [Eh]
    ---------------------

    Doubly Occupied:

       1A    -20.595095     2A    -20.565232     3A    -11.353541
       4A     -1.576362     5A     -1.397110     6A     -0.865991
       7A     -0.764790     8A     -0.735855     9A     -0.689424
      10A     -0.607550    11A     -0.520171    12A     -0.467443

  @DF-RHF Final Energy:  -188.77507728551197

   => Energetics <=

    Nuclear Repulsion Energy =             75.3211016732749243
    One-Electron Energy =                -407.9152359912355337
    Two-Electron Energy =                 143.8190570324486259
    Total Energy =                       -188.7750772855119692
  Basis Set: (AUG-CC-PVTZ AUX)
    Blend: AUG-CC-PVTZ-RI
    Molecular point group: c1

    Geometry (in Angstrom), charge = 0, multiplicity = 1:

       Center              X                  Y                   Z               Mass
    ------------   -----------------  -----------------  -----------------  -----------------
         C            0.044908032759     0.408633905916     0.000000000000    12.000000000000
         H           -0.332466967241     1.437852905916     0.000000000000     1.007825032230
         O            1.022451332759     0.140675305916     0.000000000000    15.994914619570
         O           -0.997038967241    -0.452693094084     0.000000000000    15.994914619570
         H           -0.605557967241    -1.351438094084     0.000000000000     1.007825032230

  Basis Set: AUG-CC-PVTZ
    Blend: AUG-CC-PVTZ
  Basis Set: (AUG-CC-PVTZ AUX)
    Blend: AUG-CC-PVTZ-JKFIT
	 Reference Energy          =    -188.7750772855119692 [Eh]
	 Singles Energy            =      -0.0000000000000000 [Eh]
	 Same-Spin Energy          =      -0.1685273686571276 [Eh]
	 Opposite-Spin Energy      =      -0.5062217459113802 [Eh]
	 Correlation Energy        =      -0.6747491145685078 [Eh]
	 Total Energy              =    -189.4498264000804681 [Eh]

	 ================> DF-SCS-MP2 Energies <==================
	-----------------------------------------------------------
	 SCS Same-Spin Scale       =       0.3333333333333333 [-]
	 SCS Opposite-Spin Scale   =       1.2000000000000000 [-]
	 SCS Same-Spin Energy      =      -0.0561757895523759 [Eh]
	 SCS Opposite-Spin Energy  =      -0.6074660950936562 [Eh]
	 SCS Correlation Energy    =      -0.6636418846460321 [Eh]
	 SCS Total Energy          =    -189.4387191701580093 [Eh]
	-----------------------------------------------------------

  Dipole Moment: [D]
     X:    -0.2268      Y:    -0.2346      Z:    -0.0000     Total:     0.3263

*** Psi4 exiting successfully. Buy a developer a beer!
