                               Psi4 1.4a3.dev225

  ==> Input File <==

--------------------------------------------------------------------------
#psi4
#
memory 32 gb

molecule  {
0 1
  C       -0.1291220     0.3651120    -0.0000010
  H       -0.0397378     1.4154261     0.0000009
  O       -1.1850860    -0.2198210     0.0000000
  O        1.0634740    -0.2838260     0.0000000
  H        1.7831240     0.3732560    -0.0000010
units angstrom
no_reorient  #important for SAPT in psi4, default
symmetry c1  #important for SAPT in psi4, default
}

set PROPERTIES_ORIGIN ["COM"]
properties('MP2/aug-cc-pvtz', properties = ['dipole'])
--------------------------------------------------------------------------

    Molecular point group: c1
  Charge       = 0
  Multiplicity = 1
  Basis Set: AUG-CC-PVTZ
    Blend: AUG-CC-PVTZ
  Basis Set: (AUG-CC-PVTZ AUX)
    Blend: AUG-CC-PVTZ-JKFIT

    Orbital Energies [Eh]
    ---------------------

    Doubly Occupied:

       1A    -20.632050     2A    -20.564698     3A    -11.396017
       4A     -1.467868     5A     -1.375162     6A     -0.878949
       7A     -0.797681     8A     -0.669005     9A     -0.633013
      10A     -0.604194    11A     -0.492076    12A     -0.472023

  @DF-RHF Final Energy:  -188.83361137318198

   => Energetics <=

    Nuclear Repulsion Energy =             69.6829406028294613
    One-Electron Energy =                -397.0676284512291545
    Two-Electron Energy =                 138.5510764752177408
    Total Energy =                       -188.8336113731819808
  Basis Set: (AUG-CC-PVTZ AUX)
    Blend: AUG-CC-PVTZ-RI
    Molecular point group: c1

    Geometry (in Angstrom), charge = 0, multiplicity = 1:

       Center              X                  Y                   Z               Mass
    ------------   -----------------  -----------------  -----------------  -----------------
         C           -0.091352383645     0.405797766058    -0.000000736971    12.000000000000
         H           -0.001968183645     1.456111866058     0.000001163029     1.007825032230
         O           -1.147316383645    -0.179135233942     0.000000263029    15.994914619570
         O            1.101243616355    -0.243140233942     0.000000263029    15.994914619570
         H            1.820893616355     0.413941766058    -0.000000736971     1.007825032230

  Basis Set: AUG-CC-PVTZ
    Blend: AUG-CC-PVTZ
  Basis Set: (AUG-CC-PVTZ AUX)
    Blend: AUG-CC-PVTZ-JKFIT
	 Reference Energy          =    -188.8336113731819808 [Eh]
	 Singles Energy            =      -0.0000000000000000 [Eh]
	 Same-Spin Energy          =      -0.1731339092342539 [Eh]
	 Opposite-Spin Energy      =      -0.5192391727887643 [Eh]
	 Correlation Energy        =      -0.6923730820230182 [Eh]
	 Total Energy              =    -189.5259844552049913 [Eh]

	 ================> DF-SCS-MP2 Energies <==================
	-----------------------------------------------------------
	 SCS Same-Spin Scale       =       0.3333333333333333 [-]
	 SCS Opposite-Spin Scale   =       1.2000000000000000 [-]
	 SCS Same-Spin Energy      =      -0.0577113030780846 [Eh]
	 SCS Opposite-Spin Energy  =      -0.6230870073465171 [Eh]
	 SCS Correlation Energy    =      -0.6807983104246017 [Eh]
	 SCS Total Energy          =    -189.5144096836065728 [Eh]
	-----------------------------------------------------------

  Dipole Moment: [D]
     X:     2.8168      Y:     2.7635      Z:    -0.0000     Total:     3.9461

*** Psi4 exiting successfully. Buy a developer a beer!
