                               Psi4 1.4a3.dev225

  ==> Input File <==

--------------------------------------------------------------------------
#psi4
#
memory 32 gb

molecule  {
1 1
  C        1.9513750    -0.0476850     0.0410900
  C       -0.5109630    -0.0088300    -0.0208070
  N        0.6383630    -0.6790700    -0.0530430
  N       -0.5022500     1.3295140     0.0248160
  N       -1.6788480    -0.6625100     0.0611020
  H        0.5985012    -1.7019252    -0.1912297
  H        0.3071780     1.8489940    -0.2875250
  H       -1.3771720     1.8372740     0.0557700
  H       -1.6998490    -1.6741350     0.0517440
  H       -2.5379350    -0.1934290    -0.1962670
  H        1.9812500     0.6292430     0.8968410
  H        2.1994310     0.4949160    -0.8747400
  H        2.6844950    -0.8371890     0.1909030
units angstrom
no_reorient  #important for SAPT in psi4, default
symmetry c1  #important for SAPT in psi4, default
}

set PROPERTIES_ORIGIN ["COM"]
properties('MP2/aug-cc-pvtz', properties = ['dipole'])
--------------------------------------------------------------------------

    Molecular point group: c1
  Charge       = 1
  Multiplicity = 1
  Basis Set: AUG-CC-PVTZ
    Blend: AUG-CC-PVTZ
  Basis Set: (AUG-CC-PVTZ AUX)
    Blend: AUG-CC-PVTZ-JKFIT

    Orbital Energies [Eh]
    ---------------------

    Doubly Occupied:

       1A    -15.793434     2A    -15.790305     3A    -15.788491
       4A    -11.595014     5A    -11.436523     6A     -1.539903
       7A     -1.403589     8A     -1.390307     9A     -1.145798
      10A     -1.040904    11A     -0.976065    12A     -0.937703
      13A     -0.863524    14A     -0.860793    15A     -0.824391
      16A     -0.797063    17A     -0.745638    18A     -0.728278
      19A     -0.626294    20A     -0.594332

  @DF-RHF Final Energy:  -243.65625953097262

   => Energetics <=

    Nuclear Repulsion Energy =            193.0478891417811838
    One-Electron Energy =                -703.6515982713269750
    Two-Electron Energy =                 266.9474495985731437
    Total Energy =                       -243.6562595309726476
  Basis Set: (AUG-CC-PVTZ AUX)
    Blend: AUG-CC-PVTZ-RI
    Molecular point group: c1

    Geometry (in Angstrom), charge = 1, multiplicity = 1:

       Center              X                  Y                   Z               Mass
    ------------   -----------------  -----------------  -----------------  -----------------
         C            1.980337689559    -0.041741674589     0.036412521515    12.000000000000
         C           -0.482000310441    -0.002886674589    -0.025484478485    12.000000000000
         N            0.667325689559    -0.673126674589    -0.057720478485    14.003074004430
         N           -0.473287310441     1.335457325411     0.020138521515    14.003074004430
         N           -1.649885310441    -0.656566674589     0.056424521515    14.003074004430
         H            0.627463889559    -1.695981874589    -0.195907178485     1.007825032230
         H            0.336140689559     1.854937325411    -0.292202478485     1.007825032230
         H           -1.348209310441     1.843217325411     0.051092521515     1.007825032230
         H           -1.670886310441    -1.668191674589     0.047066521515     1.007825032230
         H           -2.508972310441    -0.187485674589    -0.200944478485     1.007825032230
         H            2.010212689559     0.635186325411     0.892163521515     1.007825032230
         H            2.228393689559     0.500859325411    -0.879417478485     1.007825032230
         H            2.713457689559    -0.831245674589     0.186225521515     1.007825032230

  Basis Set: AUG-CC-PVTZ
    Blend: AUG-CC-PVTZ
  Basis Set: (AUG-CC-PVTZ AUX)
    Blend: AUG-CC-PVTZ-JKFIT
	 Reference Energy          =    -243.6562595309726191 [Eh]
	 Singles Energy            =      -0.0000000000000000 [Eh]
	 Same-Spin Energy          =      -0.2453411812721068 [Eh]
	 Opposite-Spin Energy      =      -0.8095205107133756 [Eh]
	 Correlation Energy        =      -1.0548616919854825 [Eh]
	 Total Energy              =    -244.7111212229580985 [Eh]

	 ================> DF-SCS-MP2 Energies <==================
	-----------------------------------------------------------
	 SCS Same-Spin Scale       =       0.3333333333333333 [-]
	 SCS Opposite-Spin Scale   =       1.2000000000000000 [-]
	 SCS Same-Spin Energy      =      -0.0817803937573689 [Eh]
	 SCS Opposite-Spin Energy  =      -0.9714246128560506 [Eh]
	 SCS Correlation Energy    =      -1.0532050066134195 [Eh]
	 SCS Total Energy          =    -244.7094645375860296 [Eh]
	-----------------------------------------------------------

  Dipole Moment: [D]
     X:    -1.1642      Y:    -0.1437      Z:    -0.8990     Total:     1.4779

*** Psi4 exiting successfully. Buy a developer a beer!
