                               Psi4 1.3.2 release

  ==> Input File <==

--------------------------------------------------------------------------
#psi4
#
memory 32 gb

molecule  {
1 1
  C        1.9603260    -0.0474630     0.0649610
  C       -0.5119490    -0.0070210    -0.0238890
  N        0.6418760    -0.6705780    -0.0750100
  N       -0.4994975     1.3301190    -0.0129511
  N       -1.6711500    -0.6772890     0.0386260
  H        0.6032940    -1.6549680    -0.3141340
  H        0.2902210     1.8677740    -0.2812470
  H       -1.3594750     1.8446160     0.2321210
  H       -1.6988330    -1.6603540     0.2762120
  H       -2.5540630    -0.2212690    -0.1512530
  H        1.9599500     0.6280700     0.9221430
  H        2.2491870     0.4866410    -0.8442620
  H        2.6839440    -0.8393840     0.2497200
units angstrom
no_reorient  #important for SAPT in psi4, default
symmetry c1  #important for SAPT in psi4, default
}

set PROPERTIES_ORIGIN ["COM"]
properties('MP2/aug-cc-pvtz', properties = ['dipole'])
--------------------------------------------------------------------------

    Molecular point group: c1
  Charge       = 1
  Multiplicity = 1
  Basis Set: AUG-CC-PVTZ
    Blend: AUG-CC-PVTZ
  Basis Set: (AUG-CC-PVTZ AUX)
    Blend: AUG-CC-PVTZ-JKFIT

    Orbital Energies [Eh]
    ---------------------

    Doubly Occupied:

       1A    -15.790221     2A    -15.789049     3A    -15.787905
       4A    -11.595315     5A    -11.435686     6A     -1.538178
       7A     -1.401113     8A     -1.389877     9A     -1.144289
      10A     -1.042874    11A     -0.975497    12A     -0.939863
      13A     -0.875335    14A     -0.858808    15A     -0.817567
      16A     -0.793442    17A     -0.741814    18A     -0.726917
      19A     -0.625024    20A     -0.592826

  @DF-RHF Final Energy:  -243.65634295185015

   => Energetics <=

    Nuclear Repulsion Energy =            192.8914536173034833
    One-Electron Energy =                -703.3723952939145647
    Two-Electron Energy =                 266.8245987247609605
    Total Energy =                       -243.6563429518501493
  Basis Set: (AUG-CC-PVTZ AUX)
    Blend: AUG-CC-PVTZ-RI
    Molecular point group: c1

    Geometry (in Angstrom), charge = 1, multiplicity = 1:

       Center              X                  Y                   Z               Mass
    ------------   -----------------  -----------------  -----------------  -----------------
         C            1.985109217334    -0.041419156765     0.066418778108    12.000000000000
         C           -0.487165782666    -0.000977156765    -0.022431221892    12.000000000000
         N            0.666659217334    -0.664534156765    -0.073552221892    14.003074004430
         N           -0.474714282666     1.336162843235    -0.011493321892    14.003074004430
         N           -1.646366782666    -0.671245156765     0.040083778108    14.003074004430
         H            0.628077217334    -1.648924156765    -0.312676221892     1.007825032230
         H            0.315004217334     1.873817843235    -0.279789221892     1.007825032230
         H           -1.334691782666     1.850659843235     0.233578778108     1.007825032230
         H           -1.674049782666    -1.654310156765     0.277669778108     1.007825032230
         H           -2.529279782666    -0.215225156765    -0.149795221892     1.007825032230
         H            1.984733217334     0.634113843235     0.923600778108     1.007825032230
         H            2.273970217334     0.492684843235    -0.842804221892     1.007825032230
         H            2.708727217334    -0.833340156765     0.251177778108     1.007825032230

  Basis Set: AUG-CC-PVTZ
    Blend: AUG-CC-PVTZ
  Basis Set: (AUG-CC-PVTZ AUX)
    Blend: AUG-CC-PVTZ-JKFIT
	 Reference Energy          =    -243.6563429518501493 [Eh]
	 Singles Energy            =      -0.0000000000000000 [Eh]
	 Same-Spin Energy          =      -0.2453228211924690 [Eh]
	 Opposite-Spin Energy      =      -0.8094087784195682 [Eh]
	 Correlation Energy        =      -1.0547315996120372 [Eh]
	 Total Energy              =    -244.7110745514621897 [Eh]

	 ================> DF-SCS-MP2 Energies <==================
	-----------------------------------------------------------
	 SCS Same-Spin Scale       =       0.3333333333333333 [-]
	 SCS Opposite-Spin Scale   =       1.2000000000000000 [-]
	 SCS Same-Spin Energy      =      -0.0817742737308230 [Eh]
	 SCS Opposite-Spin Energy  =      -0.9712905341034818 [Eh]
	 SCS Correlation Energy    =      -1.0530648078343048 [Eh]
	 SCS Total Energy          =    -244.7094077596844670 [Eh]
	-----------------------------------------------------------

  Dipole Moment: [D]
     X:    -1.2571      Y:     0.0161      Z:    -0.1568     Total:     1.2670

*** Psi4 exiting successfully. Buy a developer a beer!
