                               Psi4 1.3.2 release

  ==> Input File <==

--------------------------------------------------------------------------
#psi4
#
memory 32 gb

molecule  {
1 1
  C        1.8865995     0.0859956     0.0813052
  C       -0.5119490    -0.0070210    -0.0238890
  N        0.6418760    -0.6705780    -0.0750100
  N       -0.5227960     1.3301210    -0.0115770
  N       -1.6711500    -0.6772890     0.0386260
  H        0.6032940    -1.6549680    -0.3141340
  H        0.2902210     1.8677740    -0.2812470
  H       -1.3594750     1.8446160     0.2321210
  H       -1.6988330    -1.6603540     0.2762120
  H       -2.5540630    -0.2212690    -0.1512530
  H        1.9599500     0.6280700     0.9221430
  H        2.2491870     0.4866410    -0.8442620
  H        2.6839440    -0.8393840     0.2497200
units angstrom
no_reorient  #important for SAPT in psi4, default
symmetry c1  #important for SAPT in psi4, default
}

set PROPERTIES_ORIGIN ["COM"]
properties('MP2/aug-cc-pvtz', properties = ['dipole'])
--------------------------------------------------------------------------

    Molecular point group: c1
  Charge       = 1
  Multiplicity = 1
  Basis Set: AUG-CC-PVTZ
    Blend: AUG-CC-PVTZ
  Basis Set: (AUG-CC-PVTZ AUX)
    Blend: AUG-CC-PVTZ-JKFIT

    Orbital Energies [Eh]
    ---------------------

    Doubly Occupied:

       1A    -15.791981     2A    -15.790165     3A    -15.786530
       4A    -11.593012     5A    -11.438818     6A     -1.539709
       7A     -1.403068     8A     -1.388887     9A     -1.142662
      10A     -1.045907    11A     -0.975474    12A     -0.940766
      13A     -0.875231    14A     -0.861816    15A     -0.824883
      16A     -0.807870    17A     -0.754276    18A     -0.683438
      19A     -0.624453    20A     -0.596025

  @DF-RHF Final Energy:  -243.63210540822783

   => Energetics <=

    Nuclear Repulsion Energy =            193.5426433403594046
    One-Electron Energy =                -704.6195538891066690
    Two-Electron Energy =                 267.4448051405194065
    Total Energy =                       -243.6321054082278579
  Basis Set: (AUG-CC-PVTZ AUX)
    Blend: AUG-CC-PVTZ-RI
    Molecular point group: c1

    Geometry (in Angstrom), charge = 1, multiplicity = 1:

       Center              X                  Y                   Z               Mass
    ------------   -----------------  -----------------  -----------------  -----------------
         C            1.927731290686     0.070418114678     0.079855367395    12.000000000000
         C           -0.470817209314    -0.022598485322    -0.025338832605    12.000000000000
         N            0.683007790686    -0.686155485322    -0.076459832605    14.003074004430
         N           -0.481664209314     1.314543514678    -0.013026832605    14.003074004430
         N           -1.630018209314    -0.692866485322     0.037176167395    14.003074004430
         H            0.644425790686    -1.670545485322    -0.315583832605     1.007825032230
         H            0.331352790686     1.852196514678    -0.282696832605     1.007825032230
         H           -1.318343209314     1.829038514678     0.230671167395     1.007825032230
         H           -1.657701209314    -1.675931485322     0.274762167395     1.007825032230
         H           -2.512931209314    -0.236846485322    -0.152702832605     1.007825032230
         H            2.001081790686     0.612492514678     0.920693167395     1.007825032230
         H            2.290318790686     0.471063514678    -0.845711832605     1.007825032230
         H            2.725075790686    -0.854961485322     0.248270167395     1.007825032230

  Basis Set: AUG-CC-PVTZ
    Blend: AUG-CC-PVTZ
  Basis Set: (AUG-CC-PVTZ AUX)
    Blend: AUG-CC-PVTZ-JKFIT
	 Reference Energy          =    -243.6321054082278295 [Eh]
	 Singles Energy            =      -0.0000000000000000 [Eh]
	 Same-Spin Energy          =      -0.2461216346135170 [Eh]
	 Opposite-Spin Energy      =      -0.8110367222806329 [Eh]
	 Correlation Energy        =      -1.0571583568941501 [Eh]
	 Total Energy              =    -244.6892637651219786 [Eh]

	 ================> DF-SCS-MP2 Energies <==================
	-----------------------------------------------------------
	 SCS Same-Spin Scale       =       0.3333333333333333 [-]
	 SCS Opposite-Spin Scale   =       1.2000000000000000 [-]
	 SCS Same-Spin Energy      =      -0.0820405448711723 [Eh]
	 SCS Opposite-Spin Energy  =      -0.9732440667367595 [Eh]
	 SCS Correlation Energy    =      -1.0552846116079317 [Eh]
	 SCS Total Energy          =    -244.6873900198357603 [Eh]
	-----------------------------------------------------------

  Dipole Moment: [D]
     X:    -1.1800      Y:    -0.0532      Z:    -0.1658     Total:     1.1928

*** Psi4 exiting successfully. Buy a developer a beer!
