                               Psi4 1.3.2 release

  ==> Input File <==

--------------------------------------------------------------------------
#psi4
#
memory 32 gb

molecule  {
1 1
  C        1.9127333     0.0423599     0.0760389
  C       -0.5119490    -0.0070210    -0.0238890
  N        0.6418760    -0.6705780    -0.0750100
  N       -0.5227960     1.3301210    -0.0115770
  N       -1.6711500    -0.6772890     0.0386260
  H        0.6032940    -1.6549680    -0.3141340
  H        0.2902210     1.8677740    -0.2812470
  H       -1.3594750     1.8446160     0.2321210
  H       -1.6988330    -1.6603540     0.2762120
  H       -2.5540630    -0.2212690    -0.1512530
  H        1.9599500     0.6280700     0.9221430
  H        2.2491870     0.4866410    -0.8442620
  H        2.6839440    -0.8393840     0.2497200
units angstrom
no_reorient  #important for SAPT in psi4, default
symmetry c1  #important for SAPT in psi4, default
}

set PROPERTIES_ORIGIN ["COM"]
properties('MP2/aug-cc-pvtz', properties = ['dipole'])
--------------------------------------------------------------------------

    Molecular point group: c1
  Charge       = 1
  Multiplicity = 1
  Basis Set: AUG-CC-PVTZ
    Blend: AUG-CC-PVTZ
  Basis Set: (AUG-CC-PVTZ AUX)
    Blend: AUG-CC-PVTZ-JKFIT

    Orbital Energies [Eh]
    ---------------------

    Doubly Occupied:

       1A    -15.791007     2A    -15.790085     3A    -15.786539
       4A    -11.593609     5A    -11.437159     6A     -1.538983
       7A     -1.402647     8A     -1.388639     9A     -1.142816
      10A     -1.044697    11A     -0.975422    12A     -0.939834
      13A     -0.874341    14A     -0.861852    15A     -0.821390
      16A     -0.801821    17A     -0.751056    18A     -0.699891
      19A     -0.624346    20A     -0.595914

  @DF-RHF Final Energy:  -243.64550357046917

   => Energetics <=

    Nuclear Repulsion Energy =            193.2904198771571203
    One-Electron Energy =                -704.1477530162508174
    Two-Electron Energy =                 267.2118295686245801
    Total Energy =                       -243.6455035704691454
  Basis Set: (AUG-CC-PVTZ AUX)
    Blend: AUG-CC-PVTZ-RI
    Molecular point group: c1

    Geometry (in Angstrom), charge = 1, multiplicity = 1:

       Center              X                  Y                   Z               Mass
    ------------   -----------------  -----------------  -----------------  -----------------
         C            1.949631286381     0.033851612977     0.075442233931    12.000000000000
         C           -0.475051013619    -0.015529287023    -0.024485666069    12.000000000000
         N            0.678773986381    -0.679086287023    -0.075606666069    14.003074004430
         N           -0.485898013619     1.321612712977    -0.012173666069    14.003074004430
         N           -1.634252013619    -0.685797287023     0.038029333931    14.003074004430
         H            0.640191986381    -1.663476287023    -0.314730666069     1.007825032230
         H            0.327118986381     1.859265712977    -0.281843666069     1.007825032230
         H           -1.322577013619     1.836107712977     0.231524333931     1.007825032230
         H           -1.661935013619    -1.668862287023     0.275615333931     1.007825032230
         H           -2.517165013619    -0.229777287023    -0.151849666069     1.007825032230
         H            1.996847986381     0.619561712977     0.921546333931     1.007825032230
         H            2.286084986381     0.478132712977    -0.844858666069     1.007825032230
         H            2.720841986381    -0.847892287023     0.249123333931     1.007825032230

  Basis Set: AUG-CC-PVTZ
    Blend: AUG-CC-PVTZ
  Basis Set: (AUG-CC-PVTZ AUX)
    Blend: AUG-CC-PVTZ-JKFIT
	 Reference Energy          =    -243.6455035704691738 [Eh]
	 Singles Energy            =      -0.0000000000000000 [Eh]
	 Same-Spin Energy          =      -0.2457118426742141 [Eh]
	 Opposite-Spin Energy      =      -0.8101308804234890 [Eh]
	 Correlation Energy        =      -1.0558427230977030 [Eh]
	 Total Energy              =    -244.7013462935668713 [Eh]

	 ================> DF-SCS-MP2 Energies <==================
	-----------------------------------------------------------
	 SCS Same-Spin Scale       =       0.3333333333333333 [-]
	 SCS Opposite-Spin Scale   =       1.2000000000000000 [-]
	 SCS Same-Spin Energy      =      -0.0819039475580713 [Eh]
	 SCS Opposite-Spin Energy  =      -0.9721570565081867 [Eh]
	 SCS Correlation Energy    =      -1.0540610040662581 [Eh]
	 SCS Total Energy          =    -244.6995645745354295 [Eh]
	-----------------------------------------------------------

  Dipole Moment: [D]
     X:    -1.1808      Y:    -0.0260      Z:    -0.1596     Total:     1.1918

*** Psi4 exiting successfully. Buy a developer a beer!
