                               Psi4 1.3.2 release

  ==> Input File <==

--------------------------------------------------------------------------
#psi4
#
memory 32 gb

molecule  {
1 1
  C        1.9603260    -0.0474630     0.0649610
  C       -0.5119490    -0.0070210    -0.0238890
  N        0.6418760    -0.6705780    -0.0750100
  N       -0.5211737     1.1301361    -0.0134184
  N       -1.6711500    -0.6772890     0.0386260
  H        0.6032940    -1.6549680    -0.3141340
  H        0.2902210     1.8677740    -0.2812470
  H       -1.3594750     1.8446160     0.2321210
  H       -1.6988330    -1.6603540     0.2762120
  H       -2.5540630    -0.2212690    -0.1512530
  H        1.9599500     0.6280700     0.9221430
  H        2.2491870     0.4866410    -0.8442620
  H        2.6839440    -0.8393840     0.2497200
units angstrom
no_reorient  #important for SAPT in psi4, default
symmetry c1  #important for SAPT in psi4, default
}

set PROPERTIES_ORIGIN ["COM"]
properties('MP2/aug-cc-pvtz', properties = ['dipole'])
--------------------------------------------------------------------------

    Molecular point group: c1
  Charge       = 1
  Multiplicity = 1
  Basis Set: AUG-CC-PVTZ
    Blend: AUG-CC-PVTZ
  Basis Set: (AUG-CC-PVTZ AUX)
    Blend: AUG-CC-PVTZ-JKFIT

    Orbital Energies [Eh]
    ---------------------

    Doubly Occupied:

       1A    -15.810676     2A    -15.767032     3A    -15.765347
       4A    -11.559751     5A    -11.429715     6A     -1.590131
       7A     -1.405863     8A     -1.384148     9A     -1.134084
      10A     -1.050790    11A     -0.977069    12A     -0.943690
      13A     -0.873556    14A     -0.859475    15A     -0.787498
      16A     -0.778080    17A     -0.752495    18A     -0.721441
      19A     -0.622200    20A     -0.583222

  @DF-RHF Final Energy:  -243.57655939409111

   => Energetics <=

    Nuclear Repulsion Energy =            197.3148631283150962
    One-Electron Energy =                -712.1903185938277829
    Two-Electron Energy =                 271.2988960714216091
    Total Energy =                       -243.5765593940910776
  Basis Set: (AUG-CC-PVTZ AUX)
    Blend: AUG-CC-PVTZ-RI
    Molecular point group: c1

    Geometry (in Angstrom), charge = 1, multiplicity = 1:

       Center              X                  Y                   Z               Mass
    ------------   -----------------  -----------------  -----------------  -----------------
         C            1.989207043247    -0.003612940279     0.066507119886    12.000000000000
         C           -0.483067956753     0.036829059721    -0.022342880114    12.000000000000
         N            0.670757043247    -0.626727940279    -0.073463880114    14.003074004430
         N           -0.492292656753     1.173986159721    -0.011872280114    14.003074004430
         N           -1.642268956753    -0.633438940279     0.040172119886    14.003074004430
         H            0.632175043247    -1.611117940279    -0.312587880114     1.007825032230
         H            0.319102043247     1.911624059721    -0.279700880114     1.007825032230
         H           -1.330593956753     1.888466059721     0.233667119886     1.007825032230
         H           -1.669951956753    -1.616503940279     0.277758119886     1.007825032230
         H           -2.525181956753    -0.177418940279    -0.149706880114     1.007825032230
         H            1.988831043247     0.671920059721     0.923689119886     1.007825032230
         H            2.278068043247     0.530491059721    -0.842715880114     1.007825032230
         H            2.712825043247    -0.795533940279     0.251266119886     1.007825032230

  Basis Set: AUG-CC-PVTZ
    Blend: AUG-CC-PVTZ
  Basis Set: (AUG-CC-PVTZ AUX)
    Blend: AUG-CC-PVTZ-JKFIT
	 Reference Energy          =    -243.5765593940911060 [Eh]
	 Singles Energy            =      -0.0000000000000000 [Eh]
	 Same-Spin Energy          =      -0.2473345431616755 [Eh]
	 Opposite-Spin Energy      =      -0.8113675317859990 [Eh]
	 Correlation Energy        =      -1.0587020749476745 [Eh]
	 Total Energy              =    -244.6352614690387668 [Eh]

	 ================> DF-SCS-MP2 Energies <==================
	-----------------------------------------------------------
	 SCS Same-Spin Scale       =       0.3333333333333333 [-]
	 SCS Opposite-Spin Scale   =       1.2000000000000000 [-]
	 SCS Same-Spin Energy      =      -0.0824448477205585 [Eh]
	 SCS Opposite-Spin Energy  =      -0.9736410381431987 [Eh]
	 SCS Correlation Energy    =      -1.0560858858637572 [Eh]
	 SCS Total Energy          =    -244.6326452799548576 [Eh]
	-----------------------------------------------------------

  Dipole Moment: [D]
     X:    -1.3009      Y:     1.4519      Z:    -0.1570     Total:     1.9558

*** Psi4 exiting successfully. Buy a developer a beer!
