                               Psi4 1.3.2 release

  ==> Input File <==

--------------------------------------------------------------------------
#psi4
#
memory 32 gb

molecule  {
1 1
  C        1.9712289    -0.0704105     0.0620828
  C       -0.5119490    -0.0070210    -0.0238890
  N        0.6418760    -0.6705780    -0.0750100
  N       -0.5227960     1.3301210    -0.0115770
  N       -1.6711500    -0.6772890     0.0386260
  H        0.6032940    -1.6549680    -0.3141340
  H        0.2902210     1.8677740    -0.2812470
  H       -1.3594750     1.8446160     0.2321210
  H       -1.6988330    -1.6603540     0.2762120
  H       -2.5540630    -0.2212690    -0.1512530
  H        1.9599500     0.6280700     0.9221430
  H        2.2491870     0.4866410    -0.8442620
  H        2.6839440    -0.8393840     0.2497200
units angstrom
no_reorient  #important for SAPT in psi4, default
symmetry c1  #important for SAPT in psi4, default
}

set PROPERTIES_ORIGIN ["COM"]
properties('MP2/aug-cc-pvtz', properties = ['dipole'])
--------------------------------------------------------------------------

    Molecular point group: c1
  Charge       = 1
  Multiplicity = 1
  Basis Set: AUG-CC-PVTZ
    Blend: AUG-CC-PVTZ
  Basis Set: (AUG-CC-PVTZ AUX)
    Blend: AUG-CC-PVTZ-JKFIT

    Orbital Energies [Eh]
    ---------------------

    Doubly Occupied:

       1A    -15.790214     2A    -15.789975     3A    -15.786871
       4A    -11.595737     5A    -11.436450     6A     -1.537958
       7A     -1.402444     8A     -1.388440     9A     -1.145399
      10A     -1.042275    11A     -0.975708    12A     -0.938785
      13A     -0.872934    14A     -0.862745    15A     -0.816432
      16A     -0.794611    17A     -0.741990    18A     -0.728725
      19A     -0.624292    20A     -0.592349

  @DF-RHF Final Energy:  -243.65651538553652

   => Energetics <=

    Nuclear Repulsion Energy =            192.7122303311111011
    One-Electron Energy =                -703.0088239280447624
    Two-Electron Energy =                 266.6400782113971673
    Total Energy =                       -243.6565153855365224
  Basis Set: (AUG-CC-PVTZ AUX)
    Blend: AUG-CC-PVTZ-RI
    Molecular point group: c1

    Geometry (in Angstrom), charge = 1, multiplicity = 1:

       Center              X                  Y                   Z               Mass
    ------------   -----------------  -----------------  -----------------  -----------------
         C            1.998650311099    -0.060649426847     0.063747090862    12.000000000000
         C           -0.484527588901     0.002740073153    -0.022224709138    12.000000000000
         N            0.669297411099    -0.660816926847    -0.073345709138    14.003074004430
         N           -0.495374588901     1.339882073153    -0.009912709138    14.003074004430
         N           -1.643728588901    -0.667527926847     0.040290290862    14.003074004430
         H            0.630715411099    -1.645206926847    -0.312469709138     1.007825032230
         H            0.317642411099     1.877535073153    -0.279582709138     1.007825032230
         H           -1.332053588901     1.854377073153     0.233785290862     1.007825032230
         H           -1.671411588901    -1.650592926847     0.277876290862     1.007825032230
         H           -2.526641588901    -0.211507926847    -0.149588709138     1.007825032230
         H            1.987371411099     0.637831073153     0.923807290862     1.007825032230
         H            2.276608411099     0.496402073153    -0.842597709138     1.007825032230
         H            2.711365411099    -0.829622926847     0.251384290862     1.007825032230

  Basis Set: AUG-CC-PVTZ
    Blend: AUG-CC-PVTZ
  Basis Set: (AUG-CC-PVTZ AUX)
    Blend: AUG-CC-PVTZ-JKFIT
	 Reference Energy          =    -243.6565153855365224 [Eh]
	 Singles Energy            =      -0.0000000000000000 [Eh]
	 Same-Spin Energy          =      -0.2452480171333482 [Eh]
	 Opposite-Spin Energy      =      -0.8093256474486896 [Eh]
	 Correlation Energy        =      -1.0545736645820378 [Eh]
	 Total Energy              =    -244.7110890501185736 [Eh]

	 ================> DF-SCS-MP2 Energies <==================
	-----------------------------------------------------------
	 SCS Same-Spin Scale       =       0.3333333333333333 [-]
	 SCS Opposite-Spin Scale   =       1.2000000000000000 [-]
	 SCS Same-Spin Energy      =      -0.0817493390444494 [Eh]
	 SCS Opposite-Spin Energy  =      -0.9711907769384275 [Eh]
	 SCS Correlation Energy    =      -1.0529401159828768 [Eh]
	 SCS Total Energy          =    -244.7094555015193862 [Eh]
	-----------------------------------------------------------

  Dipole Moment: [D]
     X:    -1.3203      Y:     0.0197      Z:    -0.1661     Total:     1.3309

*** Psi4 exiting successfully. Buy a developer a beer!
