                               Psi4 1.3.2 release

  ==> Input File <==

--------------------------------------------------------------------------
#psi4
#
memory 32 gb

molecule  {
1 1
  C        1.9603260    -0.0474630     0.0649610
  C       -0.5119490    -0.0070210    -0.0238890
  N        0.8151225    -0.7702109    -0.0826858
  N       -0.5227960     1.3301210    -0.0115770
  N       -1.6711500    -0.6772890     0.0386260
  H        0.6032940    -1.6549680    -0.3141340
  H        0.2902210     1.8677740    -0.2812470
  H       -1.3594750     1.8446160     0.2321210
  H       -1.6988330    -1.6603540     0.2762120
  H       -2.5540630    -0.2212690    -0.1512530
  H        1.9599500     0.6280700     0.9221430
  H        2.2491870     0.4866410    -0.8442620
  H        2.6839440    -0.8393840     0.2497200
units angstrom
no_reorient  #important for SAPT in psi4, default
symmetry c1  #important for SAPT in psi4, default
}

set PROPERTIES_ORIGIN ["COM"]
properties('MP2/aug-cc-pvtz', properties = ['dipole'])
--------------------------------------------------------------------------

    Molecular point group: c1
  Charge       = 1
  Multiplicity = 1
  Basis Set: AUG-CC-PVTZ
    Blend: AUG-CC-PVTZ
  Basis Set: (AUG-CC-PVTZ AUX)
    Blend: AUG-CC-PVTZ-JKFIT

    Orbital Energies [Eh]
    ---------------------

    Doubly Occupied:

       1A    -15.807410     2A    -15.804968     3A    -15.778805
       4A    -11.614194     5A    -11.418561     6A     -1.523716
       7A     -1.408703     8A     -1.399006     9A     -1.128235
      10A     -1.058005    11A     -0.970539    12A     -0.945020
      13A     -0.880818    14A     -0.862962    15A     -0.816174
      16A     -0.805075    17A     -0.748013    18A     -0.697238
      19A     -0.631724    20A     -0.573435

  @DF-RHF Final Energy:  -243.60657976155494

   => Energetics <=

    Nuclear Repulsion Energy =            190.4981103188389682
    One-Electron Energy =                -698.4641797569070150
    Two-Electron Energy =                 264.3594896765131352
    Total Energy =                       -243.6065797615549400
  Basis Set: (AUG-CC-PVTZ AUX)
    Blend: AUG-CC-PVTZ-RI
    Molecular point group: c1

    Geometry (in Angstrom), charge = 1, multiplicity = 1:

       Center              X                  Y                   Z               Mass
    ------------   -----------------  -----------------  -----------------  -----------------
         C            1.956761960895    -0.022584209506     0.067610097138    12.000000000000
         C           -0.515513039105     0.017857790494    -0.021239902862    12.000000000000
         N            0.811558460895    -0.745332109506    -0.080036702862    14.003074004430
         N           -0.526360039105     1.354999790494    -0.008927902862    14.003074004430
         N           -1.674714039105    -0.652410209506     0.041275097138    14.003074004430
         H            0.599729960895    -1.630089209506    -0.311484902862     1.007825032230
         H            0.286656960895     1.892652790494    -0.278597902862     1.007825032230
         H           -1.363039039105     1.869494790494     0.234770097138     1.007825032230
         H           -1.702397039105    -1.635475209506     0.278861097138     1.007825032230
         H           -2.557627039105    -0.196390209506    -0.148603902862     1.007825032230
         H            1.956385960895     0.652948790494     0.924792097138     1.007825032230
         H            2.245622960895     0.511519790494    -0.841612902862     1.007825032230
         H            2.680379960895    -0.814505209506     0.252369097138     1.007825032230

  Basis Set: AUG-CC-PVTZ
    Blend: AUG-CC-PVTZ
  Basis Set: (AUG-CC-PVTZ AUX)
    Blend: AUG-CC-PVTZ-JKFIT
	 Reference Energy          =    -243.6065797615549400 [Eh]
	 Singles Energy            =      -0.0000000000000000 [Eh]
	 Same-Spin Energy          =      -0.2464718954042234 [Eh]
	 Opposite-Spin Energy      =      -0.8122075829414834 [Eh]
	 Correlation Energy        =      -1.0586794783457067 [Eh]
	 Total Energy              =    -244.6652592399006494 [Eh]

	 ================> DF-SCS-MP2 Energies <==================
	-----------------------------------------------------------
	 SCS Same-Spin Scale       =       0.3333333333333333 [-]
	 SCS Opposite-Spin Scale   =       1.2000000000000000 [-]
	 SCS Same-Spin Energy      =      -0.0821572984680745 [Eh]
	 SCS Opposite-Spin Energy  =      -0.9746490995297801 [Eh]
	 SCS Correlation Energy    =      -1.0568063979978546 [Eh]
	 SCS Total Energy          =    -244.6633861595528003 [Eh]
	-----------------------------------------------------------

  Dipole Moment: [D]
     X:    -2.3617      Y:     0.4864      Z:    -0.1061     Total:     2.4136

*** Psi4 exiting successfully. Buy a developer a beer!
