                               Psi4 1.3.2 release

  ==> Input File <==

--------------------------------------------------------------------------
#psi4
#
memory 32 gb

molecule  {
1 1
  C        1.9603260    -0.0474630     0.0649610
  C       -0.5119490    -0.0070210    -0.0238890
  N        0.6418760    -0.6705780    -0.0750100
  N       -0.5227960     1.3301210    -0.0115770
  N       -1.6711500    -0.6772890     0.0386260
  H        0.6032940    -1.6549680    -0.3141340
  H        0.3706118     1.9209369    -0.3079119
  H       -1.3594750     1.8446160     0.2321210
  H       -1.6988330    -1.6603540     0.2762120
  H       -2.5540630    -0.2212690    -0.1512530
  H        1.9599500     0.6280700     0.9221430
  H        2.2491870     0.4866410    -0.8442620
  H        2.6839440    -0.8393840     0.2497200
units angstrom
no_reorient  #important for SAPT in psi4, default
symmetry c1  #important for SAPT in psi4, default
}

set PROPERTIES_ORIGIN ["COM"]
properties('MP2/aug-cc-pvtz', properties = ['dipole'])
--------------------------------------------------------------------------

    Molecular point group: c1
  Charge       = 1
  Multiplicity = 1
  Basis Set: AUG-CC-PVTZ
    Blend: AUG-CC-PVTZ
  Basis Set: (AUG-CC-PVTZ AUX)
    Blend: AUG-CC-PVTZ-JKFIT

    Orbital Energies [Eh]
    ---------------------

    Doubly Occupied:

       1A    -15.796186     2A    -15.788712     3A    -15.785640
       4A    -11.593807     5A    -11.436091     6A     -1.534713
       7A     -1.400283     8A     -1.378946     9A     -1.143480
      10A     -1.035339    11A     -0.968646    12A     -0.934902
      13A     -0.861120    14A     -0.857661    15A     -0.810571
      16A     -0.792981    17A     -0.741099    18A     -0.726706
      19A     -0.621411    20A     -0.592392

  @DF-RHF Final Energy:  -243.64672390534108

   => Energetics <=

    Nuclear Repulsion Energy =            192.3587193192711595
    One-Electron Energy =                -702.4095154856762520
    Two-Electron Energy =                 266.4040722610640728
    Total Energy =                       -243.6467239053410481
  Basis Set: (AUG-CC-PVTZ AUX)
    Blend: AUG-CC-PVTZ-RI
    Molecular point group: c1

    Geometry (in Angstrom), charge = 1, multiplicity = 1:

       Center              X                  Y                   Z               Mass
    ------------   -----------------  -----------------  -----------------  -----------------
         C            1.988419933225    -0.042142872017     0.066521812291    12.000000000000
         C           -0.483855066775    -0.001700872017    -0.022328187709    12.000000000000
         N            0.669969933225    -0.665257872017    -0.073449187709    14.003074004430
         N           -0.494702066775     1.335441127983    -0.010016187709    14.003074004430
         N           -1.643056066775    -0.671968872017     0.040186812291    14.003074004430
         H            0.631387933225    -1.649647872017    -0.312573187709     1.007825032230
         H            0.398705733225     1.926257027983    -0.306351087709     1.007825032230
         H           -1.331381066775     1.849936127983     0.233681812291     1.007825032230
         H           -1.670739066775    -1.655033872017     0.277772812291     1.007825032230
         H           -2.525969066775    -0.215948872017    -0.149692187709     1.007825032230
         H            1.988043933225     0.633390127983     0.923703812291     1.007825032230
         H            2.277280933225     0.491961127983    -0.842701187709     1.007825032230
         H            2.712037933225    -0.834063872017     0.251280812291     1.007825032230

  Basis Set: AUG-CC-PVTZ
    Blend: AUG-CC-PVTZ
  Basis Set: (AUG-CC-PVTZ AUX)
    Blend: AUG-CC-PVTZ-JKFIT
	 Reference Energy          =    -243.6467239053410765 [Eh]
	 Singles Energy            =      -0.0000000000000000 [Eh]
	 Same-Spin Energy          =      -0.2459745716537064 [Eh]
	 Opposite-Spin Energy      =      -0.8110824864501375 [Eh]
	 Correlation Energy        =      -1.0570570581038439 [Eh]
	 Total Energy              =    -244.7037809634449275 [Eh]

	 ================> DF-SCS-MP2 Energies <==================
	-----------------------------------------------------------
	 SCS Same-Spin Scale       =       0.3333333333333333 [-]
	 SCS Opposite-Spin Scale   =       1.2000000000000000 [-]
	 SCS Same-Spin Energy      =      -0.0819915238845688 [Eh]
	 SCS Opposite-Spin Energy  =      -0.9732989837401649 [Eh]
	 SCS Correlation Energy    =      -1.0552905076247336 [Eh]
	 SCS Total Energy          =    -244.7020144129658092 [Eh]
	-----------------------------------------------------------

  Dipole Moment: [D]
     X:    -1.0915      Y:     0.1292      Z:    -0.1885     Total:     1.1151

*** Psi4 exiting successfully. Buy a developer a beer!
