                               Psi4 1.4a3.dev225

  ==> Input File <==

--------------------------------------------------------------------------
#psi4
#
memory 32 gb

molecule  {
1 1
  C        1.9513750    -0.0476850     0.0410900
  C       -0.5109630    -0.0088300    -0.0208070
  N        0.6383630    -0.6790700    -0.0530430
  N       -0.5019247     1.3794839     0.0265194
  N       -1.6788480    -0.6625100     0.0611020
  H        0.5992730    -1.6821200    -0.1885540
  H        0.3071780     1.8489940    -0.2875250
  H       -1.3771720     1.8372740     0.0557700
  H       -1.6998490    -1.6741350     0.0517440
  H       -2.5379350    -0.1934290    -0.1962670
  H        1.9812500     0.6292430     0.8968410
  H        2.1994310     0.4949160    -0.8747400
  H        2.6844950    -0.8371890     0.1909030
units angstrom
no_reorient  #important for SAPT in psi4, default
symmetry c1  #important for SAPT in psi4, default
}

set PROPERTIES_ORIGIN ["COM"]
properties('MP2/aug-cc-pvtz', properties = ['dipole'])
--------------------------------------------------------------------------

    Molecular point group: c1
  Charge       = 1
  Multiplicity = 1
  Basis Set: AUG-CC-PVTZ
    Blend: AUG-CC-PVTZ
  Basis Set: (AUG-CC-PVTZ AUX)
    Blend: AUG-CC-PVTZ-JKFIT

    Orbital Energies [Eh]
    ---------------------

    Doubly Occupied:

       1A    -15.796757     2A    -15.793217     3A    -15.785567
       4A    -11.601467     5A    -11.438035     6A     -1.535008
       7A     -1.406825     8A     -1.388032     9A     -1.148183
      10A     -1.041644    11A     -0.979544    12A     -0.936231
      13A     -0.876958    14A     -0.855001    15A     -0.824475
      16A     -0.799998    17A     -0.743810    18A     -0.730124
      19A     -0.625953    20A     -0.596963

  @DF-RHF Final Energy:  -243.65379025237243

   => Energetics <=

    Nuclear Repulsion Energy =            192.1897608102669324
    One-Electron Energy =                -701.8795178166453752
    Two-Electron Energy =                 266.0359667540060400
    Total Energy =                       -243.6537902523724028
  Basis Set: (AUG-CC-PVTZ AUX)
    Blend: AUG-CC-PVTZ-RI
    Molecular point group: c1

    Geometry (in Angstrom), charge = 1, multiplicity = 1:

       Center              X                  Y                   Z               Mass
    ------------   -----------------  -----------------  -----------------  -----------------
         C            1.980265691339    -0.051457817137     0.036054092724    12.000000000000
         C           -0.482072308661    -0.012602817137    -0.025842907276    12.000000000000
         N            0.667253691339    -0.682842817137    -0.058078907276    14.003074004430
         N           -0.473034008661     1.375711082863     0.021483492724    14.003074004430
         N           -1.649957308661    -0.666282817137     0.056066092724    14.003074004430
         H            0.628163691339    -1.685892817137    -0.193589907276     1.007825032230
         H            0.336068691339     1.845221182863    -0.292560907276     1.007825032230
         H           -1.348281308661     1.833501182863     0.050734092724     1.007825032230
         H           -1.670958308661    -1.677907817137     0.046708092724     1.007825032230
         H           -2.509044308661    -0.197201817137    -0.201302907276     1.007825032230
         H            2.010140691339     0.625470182863     0.891805092724     1.007825032230
         H            2.228321691339     0.491143182863    -0.879775907276     1.007825032230
         H            2.713385691339    -0.840961817137     0.185867092724     1.007825032230

  Basis Set: AUG-CC-PVTZ
    Blend: AUG-CC-PVTZ
  Basis Set: (AUG-CC-PVTZ AUX)
    Blend: AUG-CC-PVTZ-JKFIT
	 Reference Energy          =    -243.6537902523724313 [Eh]
	 Singles Energy            =      -0.0000000000000000 [Eh]
	 Same-Spin Energy          =      -0.2449492544936879 [Eh]
	 Opposite-Spin Energy      =      -0.8093010687267065 [Eh]
	 Correlation Energy        =      -1.0542503232203944 [Eh]
	 Total Energy              =    -244.7080405755928325 [Eh]

	 ================> DF-SCS-MP2 Energies <==================
	-----------------------------------------------------------
	 SCS Same-Spin Scale       =       0.3333333333333333 [-]
	 SCS Opposite-Spin Scale   =       1.2000000000000000 [-]
	 SCS Same-Spin Energy      =      -0.0816497514978960 [Eh]
	 SCS Opposite-Spin Energy  =      -0.9711612824720477 [Eh]
	 SCS Correlation Energy    =      -1.0528110339699437 [Eh]
	 SCS Total Energy          =    -244.7066012863423623 [Eh]
	-----------------------------------------------------------

  Dipole Moment: [D]
     X:    -1.1532      Y:    -0.4409      Z:    -0.9036     Total:     1.5299

*** Psi4 exiting successfully. Buy a developer a beer!
