                               Psi4 1.3.2 release

  ==> Input File <==

--------------------------------------------------------------------------
#psi4
#
memory 32 gb

molecule  {
1 1
  C        1.9603260    -0.0474630     0.0649610
  C       -0.5119490    -0.0070210    -0.0238890
  N        0.6418760    -0.6705780    -0.0750100
  N       -0.5227960     1.3301210    -0.0115770
  N       -1.6711500    -0.6772890     0.0386260
  H        0.6109057    -1.4607607    -0.2669580
  H        0.2902210     1.8677740    -0.2812470
  H       -1.3594750     1.8446160     0.2321210
  H       -1.6988330    -1.6603540     0.2762120
  H       -2.5540630    -0.2212690    -0.1512530
  H        1.9599500     0.6280700     0.9221430
  H        2.2491870     0.4866410    -0.8442620
  H        2.6839440    -0.8393840     0.2497200
units angstrom
no_reorient  #important for SAPT in psi4, default
symmetry c1  #important for SAPT in psi4, default
}

set PROPERTIES_ORIGIN ["COM"]
properties('MP2/aug-cc-pvtz', properties = ['dipole'])
--------------------------------------------------------------------------

    Molecular point group: c1
  Charge       = 1
  Multiplicity = 1
  Basis Set: AUG-CC-PVTZ
    Blend: AUG-CC-PVTZ
  Basis Set: (AUG-CC-PVTZ AUX)
    Blend: AUG-CC-PVTZ-JKFIT

    Orbital Energies [Eh]
    ---------------------

    Doubly Occupied:

       1A    -15.792222     2A    -15.789538     3A    -15.771478
       4A    -11.597997     5A    -11.437166     6A     -1.550142
       7A     -1.428444     8A     -1.390883     9A     -1.148199
      10A     -1.079800    11A     -0.993527    12A     -0.942668
      13A     -0.882404    14A     -0.869341    15A     -0.820293
      16A     -0.802599    17A     -0.745274    18A     -0.732393
      19A     -0.626202    20A     -0.599067

  @DF-RHF Final Energy:  -243.61277578676456

   => Energetics <=

    Nuclear Repulsion Energy =            194.1286281112779477
    One-Electron Energy =                -705.4835343346701393
    Two-Electron Energy =                 267.7421304366275763
    Total Energy =                       -243.6127757867645869
  Basis Set: (AUG-CC-PVTZ AUX)
    Blend: AUG-CC-PVTZ-RI
    Molecular point group: c1

    Geometry (in Angstrom), charge = 1, multiplicity = 1:

       Center              X                  Y                   Z               Mass
    ------------   -----------------  -----------------  -----------------  -----------------
         C            1.989410169412    -0.044061929395     0.065517129200    12.000000000000
         C           -0.482864830588    -0.003619929395    -0.023332870800    12.000000000000
         N            0.670960169412    -0.667176929395    -0.074453870800    14.003074004430
         N           -0.493711830588     1.333522070605    -0.011020870800    14.003074004430
         N           -1.642065830588    -0.673887929395     0.039182129200    14.003074004430
         H            0.639989869412    -1.457359629395    -0.266401870800     1.007825032230
         H            0.319305169412     1.871175070605    -0.280690870800     1.007825032230
         H           -1.330390830588     1.848017070605     0.232677129200     1.007825032230
         H           -1.669748830588    -1.656952929395     0.276768129200     1.007825032230
         H           -2.524978830588    -0.217867929395    -0.150696870800     1.007825032230
         H            1.989034169412     0.631471070605     0.922699129200     1.007825032230
         H            2.278271169412     0.490042070605    -0.843705870800     1.007825032230
         H            2.713028169412    -0.835982929395     0.250276129200     1.007825032230

  Basis Set: AUG-CC-PVTZ
    Blend: AUG-CC-PVTZ
  Basis Set: (AUG-CC-PVTZ AUX)
    Blend: AUG-CC-PVTZ-JKFIT
	 Reference Energy          =    -243.6127757867645585 [Eh]
	 Singles Energy            =      -0.0000000000000000 [Eh]
	 Same-Spin Energy          =      -0.2441134738060202 [Eh]
	 Opposite-Spin Energy      =      -0.8067871095723981 [Eh]
	 Correlation Energy        =      -1.0509005833784182 [Eh]
	 Total Energy              =    -244.6636763701429800 [Eh]

	 ================> DF-SCS-MP2 Energies <==================
	-----------------------------------------------------------
	 SCS Same-Spin Scale       =       0.3333333333333333 [-]
	 SCS Opposite-Spin Scale   =       1.2000000000000000 [-]
	 SCS Same-Spin Energy      =      -0.0813711579353401 [Eh]
	 SCS Opposite-Spin Energy  =      -0.9681445314868776 [Eh]
	 SCS Correlation Energy    =      -1.0495156894222177 [Eh]
	 SCS Total Energy          =    -244.6622914761867662 [Eh]
	-----------------------------------------------------------

  Dipole Moment: [D]
     X:    -1.2851      Y:     0.2698      Z:    -0.0920     Total:     1.3163

*** Psi4 exiting successfully. Buy a developer a beer!
