                               Psi4 1.3.2 release

  ==> Input File <==

--------------------------------------------------------------------------
#psi4
#
memory 32 gb

molecule  {
1 1
  C        1.9603260    -0.0474630     0.0649610
  C       -0.5119490    -0.0070210    -0.0238890
  N        0.6418760    -0.6705780    -0.0750100
  N       -0.5227960     1.3301210    -0.0115770
  N       -1.6711500    -0.6772890     0.0386260
  H        0.6032940    -1.6549680    -0.3141340
  H        0.2902210     1.8677740    -0.2812470
  H       -1.3594750     1.8446160     0.2321210
  H       -1.6988330    -1.6603540     0.2762120
  H       -2.5540630    -0.2212690    -0.1512530
  H        1.9599500     0.6280700     0.9221430
  H        2.2491870     0.4866410    -0.8442620
  H        2.6839440    -0.8393840     0.2497200
units angstrom
no_reorient  #important for SAPT in psi4, default
symmetry c1  #important for SAPT in psi4, default
}

set PROPERTIES_ORIGIN ["COM"]
properties('MP2/aug-cc-pvtz', properties = ['dipole'])
--------------------------------------------------------------------------

    Molecular point group: c1
  Charge       = 1
  Multiplicity = 1
  Basis Set: AUG-CC-PVTZ
    Blend: AUG-CC-PVTZ
  Basis Set: (AUG-CC-PVTZ AUX)
    Blend: AUG-CC-PVTZ-JKFIT

    Orbital Energies [Eh]
    ---------------------

    Doubly Occupied:

       1A    -15.790145     2A    -15.790004     3A    -15.786765
       4A    -11.595235     5A    -11.436191     6A     -1.538070
       7A     -1.402380     8A     -1.388428     9A     -1.144588
      10A     -1.042651    11A     -0.975610    12A     -0.938811
      13A     -0.873108    14A     -0.862469    15A     -0.817189
      16A     -0.793777    17A     -0.742074    18A     -0.727438
      19A     -0.624268    20A     -0.593385

  @DF-RHF Final Energy:  -243.65725290272218

   => Energetics <=

    Nuclear Repulsion Energy =            192.8209750904719897
    One-Electron Energy =                -703.2312844194145782
    Two-Electron Energy =                 266.7530564262204393
    Total Energy =                       -243.6572529027221776
  Basis Set: (AUG-CC-PVTZ AUX)
    Blend: AUG-CC-PVTZ-RI
    Molecular point group: c1

    Geometry (in Angstrom), charge = 1, multiplicity = 1:

       Center              X                  Y                   Z               Mass
    ------------   -----------------  -----------------  -----------------  -----------------
         C            1.989513734594    -0.041419534859     0.066159008287    12.000000000000
         C           -0.482761265406    -0.000977534859    -0.022690991713    12.000000000000
         N            0.671063734594    -0.664534534859    -0.073811991713    14.003074004430
         N           -0.493608265406     1.336164465141    -0.010378991713    14.003074004430
         N           -1.641962265406    -0.671245534859     0.039824008287    14.003074004430
         H            0.632481734594    -1.648924534859    -0.312935991713     1.007825032230
         H            0.319408734594     1.873817465141    -0.280048991713     1.007825032230
         H           -1.330287265406     1.850659465141     0.233319008287     1.007825032230
         H           -1.669645265406    -1.654310534859     0.277410008287     1.007825032230
         H           -2.524875265406    -0.215225534859    -0.150054991713     1.007825032230
         H            1.989137734594     0.634113465141     0.923341008287     1.007825032230
         H            2.278374734594     0.492684465141    -0.843063991713     1.007825032230
         H            2.713131734594    -0.833340534859     0.250918008287     1.007825032230

  Basis Set: AUG-CC-PVTZ
    Blend: AUG-CC-PVTZ
  Basis Set: (AUG-CC-PVTZ AUX)
    Blend: AUG-CC-PVTZ-JKFIT
	 Reference Energy          =    -243.6572529027221776 [Eh]
	 Singles Energy            =      -0.0000000000000000 [Eh]
	 Same-Spin Energy          =      -0.2452770866281087 [Eh]
	 Opposite-Spin Energy      =      -0.8093181814372842 [Eh]
	 Correlation Energy        =      -1.0545952680653929 [Eh]
	 Total Energy              =    -244.7118481707875617 [Eh]

	 ================> DF-SCS-MP2 Energies <==================
	-----------------------------------------------------------
	 SCS Same-Spin Scale       =       0.3333333333333333 [-]
	 SCS Opposite-Spin Scale   =       1.2000000000000000 [-]
	 SCS Same-Spin Energy      =      -0.0817590288760362 [Eh]
	 SCS Opposite-Spin Energy  =      -0.9711818177247410 [Eh]
	 SCS Correlation Energy    =      -1.0529408466007772 [Eh]
	 SCS Total Energy          =    -244.7101937493229684 [Eh]
	-----------------------------------------------------------

  Dipole Moment: [D]
     X:    -1.1907      Y:     0.0176      Z:    -0.1531     Total:     1.2006

*** Psi4 exiting successfully. Buy a developer a beer!
