                               Psi4 1.4a3.dev225

  ==> Input File <==

--------------------------------------------------------------------------
#psi4
#
memory 32 gb

molecule  {
1 1
  C        1.9513750    -0.0476850     0.0410900
  C       -0.5109630    -0.0088300    -0.0208070
  N        0.5933959    -0.7006932    -0.0562668
  N       -0.5022500     1.3295140     0.0248160
  N       -1.6788480    -0.6625100     0.0611020
  H        0.5992730    -1.6821200    -0.1885540
  H        0.3071780     1.8489940    -0.2875250
  H       -1.3771720     1.8372740     0.0557700
  H       -1.6998490    -1.6741350     0.0517440
  H       -2.5379350    -0.1934290    -0.1962670
  H        1.9812500     0.6292430     0.8968410
  H        2.1994310     0.4949160    -0.8747400
  H        2.6844950    -0.8371890     0.1909030
units angstrom
no_reorient  #important for SAPT in psi4, default
symmetry c1  #important for SAPT in psi4, default
}

set PROPERTIES_ORIGIN ["COM"]
properties('MP2/aug-cc-pvtz', properties = ['dipole'])
--------------------------------------------------------------------------

    Molecular point group: c1
  Charge       = 1
  Multiplicity = 1
  Basis Set: AUG-CC-PVTZ
    Blend: AUG-CC-PVTZ
  Basis Set: (AUG-CC-PVTZ AUX)
    Blend: AUG-CC-PVTZ-JKFIT

    Orbital Energies [Eh]
    ---------------------

    Doubly Occupied:

       1A    -15.791087     2A    -15.789091     3A    -15.783412
       4A    -11.590850     5A    -11.442792     6A     -1.543813
       7A     -1.403378     8A     -1.388291     9A     -1.144246
      10A     -1.048041    11A     -0.980817    12A     -0.937267
      13A     -0.867847    14A     -0.861570    15A     -0.823719
      16A     -0.784582    17A     -0.745757    18A     -0.735000
      19A     -0.625093    20A     -0.599557

  @DF-RHF Final Energy:  -243.65579917341023

   => Energetics <=

    Nuclear Repulsion Energy =            193.2484327059169118
    One-Electron Energy =                -704.0360443656188636
    Two-Electron Energy =                 267.1318124862917216
    Total Energy =                       -243.6557991734102302
  Basis Set: (AUG-CC-PVTZ AUX)
    Blend: AUG-CC-PVTZ-RI
    Molecular point group: c1

    Geometry (in Angstrom), charge = 1, multiplicity = 1:

       Center              X                  Y                   Z               Mass
    ------------   -----------------  -----------------  -----------------  -----------------
         C            1.988828094823    -0.037923338752     0.036985566314    12.000000000000
         C           -0.473509905177     0.000931661248    -0.024911433686    12.000000000000
         N            0.630848994823    -0.690931538752    -0.060371233686    14.003074004430
         N           -0.464796905177     1.339275661248     0.020711566314    14.003074004430
         N           -1.641394905177    -0.652748338752     0.056997566314    14.003074004430
         H            0.636726094823    -1.672358338752    -0.192658433686     1.007825032230
         H            0.344631094823     1.858755661248    -0.291629433686     1.007825032230
         H           -1.339718905177     1.847035661248     0.051665566314     1.007825032230
         H           -1.662395905177    -1.664373338752     0.047639566314     1.007825032230
         H           -2.500481905177    -0.183667338752    -0.200371433686     1.007825032230
         H            2.018703094823     0.639004661248     0.892736566314     1.007825032230
         H            2.236884094823     0.504677661248    -0.878844433686     1.007825032230
         H            2.721948094823    -0.827427338752     0.186798566314     1.007825032230

  Basis Set: AUG-CC-PVTZ
    Blend: AUG-CC-PVTZ
  Basis Set: (AUG-CC-PVTZ AUX)
    Blend: AUG-CC-PVTZ-JKFIT
	 Reference Energy          =    -243.6557991734102302 [Eh]
	 Singles Energy            =      -0.0000000000000000 [Eh]
	 Same-Spin Energy          =      -0.2447294412021174 [Eh]
	 Opposite-Spin Energy      =      -0.8086302356889610 [Eh]
	 Correlation Energy        =      -1.0533596768910782 [Eh]
	 Total Energy              =    -244.7091588503013213 [Eh]

	 ================> DF-SCS-MP2 Energies <==================
	-----------------------------------------------------------
	 SCS Same-Spin Scale       =       0.3333333333333333 [-]
	 SCS Opposite-Spin Scale   =       1.2000000000000000 [-]
	 SCS Same-Spin Energy      =      -0.0815764804007058 [Eh]
	 SCS Opposite-Spin Energy  =      -0.9703562828267531 [Eh]
	 SCS Correlation Energy    =      -1.0519327632274589 [Eh]
	 SCS Total Energy          =    -244.7077319366376855 [Eh]
	-----------------------------------------------------------

  Dipole Moment: [D]
     X:    -0.9262      Y:    -0.0827      Z:    -0.8989     Total:     1.2933

*** Psi4 exiting successfully. Buy a developer a beer!
