                               Psi4 1.4a3.dev225

  ==> Input File <==

--------------------------------------------------------------------------
#psi4
#
memory 32 gb

molecule  {
1 1
  C        1.9513750    -0.0476850     0.0410900
  C       -0.5109630    -0.0088300    -0.0208070
  N        0.6383630    -0.6790700    -0.0530430
  N       -0.5025753     1.2795441     0.0231126
  N       -1.6788480    -0.6625100     0.0611020
  H        0.5992730    -1.6821200    -0.1885540
  H        0.3071780     1.8489940    -0.2875250
  H       -1.3771720     1.8372740     0.0557700
  H       -1.6998490    -1.6741350     0.0517440
  H       -2.5379350    -0.1934290    -0.1962670
  H        1.9812500     0.6292430     0.8968410
  H        2.1994310     0.4949160    -0.8747400
  H        2.6844950    -0.8371890     0.1909030
units angstrom
no_reorient  #important for SAPT in psi4, default
symmetry c1  #important for SAPT in psi4, default
}

set PROPERTIES_ORIGIN ["COM"]
properties('MP2/aug-cc-pvtz', properties = ['dipole'])
--------------------------------------------------------------------------

    Molecular point group: c1
  Charge       = 1
  Multiplicity = 1
  Basis Set: AUG-CC-PVTZ
    Blend: AUG-CC-PVTZ
  Basis Set: (AUG-CC-PVTZ AUX)
    Blend: AUG-CC-PVTZ-JKFIT

    Orbital Energies [Eh]
    ---------------------

    Doubly Occupied:

       1A    -15.795705     2A    -15.786619     3A    -15.783902
       4A    -11.587953     5A    -11.435097     6A     -1.548803
       7A     -1.405097     8A     -1.392018     9A     -1.143799
      10A     -1.045577    11A     -0.977465    12A     -0.940103
      13A     -0.867496    14A     -0.852912    15A     -0.822900
      16A     -0.795710    17A     -0.748389    18A     -0.727670
      19A     -0.626709    20A     -0.592535

  @DF-RHF Final Energy:  -243.65327860705651

   => Energetics <=

    Nuclear Repulsion Energy =            194.1810726987669682
    One-Electron Energy =                -705.9157804730460839
    Two-Electron Energy =                 268.0814291672226091
    Total Energy =                       -243.6532786070565066
  Basis Set: (AUG-CC-PVTZ AUX)
    Blend: AUG-CC-PVTZ-RI
    Molecular point group: c1

    Geometry (in Angstrom), charge = 1, multiplicity = 1:

       Center              X                  Y                   Z               Mass
    ------------   -----------------  -----------------  -----------------  -----------------
         C            1.980388685477    -0.032564473184     0.036698138882    12.000000000000
         C           -0.481949314523     0.006290526816    -0.025198861118    12.000000000000
         N            0.667376685477    -0.663949473184    -0.057434861118    14.003074004430
         N           -0.473561614523     1.294664626816     0.018720738882    14.003074004430
         N           -1.649834314523    -0.647389473184     0.056710138882    14.003074004430
         H            0.628286685477    -1.666999473184    -0.192945861118     1.007825032230
         H            0.336191685477     1.864114526816    -0.291916861118     1.007825032230
         H           -1.348158314523     1.852394526816     0.051378138882     1.007825032230
         H           -1.670835314523    -1.659014473184     0.047352138882     1.007825032230
         H           -2.508921314523    -0.178308473184    -0.200658861118     1.007825032230
         H            2.010263685477     0.644363526816     0.892449138882     1.007825032230
         H            2.228444685477     0.510036526816    -0.879131861118     1.007825032230
         H            2.713508685477    -0.822068473184     0.186511138882     1.007825032230

  Basis Set: AUG-CC-PVTZ
    Blend: AUG-CC-PVTZ
  Basis Set: (AUG-CC-PVTZ AUX)
    Blend: AUG-CC-PVTZ-JKFIT
	 Reference Energy          =    -243.6532786070565066 [Eh]
	 Singles Energy            =      -0.0000000000000000 [Eh]
	 Same-Spin Energy          =      -0.2455475682590113 [Eh]
	 Opposite-Spin Energy      =      -0.8092799497789442 [Eh]
	 Correlation Energy        =      -1.0548275180379556 [Eh]
	 Total Energy              =    -244.7081061250944742 [Eh]

	 ================> DF-SCS-MP2 Energies <==================
	-----------------------------------------------------------
	 SCS Same-Spin Scale       =       0.3333333333333333 [-]
	 SCS Opposite-Spin Scale   =       1.2000000000000000 [-]
	 SCS Same-Spin Energy      =      -0.0818491894196704 [Eh]
	 SCS Opposite-Spin Energy  =      -0.9711359397347330 [Eh]
	 SCS Correlation Energy    =      -1.0529851291544035 [Eh]
	 SCS Total Energy          =    -244.7062637362109001 [Eh]
	-----------------------------------------------------------

  Dipole Moment: [D]
     X:    -1.1958      Y:     0.2255      Z:    -0.8888     Total:     1.5069

*** Psi4 exiting successfully. Buy a developer a beer!
