                               Psi4 1.3.2 release

  ==> Input File <==

--------------------------------------------------------------------------
#psi4
#
memory 32 gb

molecule  {
1 1
  C        1.9603260    -0.0474630     0.0649610
  C       -0.5119490    -0.0070210    -0.0238890
  N        0.6418760    -0.6705780    -0.0750100
  N       -0.5227960     1.3301210    -0.0115770
  N       -1.6711500    -0.6772890     0.0386260
  H        0.6032940    -1.6549680    -0.3141340
  H        0.4510027     1.9740999    -0.3345767
  H       -1.3594750     1.8446160     0.2321210
  H       -1.6988330    -1.6603540     0.2762120
  H       -2.5540630    -0.2212690    -0.1512530
  H        1.9599500     0.6280700     0.9221430
  H        2.2491870     0.4866410    -0.8442620
  H        2.6839440    -0.8393840     0.2497200
units angstrom
no_reorient  #important for SAPT in psi4, default
symmetry c1  #important for SAPT in psi4, default
}

set PROPERTIES_ORIGIN ["COM"]
properties('MP2/aug-cc-pvtz', properties = ['dipole'])
--------------------------------------------------------------------------

    Molecular point group: c1
  Charge       = 1
  Multiplicity = 1
  Basis Set: AUG-CC-PVTZ
    Blend: AUG-CC-PVTZ
  Basis Set: (AUG-CC-PVTZ AUX)
    Blend: AUG-CC-PVTZ-JKFIT

    Orbital Energies [Eh]
    ---------------------

    Doubly Occupied:

       1A    -15.800331     2A    -15.787396     3A    -15.784478
       4A    -11.592312     5A    -11.435977     6A     -1.531942
       7A     -1.398785     8A     -1.371111     9A     -1.142514
      10A     -1.030313    11A     -0.963483    12A     -0.931401
      13A     -0.859476    14A     -0.845140    15A     -0.799344
      16A     -0.792052    17A     -0.740093    18A     -0.725588
      19A     -0.618630    20A     -0.591340

  @DF-RHF Final Energy:  -243.62709620053977

   => Energetics <=

    Nuclear Repulsion Energy =            191.9543435203412969
    One-Electron Energy =                -701.6794706793215255
    Two-Electron Energy =                 266.0980309584404608
    Total Energy =                       -243.6270962005397678
  Basis Set: (AUG-CC-PVTZ AUX)
    Blend: AUG-CC-PVTZ-RI
    Molecular point group: c1

    Geometry (in Angstrom), charge = 1, multiplicity = 1:

       Center              X                  Y                   Z               Mass
    ------------   -----------------  -----------------  -----------------  -----------------
         C            1.987326130496    -0.042866210536     0.066884614935    12.000000000000
         C           -0.484948869504    -0.002424210536    -0.021965385065    12.000000000000
         N            0.668876130496    -0.665981210536    -0.073086385065    14.003074004430
         N           -0.495795869504     1.334717789464    -0.009653385065    14.003074004430
         N           -1.644149869504    -0.672692210536     0.040549614935    14.003074004430
         H            0.630294130496    -1.650371210536    -0.312210385065     1.007825032230
         H            0.478002830496     1.978696689464    -0.332653085065     1.007825032230
         H           -1.332474869504     1.849212789464     0.234044614935     1.007825032230
         H           -1.671832869504    -1.655757210536     0.278135614935     1.007825032230
         H           -2.527062869504    -0.216672210536    -0.149329385065     1.007825032230
         H            1.986950130496     0.632666789464     0.924066614935     1.007825032230
         H            2.276187130496     0.491237789464    -0.842338385065     1.007825032230
         H            2.710944130496    -0.834787210536     0.251643614935     1.007825032230

  Basis Set: AUG-CC-PVTZ
    Blend: AUG-CC-PVTZ
  Basis Set: (AUG-CC-PVTZ AUX)
    Blend: AUG-CC-PVTZ-JKFIT
	 Reference Energy          =    -243.6270962005397678 [Eh]
	 Singles Energy            =      -0.0000000000000000 [Eh]
	 Same-Spin Energy          =      -0.2467106655342078 [Eh]
	 Opposite-Spin Energy      =      -0.8131081041778959 [Eh]
	 Correlation Energy        =      -1.0598187697121038 [Eh]
	 Total Energy              =    -244.6869149702518769 [Eh]

	 ================> DF-SCS-MP2 Energies <==================
	-----------------------------------------------------------
	 SCS Same-Spin Scale       =       0.3333333333333333 [-]
	 SCS Opposite-Spin Scale   =       1.2000000000000000 [-]
	 SCS Same-Spin Energy      =      -0.0822368885114026 [Eh]
	 SCS Opposite-Spin Energy  =      -0.9757297250134751 [Eh]
	 SCS Correlation Energy    =      -1.0579666135248778 [Eh]
	 SCS Total Energy          =    -244.6850628140646506 [Eh]
	-----------------------------------------------------------

  Dipole Moment: [D]
     X:    -0.9837      Y:     0.2447      Z:    -0.2266     Total:     1.0387

*** Psi4 exiting successfully. Buy a developer a beer!
