                               Psi4 1.3.2 release

  ==> Input File <==

--------------------------------------------------------------------------
#psi4
#
memory 32 gb

molecule  {
1 1
  C        1.9603260    -0.0474630     0.0649610
  C       -0.5119490    -0.0070210    -0.0238890
  N        0.6418760    -0.6705780    -0.0750100
  N       -0.6158860     1.3260579    -0.0061223
  N       -1.6711500    -0.6772890     0.0386260
  H        0.6032940    -1.6549680    -0.3141340
  H        0.2902210     1.8677740    -0.2812470
  H       -1.3594750     1.8446160     0.2321210
  H       -1.6988330    -1.6603540     0.2762120
  H       -2.5540630    -0.2212690    -0.1512530
  H        1.9599500     0.6280700     0.9221430
  H        2.2491870     0.4866410    -0.8442620
  H        2.6839440    -0.8393840     0.2497200
units angstrom
no_reorient  #important for SAPT in psi4, default
symmetry c1  #important for SAPT in psi4, default
}

set PROPERTIES_ORIGIN ["COM"]
properties('MP2/aug-cc-pvtz', properties = ['dipole'])
--------------------------------------------------------------------------

    Molecular point group: c1
  Charge       = 1
  Multiplicity = 1
  Basis Set: AUG-CC-PVTZ
    Blend: AUG-CC-PVTZ
  Basis Set: (AUG-CC-PVTZ AUX)
    Blend: AUG-CC-PVTZ-JKFIT

    Orbital Energies [Eh]
    ---------------------

    Doubly Occupied:

       1A    -15.794206     2A    -15.789736     3A    -15.782535
       4A    -11.596295     5A    -11.438331     6A     -1.538456
       7A     -1.408878     8A     -1.383069     9A     -1.146677
      10A     -1.050754    11A     -0.972692    12A     -0.939917
      13A     -0.880959    14A     -0.853913    15A     -0.810755
      16A     -0.794832    17A     -0.743120    18A     -0.729566
      19A     -0.621791    20A     -0.595662

  @DF-RHF Final Energy:  -243.64390520403350

   => Energetics <=

    Nuclear Repulsion Energy =            192.6138969074163754
    One-Electron Energy =                -702.7713177248955390
    Two-Electron Energy =                 266.5135156134456906
    Total Energy =                       -243.6439052040335014
  Basis Set: (AUG-CC-PVTZ AUX)
    Blend: AUG-CC-PVTZ-RI
    Molecular point group: c1

    Geometry (in Angstrom), charge = 1, multiplicity = 1:

       Center              X                  Y                   Z               Mass
    ------------   -----------------  -----------------  -----------------  -----------------
         C            2.007112142722    -0.040651416994     0.065127812275    12.000000000000
         C           -0.465162857278    -0.000209416994    -0.023722187725    12.000000000000
         N            0.688662142722    -0.663766416994    -0.074843187725    14.003074004430
         N           -0.569099857278     1.332869483006    -0.005955487725    14.003074004430
         N           -1.624363857278    -0.670477416994     0.038792812275    14.003074004430
         H            0.650080142722    -1.648156416994    -0.313967187725     1.007825032230
         H            0.337007142722     1.874585583006    -0.281080187725     1.007825032230
         H           -1.312688857278     1.851427583006     0.232287812275     1.007825032230
         H           -1.652046857278    -1.653542416994     0.276378812275     1.007825032230
         H           -2.507276857278    -0.214457416994    -0.151086187725     1.007825032230
         H            2.006736142722     0.634881583006     0.922309812275     1.007825032230
         H            2.295973142722     0.493452583006    -0.844095187725     1.007825032230
         H            2.730730142722    -0.832572416994     0.249886812275     1.007825032230

  Basis Set: AUG-CC-PVTZ
    Blend: AUG-CC-PVTZ
  Basis Set: (AUG-CC-PVTZ AUX)
    Blend: AUG-CC-PVTZ-JKFIT
	 Reference Energy          =    -243.6439052040335014 [Eh]
	 Singles Energy            =      -0.0000000000000000 [Eh]
	 Same-Spin Energy          =      -0.2453894253361649 [Eh]
	 Opposite-Spin Energy      =      -0.8098364153385256 [Eh]
	 Correlation Energy        =      -1.0552258406746904 [Eh]
	 Total Energy              =    -244.6991310447081958 [Eh]

	 ================> DF-SCS-MP2 Energies <==================
	-----------------------------------------------------------
	 SCS Same-Spin Scale       =       0.3333333333333333 [-]
	 SCS Opposite-Spin Scale   =       1.2000000000000000 [-]
	 SCS Same-Spin Energy      =      -0.0817964751120550 [Eh]
	 SCS Opposite-Spin Energy  =      -0.9718036984062306 [Eh]
	 SCS Correlation Energy    =      -1.0536001735182856 [Eh]
	 SCS Total Energy          =    -244.6975053775517779 [Eh]
	-----------------------------------------------------------

  Dipole Moment: [D]
     X:    -0.9218      Y:     0.0083      Z:    -0.1368     Total:     0.9320

*** Psi4 exiting successfully. Buy a developer a beer!
