                               Psi4 1.3.2 release

  ==> Input File <==

--------------------------------------------------------------------------
#psi4
#
memory 32 gb

molecule  {
1 1
  C        1.9603260    -0.0474630     0.0649610
  C       -0.5119490    -0.0070210    -0.0238890
  N        0.6418760    -0.6705780    -0.0750100
  N       -0.5693760     1.3289033    -0.0088405
  N       -1.6711500    -0.6772890     0.0386260
  H        0.6032940    -1.6549680    -0.3141340
  H        0.2902210     1.8677740    -0.2812470
  H       -1.3594750     1.8446160     0.2321210
  H       -1.6988330    -1.6603540     0.2762120
  H       -2.5540630    -0.2212690    -0.1512530
  H        1.9599500     0.6280700     0.9221430
  H        2.2491870     0.4866410    -0.8442620
  H        2.6839440    -0.8393840     0.2497200
units angstrom
no_reorient  #important for SAPT in psi4, default
symmetry c1  #important for SAPT in psi4, default
}

set PROPERTIES_ORIGIN ["COM"]
properties('MP2/aug-cc-pvtz', properties = ['dipole'])
--------------------------------------------------------------------------

    Molecular point group: c1
  Charge       = 1
  Multiplicity = 1
  Basis Set: AUG-CC-PVTZ
    Blend: AUG-CC-PVTZ
  Basis Set: (AUG-CC-PVTZ AUX)
    Blend: AUG-CC-PVTZ-JKFIT

    Orbital Energies [Eh]
    ---------------------

    Doubly Occupied:

       1A    -15.792034     2A    -15.789956     3A    -15.784580
       4A    -11.595489     5A    -11.437240     6A     -1.538100
       7A     -1.405403     8A     -1.385602     9A     -1.145468
      10A     -1.045009    11A     -0.974747    12A     -0.938287
      13A     -0.875681    14A     -0.860660    15A     -0.815068
      16A     -0.794390    17A     -0.742606    18A     -0.728503
      19A     -0.622909    20A     -0.594525

  @DF-RHF Final Energy:  -243.65396600557756

   => Energetics <=

    Nuclear Repulsion Energy =            192.7026085973513148
    One-Electron Energy =                -702.9806345252939082
    Two-Electron Energy =                 266.6240599223650634
    Total Energy =                       -243.6539660055775585
  Basis Set: (AUG-CC-PVTZ AUX)
    Blend: AUG-CC-PVTZ-RI
    Molecular point group: c1

    Geometry (in Angstrom), charge = 1, multiplicity = 1:

       Center              X                  Y                   Z               Mass
    ------------   -----------------  -----------------  -----------------  -----------------
         C            1.998319555311    -0.041189332028     0.065641680499    12.000000000000
         C           -0.473955444689    -0.000747332028    -0.023208319501    12.000000000000
         N            0.679869555311    -0.664304332028    -0.074329319501    14.003074004430
         N           -0.531382444689     1.335176967972    -0.008159819501    14.003074004430
         N           -1.633156444689    -0.671015332028     0.039306680499    14.003074004430
         H            0.641287555311    -1.648694332028    -0.313453319501     1.007825032230
         H            0.328214555311     1.874047667972    -0.280566319501     1.007825032230
         H           -1.321481444689     1.850889667972     0.232801680499     1.007825032230
         H           -1.660839444689    -1.654080332028     0.276892680499     1.007825032230
         H           -2.516069444689    -0.214995332028    -0.150572319501     1.007825032230
         H            1.997943555311     0.634343667972     0.922823680499     1.007825032230
         H            2.287180555311     0.492914667972    -0.843581319501     1.007825032230
         H            2.721937555311    -0.833110332028     0.250400680499     1.007825032230

  Basis Set: AUG-CC-PVTZ
    Blend: AUG-CC-PVTZ
  Basis Set: (AUG-CC-PVTZ AUX)
    Blend: AUG-CC-PVTZ-JKFIT
	 Reference Energy          =    -243.6539660055775585 [Eh]
	 Singles Energy            =      -0.0000000000000000 [Eh]
	 Same-Spin Energy          =      -0.2452743971479312 [Eh]
	 Opposite-Spin Energy      =      -0.8094011347742396 [Eh]
	 Correlation Energy        =      -1.0546755319221708 [Eh]
	 Total Energy              =    -244.7086415374997159 [Eh]

	 ================> DF-SCS-MP2 Energies <==================
	-----------------------------------------------------------
	 SCS Same-Spin Scale       =       0.3333333333333333 [-]
	 SCS Opposite-Spin Scale   =       1.2000000000000000 [-]
	 SCS Same-Spin Energy      =      -0.0817581323826437 [Eh]
	 SCS Opposite-Spin Energy  =      -0.9712813617290874 [Eh]
	 SCS Correlation Energy    =      -1.0530394941117311 [Eh]
	 SCS Total Energy          =    -244.7070054996893020 [Eh]
	-----------------------------------------------------------

  Dipole Moment: [D]
     X:    -1.0566      Y:     0.0161      Z:    -0.1453     Total:     1.0666

*** Psi4 exiting successfully. Buy a developer a beer!
