                               Psi4 1.3.2 release

  ==> Input File <==

--------------------------------------------------------------------------
#psi4
#
memory 32 gb

molecule  {
1 1
  C        1.9603260    -0.0474630     0.0649610
  C       -0.5119490    -0.0070210    -0.0238890
  N        0.6180181    -0.7104791    -0.0744296
  N       -0.5227960     1.3301210    -0.0115770
  N       -1.6711500    -0.6772890     0.0386260
  H        0.6032940    -1.6549680    -0.3141340
  H        0.2902210     1.8677740    -0.2812470
  H       -1.3594750     1.8446160     0.2321210
  H       -1.6988330    -1.6603540     0.2762120
  H       -2.5540630    -0.2212690    -0.1512530
  H        1.9599500     0.6280700     0.9221430
  H        2.2491870     0.4866410    -0.8442620
  H        2.6839440    -0.8393840     0.2497200
units angstrom
no_reorient  #important for SAPT in psi4, default
symmetry c1  #important for SAPT in psi4, default
}

set PROPERTIES_ORIGIN ["COM"]
properties('MP2/aug-cc-pvtz', properties = ['dipole'])
--------------------------------------------------------------------------

    Molecular point group: c1
  Charge       = 1
  Multiplicity = 1
  Basis Set: AUG-CC-PVTZ
    Blend: AUG-CC-PVTZ
  Basis Set: (AUG-CC-PVTZ AUX)
    Blend: AUG-CC-PVTZ-JKFIT

    Orbital Energies [Eh]
    ---------------------

    Doubly Occupied:

       1A    -15.791993     2A    -15.787086     3A    -15.784468
       4A    -11.595294     5A    -11.439428     6A     -1.537239
       7A     -1.400744     8A     -1.387542     9A     -1.139114
      10A     -1.049880    11A     -0.978268    12A     -0.939046
      13A     -0.874731    14A     -0.865591    15A     -0.813321
      16A     -0.783097    17A     -0.742599    18A     -0.730869
      19A     -0.624467    20A     -0.595895

  @DF-RHF Final Energy:  -243.65527566631459

   => Energetics <=

    Nuclear Repulsion Energy =            192.5038267832114229
    One-Electron Energy =                -702.5968591905872245
    Two-Electron Energy =                 266.4377567410612073
    Total Energy =                       -243.6552756663145942
  Basis Set: (AUG-CC-PVTZ AUX)
    Blend: AUG-CC-PVTZ-RI
    Molecular point group: c1

    Geometry (in Angstrom), charge = 1, multiplicity = 1:

       Center              X                  Y                   Z               Mass
    ------------   -----------------  -----------------  -----------------  -----------------
         C            1.994024004884    -0.033876341793     0.066049285266    12.000000000000
         C           -0.478250995116     0.006565658207    -0.022800714734    12.000000000000
         N            0.651716104884    -0.696892441793    -0.073341314734    14.003074004430
         N           -0.489097995116     1.343707658207    -0.010488714734    14.003074004430
         N           -1.637451995116    -0.663702341793     0.039714285266    14.003074004430
         H            0.636992004884    -1.641381341793    -0.313045714734     1.007825032230
         H            0.323919004884     1.881360658207    -0.280158714734     1.007825032230
         H           -1.325776995116     1.858202658207     0.233209285266     1.007825032230
         H           -1.665134995116    -1.646767341793     0.277300285266     1.007825032230
         H           -2.520364995116    -0.207682341793    -0.150164714734     1.007825032230
         H            1.993648004884     0.641656658207     0.923231285266     1.007825032230
         H            2.282885004884     0.500227658207    -0.843173714734     1.007825032230
         H            2.717642004884    -0.825797341793     0.250808285266     1.007825032230

  Basis Set: AUG-CC-PVTZ
    Blend: AUG-CC-PVTZ
  Basis Set: (AUG-CC-PVTZ AUX)
    Blend: AUG-CC-PVTZ-JKFIT
	 Reference Energy          =    -243.6552756663145942 [Eh]
	 Singles Energy            =      -0.0000000000000000 [Eh]
	 Same-Spin Energy          =      -0.2448429467138822 [Eh]
	 Opposite-Spin Energy      =      -0.8089252478465572 [Eh]
	 Correlation Energy        =      -1.0537681945604394 [Eh]
	 Total Energy              =    -244.7090438608750276 [Eh]

	 ================> DF-SCS-MP2 Energies <==================
	-----------------------------------------------------------
	 SCS Same-Spin Scale       =       0.3333333333333333 [-]
	 SCS Opposite-Spin Scale   =       1.2000000000000000 [-]
	 SCS Same-Spin Energy      =      -0.0816143155712941 [Eh]
	 SCS Opposite-Spin Energy  =      -0.9707102974158686 [Eh]
	 SCS Correlation Energy    =      -1.0523246129871626 [Eh]
	 SCS Total Energy          =    -244.7076002793017437 [Eh]
	-----------------------------------------------------------

  Dipole Moment: [D]
     X:    -1.1216      Y:     0.1446      Z:    -0.1643     Total:     1.1428

*** Psi4 exiting successfully. Buy a developer a beer!
