                               Psi4 1.3.2 release

  ==> Input File <==

--------------------------------------------------------------------------
#psi4
#
memory 32 gb

molecule  {
1 1
  C        1.9603260    -0.0474630     0.0649610
  C       -0.5119490    -0.0070210    -0.0238890
  N        0.7284993    -0.7203945    -0.0788479
  N       -0.5227960     1.3301210    -0.0115770
  N       -1.6711500    -0.6772890     0.0386260
  H        0.6032940    -1.6549680    -0.3141340
  H        0.2902210     1.8677740    -0.2812470
  H       -1.3594750     1.8446160     0.2321210
  H       -1.6988330    -1.6603540     0.2762120
  H       -2.5540630    -0.2212690    -0.1512530
  H        1.9599500     0.6280700     0.9221430
  H        2.2491870     0.4866410    -0.8442620
  H        2.6839440    -0.8393840     0.2497200
units angstrom
no_reorient  #important for SAPT in psi4, default
symmetry c1  #important for SAPT in psi4, default
}

set PROPERTIES_ORIGIN ["COM"]
properties('MP2/aug-cc-pvtz', properties = ['dipole'])
--------------------------------------------------------------------------

    Molecular point group: c1
  Charge       = 1
  Multiplicity = 1
  Basis Set: AUG-CC-PVTZ
    Blend: AUG-CC-PVTZ
  Basis Set: (AUG-CC-PVTZ AUX)
    Blend: AUG-CC-PVTZ-JKFIT

    Orbital Energies [Eh]
    ---------------------

    Doubly Occupied:

       1A    -15.800084     2A    -15.797194     3A    -15.783544
       4A    -11.608034     5A    -11.425696     6A     -1.528597
       7A     -1.404224     8A     -1.394684     9A     -1.134156
      10A     -1.050976    11A     -0.973454    12A     -0.942217
      13A     -0.877012    14A     -0.862488    15A     -0.813694
      16A     -0.803124    17A     -0.744481    18A     -0.715024
      19A     -0.628975    20A     -0.582946

  @DF-RHF Final Energy:  -243.64203090257945

   => Energetics <=

    Nuclear Repulsion Energy =            191.5769919119830718
    One-Electron Energy =                -700.6968376585443821
    Two-Electron Energy =                 265.4778148439818324
    Total Energy =                       -243.6420309025794495
  Basis Set: (AUG-CC-PVTZ AUX)
    Blend: AUG-CC-PVTZ-RI
    Molecular point group: c1

    Geometry (in Angstrom), charge = 1, multiplicity = 1:

       Center              X                  Y                   Z               Mass
    ------------   -----------------  -----------------  -----------------  -----------------
         C            1.973137838292    -0.032001862731     0.066884552713    12.000000000000
         C           -0.499137161708     0.008440137269    -0.021965447287    12.000000000000
         N            0.741311138292    -0.704933362731    -0.076924347287    14.003074004430
         N           -0.509984161708     1.345582137269    -0.009653447287    14.003074004430
         N           -1.658338161708    -0.661827862731     0.040549552713    14.003074004430
         H            0.616105838292    -1.639506862731    -0.312210447287     1.007825032230
         H            0.303032838292     1.883235137269    -0.279323447287     1.007825032230
         H           -1.346663161708     1.860077137269     0.234044552713     1.007825032230
         H           -1.686021161708    -1.644892862731     0.278135552713     1.007825032230
         H           -2.541251161708    -0.205807862731    -0.149329447287     1.007825032230
         H            1.972761838292     0.643531137269     0.924066552713     1.007825032230
         H            2.261998838292     0.502102137269    -0.842338447287     1.007825032230
         H            2.696755838292    -0.823922862731     0.251643552713     1.007825032230

  Basis Set: AUG-CC-PVTZ
    Blend: AUG-CC-PVTZ
  Basis Set: (AUG-CC-PVTZ AUX)
    Blend: AUG-CC-PVTZ-JKFIT
	 Reference Energy          =    -243.6420309025794495 [Eh]
	 Singles Energy            =      -0.0000000000000000 [Eh]
	 Same-Spin Energy          =      -0.2457645990748952 [Eh]
	 Opposite-Spin Energy      =      -0.8103960035094910 [Eh]
	 Correlation Energy        =      -1.0561606025843862 [Eh]
	 Total Energy              =    -244.6981915051638339 [Eh]

	 ================> DF-SCS-MP2 Energies <==================
	-----------------------------------------------------------
	 SCS Same-Spin Scale       =       0.3333333333333333 [-]
	 SCS Opposite-Spin Scale   =       1.2000000000000000 [-]
	 SCS Same-Spin Energy      =      -0.0819215330249651 [Eh]
	 SCS Opposite-Spin Energy  =      -0.9724752042113892 [Eh]
	 SCS Correlation Energy    =      -1.0543967372363543 [Eh]
	 SCS Total Energy          =    -244.6964276398157949 [Eh]
	-----------------------------------------------------------

  Dipole Moment: [D]
     X:    -1.8191      Y:     0.2702      Z:    -0.1291     Total:     1.8436

*** Psi4 exiting successfully. Buy a developer a beer!
