                               Psi4 1.3.2 release

  ==> Input File <==

--------------------------------------------------------------------------
#psi4
#
memory 32 gb

molecule  {
1 1
  C        1.9603260    -0.0474630     0.0649610
  C       -0.5119490    -0.0070210    -0.0238890
  N        0.6418760    -0.6705780    -0.0750100
  N       -0.5244183     1.5301059    -0.0097356
  N       -1.6711500    -0.6772890     0.0386260
  H        0.6032940    -1.6549680    -0.3141340
  H        0.2902210     1.8677740    -0.2812470
  H       -1.3594750     1.8446160     0.2321210
  H       -1.6988330    -1.6603540     0.2762120
  H       -2.5540630    -0.2212690    -0.1512530
  H        1.9599500     0.6280700     0.9221430
  H        2.2491870     0.4866410    -0.8442620
  H        2.6839440    -0.8393840     0.2497200
units angstrom
no_reorient  #important for SAPT in psi4, default
symmetry c1  #important for SAPT in psi4, default
}

set PROPERTIES_ORIGIN ["COM"]
properties('MP2/aug-cc-pvtz', properties = ['dipole'])
--------------------------------------------------------------------------

    Molecular point group: c1
  Charge       = 1
  Multiplicity = 1
  Basis Set: AUG-CC-PVTZ
    Blend: AUG-CC-PVTZ
  Basis Set: (AUG-CC-PVTZ AUX)
    Blend: AUG-CC-PVTZ-JKFIT

    Orbital Energies [Eh]
    ---------------------

    Doubly Occupied:

       1A    -15.806303     2A    -15.802010     3A    -15.772610
       4A    -11.613372     5A    -11.441124     6A     -1.523714
       7A     -1.408363     8A     -1.379214     9A     -1.151586
      10A     -1.037249    11A     -0.988294    12A     -0.933722
      13A     -0.919533    14A     -0.831209    15A     -0.813576
      16A     -0.794188    17A     -0.735962    18A     -0.730300
      19A     -0.620613    20A     -0.600184

  @DF-RHF Final Energy:  -243.60843618705400

   => Energetics <=

    Nuclear Repulsion Energy =            189.2299736535499619
    One-Electron Energy =                -695.8705657494052730
    Two-Electron Energy =                 263.0321559088013146
    Total Energy =                       -243.6084361870539965
  Basis Set: (AUG-CC-PVTZ AUX)
    Blend: AUG-CC-PVTZ-RI
    Molecular point group: c1

    Geometry (in Angstrom), charge = 1, multiplicity = 1:

       Center              X                  Y                   Z               Mass
    ------------   -----------------  -----------------  -----------------  -----------------
         C            1.989820425941    -0.079226129440     0.065810896689    12.000000000000
         C           -0.482454574059    -0.038784129440    -0.023039103311    12.000000000000
         N            0.671370425941    -0.702341129440    -0.074160103311    14.003074004430
         N           -0.494923874059     1.498342770560    -0.008885703311    14.003074004430
         N           -1.641655574059    -0.709052129440     0.039475896689    14.003074004430
         H            0.632788425941    -1.686731129440    -0.313284103311     1.007825032230
         H            0.319715425941     1.836010870560    -0.280397103311     1.007825032230
         H           -1.329980574059     1.812852870560     0.232970896689     1.007825032230
         H           -1.669338574059    -1.692117129440     0.277061896689     1.007825032230
         H           -2.524568574059    -0.253032129440    -0.150403103311     1.007825032230
         H            1.989444425941     0.596306870560     0.922992896689     1.007825032230
         H            2.278681425941     0.454877870560    -0.843412103311     1.007825032230
         H            2.713438425941    -0.871147129440     0.250569896689     1.007825032230

  Basis Set: AUG-CC-PVTZ
    Blend: AUG-CC-PVTZ
  Basis Set: (AUG-CC-PVTZ AUX)
    Blend: AUG-CC-PVTZ-JKFIT
	 Reference Energy          =    -243.6084361870539965 [Eh]
	 Singles Energy            =      -0.0000000000000000 [Eh]
	 Same-Spin Energy          =      -0.2447895720342821 [Eh]
	 Opposite-Spin Energy      =      -0.8111070724475322 [Eh]
	 Correlation Energy        =      -1.0558966444818143 [Eh]
	 Total Energy              =    -244.6643328315358019 [Eh]

	 ================> DF-SCS-MP2 Energies <==================
	-----------------------------------------------------------
	 SCS Same-Spin Scale       =       0.3333333333333333 [-]
	 SCS Opposite-Spin Scale   =       1.2000000000000000 [-]
	 SCS Same-Spin Energy      =      -0.0815965240114274 [Eh]
	 SCS Opposite-Spin Energy  =      -0.9733284869370387 [Eh]
	 SCS Correlation Energy    =      -1.0549250109484660 [Eh]
	 SCS Total Energy          =    -244.6633611980024625 [Eh]
	-----------------------------------------------------------

  Dipole Moment: [D]
     X:    -1.0983      Y:    -1.1748      Z:    -0.1533     Total:     1.6155

*** Psi4 exiting successfully. Buy a developer a beer!
