                               Psi4 1.4a3.dev225

  ==> Input File <==

--------------------------------------------------------------------------
#psi4
#
memory 32 gb

molecule  {
1 1
  C        1.9513750    -0.0476850     0.0410900
  C       -0.5109630    -0.0088300    -0.0208070
  N        0.6833301    -0.6574468    -0.0498192
  N       -0.5022500     1.3295140     0.0248160
  N       -1.6788480    -0.6625100     0.0611020
  H        0.5992730    -1.6821200    -0.1885540
  H        0.3071780     1.8489940    -0.2875250
  H       -1.3771720     1.8372740     0.0557700
  H       -1.6998490    -1.6741350     0.0517440
  H       -2.5379350    -0.1934290    -0.1962670
  H        1.9812500     0.6292430     0.8968410
  H        2.1994310     0.4949160    -0.8747400
  H        2.6844950    -0.8371890     0.1909030
units angstrom
no_reorient  #important for SAPT in psi4, default
symmetry c1  #important for SAPT in psi4, default
}

set PROPERTIES_ORIGIN ["COM"]
properties('MP2/aug-cc-pvtz', properties = ['dipole'])
--------------------------------------------------------------------------

    Molecular point group: c1
  Charge       = 1
  Multiplicity = 1
  Basis Set: AUG-CC-PVTZ
    Blend: AUG-CC-PVTZ
  Basis Set: (AUG-CC-PVTZ AUX)
    Blend: AUG-CC-PVTZ-JKFIT

    Orbital Energies [Eh]
    ---------------------

    Doubly Occupied:

       1A    -15.794013     2A    -15.792557     3A    -15.792078
       4A    -11.599819     5A    -11.430332     6A     -1.538373
       7A     -1.410065     8A     -1.391908     9A     -1.147848
      10A     -1.040045    11A     -0.975549    12A     -0.939335
      13A     -0.866007    14A     -0.856912    15A     -0.826668
      16A     -0.810024    17A     -0.746960    18A     -0.721569
      19A     -0.628146    20A     -0.588743

  @DF-RHF Final Energy:  -243.65180851641350

   => Energetics <=

    Nuclear Repulsion Energy =            193.1056310067573634
    One-Electron Energy =                -703.7209733188830114
    Two-Electron Energy =                 266.9635337957121806
    Total Energy =                       -243.6518085164134959
  Basis Set: (AUG-CC-PVTZ AUX)
    Blend: AUG-CC-PVTZ-RI
    Molecular point group: c1

    Geometry (in Angstrom), charge = 1, multiplicity = 1:

       Center              X                  Y                   Z               Mass
    ------------   -----------------  -----------------  -----------------  -----------------
         C            1.971826281994    -0.046098951570     0.035766665291    12.000000000000
         C           -0.490511718006    -0.007243951570    -0.026130334709    12.000000000000
         N            0.703781381994    -0.655860751570    -0.055142534709    14.003074004430
         N           -0.481798718006     1.331100048430     0.019492665291    14.003074004430
         N           -1.658396718006    -0.660923951570     0.055778665291    14.003074004430
         H            0.619724281994    -1.680533951570    -0.193877334709     1.007825032230
         H            0.327629281994     1.850580048430    -0.292848334709     1.007825032230
         H           -1.356720718006     1.838860048430     0.050446665291     1.007825032230
         H           -1.679397718006    -1.672548951570     0.046420665291     1.007825032230
         H           -2.517483718006    -0.191842951570    -0.201590334709     1.007825032230
         H            2.001701281994     0.630829048430     0.891517665291     1.007825032230
         H            2.219882281994     0.496502048430    -0.880063334709     1.007825032230
         H            2.704946281994    -0.835602951570     0.185579665291     1.007825032230

  Basis Set: AUG-CC-PVTZ
    Blend: AUG-CC-PVTZ
  Basis Set: (AUG-CC-PVTZ AUX)
    Blend: AUG-CC-PVTZ-JKFIT
	 Reference Energy          =    -243.6518085164134959 [Eh]
	 Singles Energy            =      -0.0000000000000000 [Eh]
	 Same-Spin Energy          =      -0.2458938934929649 [Eh]
	 Opposite-Spin Energy      =      -0.8101406306013226 [Eh]
	 Correlation Energy        =      -1.0560345240942874 [Eh]
	 Total Energy              =    -244.7078430405077825 [Eh]

	 ================> DF-SCS-MP2 Energies <==================
	-----------------------------------------------------------
	 SCS Same-Spin Scale       =       0.3333333333333333 [-]
	 SCS Opposite-Spin Scale   =       1.2000000000000000 [-]
	 SCS Same-Spin Energy      =      -0.0819646311643216 [Eh]
	 SCS Opposite-Spin Energy  =      -0.9721687567215871 [Eh]
	 SCS Correlation Energy    =      -1.0541333878859087 [Eh]
	 SCS Total Energy          =    -244.7059419042994080 [Eh]
	-----------------------------------------------------------

  Dipole Moment: [D]
     X:    -1.4199      Y:    -0.1511      Z:    -0.8908     Total:     1.6830

*** Psi4 exiting successfully. Buy a developer a beer!
