                               Psi4 1.3.2 release

  ==> Input File <==

--------------------------------------------------------------------------
#psi4
#
memory 32 gb

molecule  {
1 1
  C        1.9603260    -0.0474630     0.0649610
  C       -0.5119490    -0.0070210    -0.0238890
  N        0.6418760    -0.6705780    -0.0750100
  N       -0.5227960     1.3301210    -0.0115770
  N       -1.6711500    -0.6772890     0.0386260
  H        0.6032940    -1.6549680    -0.3141340
  H        0.1294393     1.7614481    -0.2279173
  H       -1.3594750     1.8446160     0.2321210
  H       -1.6988330    -1.6603540     0.2762120
  H       -2.5540630    -0.2212690    -0.1512530
  H        1.9599500     0.6280700     0.9221430
  H        2.2491870     0.4866410    -0.8442620
  H        2.6839440    -0.8393840     0.2497200
units angstrom
no_reorient  #important for SAPT in psi4, default
symmetry c1  #important for SAPT in psi4, default
}

set PROPERTIES_ORIGIN ["COM"]
properties('MP2/aug-cc-pvtz', properties = ['dipole'])
--------------------------------------------------------------------------

    Molecular point group: c1
  Charge       = 1
  Multiplicity = 1
  Basis Set: AUG-CC-PVTZ
    Blend: AUG-CC-PVTZ
  Basis Set: (AUG-CC-PVTZ AUX)
    Blend: AUG-CC-PVTZ-JKFIT

    Orbital Energies [Eh]
    ---------------------

    Doubly Occupied:

       1A    -15.792505     2A    -15.788978     3A    -15.772941
       4A    -11.598006     5A    -11.436349     6A     -1.548815
       7A     -1.422988     8A     -1.400736     9A     -1.147882
      10A     -1.069683    11A     -0.992926    12A     -0.946462
      13A     -0.897790    14A     -0.865447    15A     -0.823726
      16A     -0.795237    17A     -0.744048    18A     -0.728254
      19A     -0.630363    20A     -0.595210

  @DF-RHF Final Energy:  -243.61147680225457

   => Energetics <=

    Nuclear Repulsion Energy =            194.0009488564454614
    One-Electron Energy =                -705.2281575327364180
    Two-Electron Energy =                 267.6157318740363849
    Total Energy =                       -243.6114768022545718
  Basis Set: (AUG-CC-PVTZ AUX)
    Blend: AUG-CC-PVTZ-RI
    Molecular point group: c1

    Geometry (in Angstrom), charge = 1, multiplicity = 1:

       Center              X                  Y                   Z               Mass
    ------------   -----------------  -----------------  -----------------  -----------------
         C            1.991701338693    -0.039972859183     0.065433401640    12.000000000000
         C           -0.480573661307     0.000469140817    -0.023416598360    12.000000000000
         N            0.673251338693    -0.663087859183    -0.074537598360    14.003074004430
         N           -0.491420661307     1.337611140817    -0.011104598360    14.003074004430
         N           -1.639774661307    -0.669798859183     0.039098401640    14.003074004430
         H            0.634669338693    -1.647477859183    -0.313661598360     1.007825032230
         H            0.160814638693     1.768938240817    -0.227444898360     1.007825032230
         H           -1.328099661307     1.852106140817     0.232593401640     1.007825032230
         H           -1.667457661307    -1.652863859183     0.276684401640     1.007825032230
         H           -2.522687661307    -0.213778859183    -0.150780598360     1.007825032230
         H            1.991325338693     0.635560140817     0.922615401640     1.007825032230
         H            2.280562338693     0.494131140817    -0.843789598360     1.007825032230
         H            2.715319338693    -0.831893859183     0.250192401640     1.007825032230

  Basis Set: AUG-CC-PVTZ
    Blend: AUG-CC-PVTZ
  Basis Set: (AUG-CC-PVTZ AUX)
    Blend: AUG-CC-PVTZ-JKFIT
	 Reference Energy          =    -243.6114768022545718 [Eh]
	 Singles Energy            =      -0.0000000000000000 [Eh]
	 Same-Spin Energy          =      -0.2441736969480292 [Eh]
	 Opposite-Spin Energy      =      -0.8068712697148046 [Eh]
	 Correlation Energy        =      -1.0510449666628339 [Eh]
	 Total Energy              =    -244.6625217689174008 [Eh]

	 ================> DF-SCS-MP2 Energies <==================
	-----------------------------------------------------------
	 SCS Same-Spin Scale       =       0.3333333333333333 [-]
	 SCS Opposite-Spin Scale   =       1.2000000000000000 [-]
	 SCS Same-Spin Energy      =      -0.0813912323160097 [Eh]
	 SCS Opposite-Spin Energy  =      -0.9682455236577655 [Eh]
	 SCS Correlation Energy    =      -1.0496367559737751 [Eh]
	 SCS Total Energy          =    -244.6611135582283509 [Eh]
	-----------------------------------------------------------

  Dipole Moment: [D]
     X:    -1.3614      Y:    -0.1908      Z:    -0.0916     Total:     1.3777

*** Psi4 exiting successfully. Buy a developer a beer!
