                               Psi4 1.3.2 release

  ==> Input File <==

--------------------------------------------------------------------------
#psi4
#
memory 32 gb

molecule  {
1 1
  C        1.9603260    -0.0474630     0.0649610
  C       -0.5119490    -0.0070210    -0.0238890
  N        0.5662031    -0.7876625    -0.0730850
  N       -0.5227960     1.3301210    -0.0115770
  N       -1.6711500    -0.6772890     0.0386260
  H        0.6032940    -1.6549680    -0.3141340
  H        0.2902210     1.8677740    -0.2812470
  H       -1.3594750     1.8446160     0.2321210
  H       -1.6988330    -1.6603540     0.2762120
  H       -2.5540630    -0.2212690    -0.1512530
  H        1.9599500     0.6280700     0.9221430
  H        2.2491870     0.4866410    -0.8442620
  H        2.6839440    -0.8393840     0.2497200
units angstrom
no_reorient  #important for SAPT in psi4, default
symmetry c1  #important for SAPT in psi4, default
}

set PROPERTIES_ORIGIN ["COM"]
properties('MP2/aug-cc-pvtz', properties = ['dipole'])
--------------------------------------------------------------------------

    Molecular point group: c1
  Charge       = 1
  Multiplicity = 1
  Basis Set: AUG-CC-PVTZ
    Blend: AUG-CC-PVTZ
  Basis Set: (AUG-CC-PVTZ AUX)
    Blend: AUG-CC-PVTZ-JKFIT

    Orbital Energies [Eh]
    ---------------------

    Doubly Occupied:

       1A    -15.795859     2A    -15.781002     3A    -15.780012
       4A    -11.596709     5A    -11.446064     6A     -1.536587
       7A     -1.403700     8A     -1.382111     9A     -1.130041
      10A     -1.067557    11A     -0.984194    12A     -0.940137
      13A     -0.880706    14A     -0.867333    15A     -0.807547
      16A     -0.760550    17A     -0.744539    18A     -0.732138
      19A     -0.625754    20A     -0.599099

  @DF-RHF Final Energy:  -243.63233020061310

   => Energetics <=

    Nuclear Repulsion Energy =            191.9528429968642911
    One-Electron Energy =                -701.4470685361474125
    Two-Electron Energy =                 265.8618953386700241
    Total Energy =                       -243.6323302006130689
  Basis Set: (AUG-CC-PVTZ AUX)
    Blend: AUG-CC-PVTZ-RI
    Molecular point group: c1

    Geometry (in Angstrom), charge = 1, multiplicity = 1:

       Center              X                  Y                   Z               Mass
    ------------   -----------------  -----------------  -----------------  -----------------
         C            2.003819487934    -0.019285032589     0.065795092339    12.000000000000
         C           -0.468455512066     0.021156967411    -0.023054907661    12.000000000000
         N            0.609696587934    -0.759484532589    -0.072250907661    14.003074004430
         N           -0.479302512066     1.358298967411    -0.010742907661    14.003074004430
         N           -1.627656512066    -0.649111032589     0.039460092339    14.003074004430
         H            0.646787487934    -1.626790032589    -0.313299907661     1.007825032230
         H            0.333714487934     1.895951967411    -0.280412907661     1.007825032230
         H           -1.315981512066     1.872793967411     0.232955092339     1.007825032230
         H           -1.655339512066    -1.632176032589     0.277046092339     1.007825032230
         H           -2.510569512066    -0.193091032589    -0.150418907661     1.007825032230
         H            2.003443487934     0.656247967411     0.922977092339     1.007825032230
         H            2.292680487934     0.514818967411    -0.843427907661     1.007825032230
         H            2.727437487934    -0.811206032589     0.250554092339     1.007825032230

  Basis Set: AUG-CC-PVTZ
    Blend: AUG-CC-PVTZ
  Basis Set: (AUG-CC-PVTZ AUX)
    Blend: AUG-CC-PVTZ-JKFIT
	 Reference Energy          =    -243.6323302006130973 [Eh]
	 Singles Energy            =      -0.0000000000000000 [Eh]
	 Same-Spin Energy          =      -0.2444581815784881 [Eh]
	 Opposite-Spin Energy      =      -0.8093233418537302 [Eh]
	 Correlation Energy        =      -1.0537815234322183 [Eh]
	 Total Energy              =    -244.6861117240453041 [Eh]

	 ================> DF-SCS-MP2 Energies <==================
	-----------------------------------------------------------
	 SCS Same-Spin Scale       =       0.3333333333333333 [-]
	 SCS Opposite-Spin Scale   =       1.2000000000000000 [-]
	 SCS Same-Spin Energy      =      -0.0814860605261627 [Eh]
	 SCS Opposite-Spin Energy  =      -0.9711880102244762 [Eh]
	 SCS Correlation Energy    =      -1.0526740707506390 [Eh]
	 SCS Total Energy          =    -244.6850042713637379 [Eh]
	-----------------------------------------------------------

  Dipole Moment: [D]
     X:    -0.9762      Y:     0.4044      Z:    -0.1864     Total:     1.0729

*** Psi4 exiting successfully. Buy a developer a beer!
