                               Psi4 1.4a3.dev225

  ==> Input File <==

--------------------------------------------------------------------------
#psi4
#
memory 32 gb

molecule  {
1 1
  C        1.9513750    -0.0476850     0.0410900
  C       -0.5109630    -0.0088300    -0.0208070
  N        0.6383630    -0.6790700    -0.0530430
  N       -0.5022500     1.3295140     0.0248160
  N       -1.6788480    -0.6625100     0.0611020
  H        0.5992730    -1.6821200    -0.1885540
  H        0.3471999     1.8746795    -0.3029686
  H       -1.3771720     1.8372740     0.0557700
  H       -1.6998490    -1.6741350     0.0517440
  H       -2.5379350    -0.1934290    -0.1962670
  H        1.9812500     0.6292430     0.8968410
  H        2.1994310     0.4949160    -0.8747400
  H        2.6844950    -0.8371890     0.1909030
units angstrom
no_reorient  #important for SAPT in psi4, default
symmetry c1  #important for SAPT in psi4, default
}

set PROPERTIES_ORIGIN ["COM"]
properties('MP2/aug-cc-pvtz', properties = ['dipole'])
--------------------------------------------------------------------------

    Molecular point group: c1
  Charge       = 1
  Multiplicity = 1
  Basis Set: AUG-CC-PVTZ
    Blend: AUG-CC-PVTZ
  Basis Set: (AUG-CC-PVTZ AUX)
    Blend: AUG-CC-PVTZ-JKFIT

    Orbital Energies [Eh]
    ---------------------

    Doubly Occupied:

       1A    -15.793794     2A    -15.791292     3A    -15.788209
       4A    -11.594581     5A    -11.436599     6A     -1.538949
       7A     -1.404422     8A     -1.385516     9A     -1.145551
      10A     -1.039535    11A     -0.974257    12A     -0.936114
      13A     -0.861580    14A     -0.855930    15A     -0.822381
      16A     -0.797623    17A     -0.745529    18A     -0.728671
      19A     -0.625062    20A     -0.594376

  @DF-RHF Final Energy:  -243.65367233938741

   => Energetics <=

    Nuclear Repulsion Energy =            192.9190806430620739
    One-Electron Energy =                -703.4255632516644710
    Two-Electron Energy =                 266.8528102692149560
    Total Energy =                       -243.6536723393874126
  Basis Set: (AUG-CC-PVTZ AUX)
    Blend: AUG-CC-PVTZ-RI
    Molecular point group: c1

    Geometry (in Angstrom), charge = 1, multiplicity = 1:

       Center              X                  Y                   Z               Mass
    ------------   -----------------  -----------------  -----------------  -----------------
         C            1.979782648374    -0.042360623398     0.036586242221    12.000000000000
         C           -0.482555351626    -0.003505623398    -0.025310757779    12.000000000000
         N            0.666770648374    -0.673745623398    -0.057546757779    14.003074004430
         N           -0.473842351626     1.334838376602     0.020312242221    14.003074004430
         N           -1.650440351626    -0.657185623398     0.056598242221    14.003074004430
         H            0.627680648374    -1.676795623398    -0.193057757779     1.007825032230
         H            0.375607548374     1.880003876602    -0.307472357779     1.007825032230
         H           -1.348764351626     1.842598376602     0.051266242221     1.007825032230
         H           -1.671441351626    -1.668810623398     0.047240242221     1.007825032230
         H           -2.509527351626    -0.188104623398    -0.200770757779     1.007825032230
         H            2.009657648374     0.634567376602     0.892337242221     1.007825032230
         H            2.227838648374     0.500240376602    -0.879243757779     1.007825032230
         H            2.712902648374    -0.831864623398     0.186399242221     1.007825032230

  Basis Set: AUG-CC-PVTZ
    Blend: AUG-CC-PVTZ
  Basis Set: (AUG-CC-PVTZ AUX)
    Blend: AUG-CC-PVTZ-JKFIT
	 Reference Energy          =    -243.6536723393874126 [Eh]
	 Singles Energy            =      -0.0000000000000000 [Eh]
	 Same-Spin Energy          =      -0.2455455581658759 [Eh]
	 Opposite-Spin Energy      =      -0.8100167914984325 [Eh]
	 Correlation Energy        =      -1.0555623496643085 [Eh]
	 Total Energy              =    -244.7092346890517263 [Eh]

	 ================> DF-SCS-MP2 Energies <==================
	-----------------------------------------------------------
	 SCS Same-Spin Scale       =       0.3333333333333333 [-]
	 SCS Opposite-Spin Scale   =       1.2000000000000000 [-]
	 SCS Same-Spin Energy      =      -0.0818485193886253 [Eh]
	 SCS Opposite-Spin Energy  =      -0.9720201497981190 [Eh]
	 SCS Correlation Energy    =      -1.0538686691867443 [Eh]
	 SCS Total Energy          =    -244.7075410085741680 [Eh]
	-----------------------------------------------------------

  Dipole Moment: [D]
     X:    -1.1252      Y:    -0.0638      Z:    -0.9135     Total:     1.4508

*** Psi4 exiting successfully. Buy a developer a beer!
