                               Psi4 1.3.2 release

  ==> Input File <==

--------------------------------------------------------------------------
#psi4
#
memory 32 gb

molecule  {
1 1
  C        1.9603260    -0.0474630     0.0649610
  C       -0.5119490    -0.0070210    -0.0238890
  N        0.4686295    -0.5709451    -0.0673342
  N       -0.5227960     1.3301210    -0.0115770
  N       -1.6711500    -0.6772890     0.0386260
  H        0.6032940    -1.6549680    -0.3141340
  H        0.2902210     1.8677740    -0.2812470
  H       -1.3594750     1.8446160     0.2321210
  H       -1.6988330    -1.6603540     0.2762120
  H       -2.5540630    -0.2212690    -0.1512530
  H        1.9599500     0.6280700     0.9221430
  H        2.2491870     0.4866410    -0.8442620
  H        2.6839440    -0.8393840     0.2497200
units angstrom
no_reorient  #important for SAPT in psi4, default
symmetry c1  #important for SAPT in psi4, default
}

set PROPERTIES_ORIGIN ["COM"]
properties('MP2/aug-cc-pvtz', properties = ['dipole'])
--------------------------------------------------------------------------

    Molecular point group: c1
  Charge       = 1
  Multiplicity = 1
  Basis Set: AUG-CC-PVTZ
    Blend: AUG-CC-PVTZ
  Basis Set: (AUG-CC-PVTZ AUX)
    Blend: AUG-CC-PVTZ-JKFIT

    Orbital Energies [Eh]
    ---------------------

    Doubly Occupied:

       1A    -15.799246     2A    -15.765193     3A    -15.760737
       4A    -11.554491     5A    -11.464350     6A     -1.586541
       7A     -1.398260     8A     -1.373419     9A     -1.167674
      10A     -1.024048    11A     -0.975284    12A     -0.936291
      13A     -0.873933    14A     -0.859402    15A     -0.827302
      16A     -0.778212    17A     -0.750055    18A     -0.723490
      19A     -0.612661    20A     -0.605469

  @DF-RHF Final Energy:  -243.58362882335140

   => Energetics <=

    Nuclear Repulsion Energy =            196.0679523773307835
    One-Electron Energy =                -709.6310401336627365
    Two-Electron Energy =                 269.9794589329804921
    Total Energy =                       -243.5836288233514324
  Basis Set: (AUG-CC-PVTZ AUX)
    Blend: AUG-CC-PVTZ-RI
    Molecular point group: c1

    Geometry (in Angstrom), charge = 1, multiplicity = 1:

       Center              X                  Y                   Z               Mass
    ------------   -----------------  -----------------  -----------------  -----------------
         C            2.022265508293    -0.060254860213     0.064707919437    12.000000000000
         C           -0.450009491707    -0.019812860213    -0.024142080563    12.000000000000
         N            0.530569008293    -0.583736960213    -0.067587280563    14.003074004430
         N           -0.460856491707     1.317329139787    -0.011830080563    14.003074004430
         N           -1.609210491707    -0.690080860213     0.038372919437    14.003074004430
         H            0.665233508293    -1.667759860213    -0.314387080563     1.007825032230
         H            0.352160508293     1.854982139787    -0.281500080563     1.007825032230
         H           -1.297535491707     1.831824139787     0.231867919437     1.007825032230
         H           -1.636893491707    -1.673145860213     0.275958919437     1.007825032230
         H           -2.492123491707    -0.234060860213    -0.151506080563     1.007825032230
         H            2.021889508293     0.615278139787     0.921889919437     1.007825032230
         H            2.311126508293     0.473849139787    -0.844515080563     1.007825032230
         H            2.745883508293    -0.852175860213     0.249466919437     1.007825032230

  Basis Set: AUG-CC-PVTZ
    Blend: AUG-CC-PVTZ
  Basis Set: (AUG-CC-PVTZ AUX)
    Blend: AUG-CC-PVTZ-JKFIT
	 Reference Energy          =    -243.5836288233514040 [Eh]
	 Singles Energy            =      -0.0000000000000000 [Eh]
	 Same-Spin Energy          =      -0.2454496679355300 [Eh]
	 Opposite-Spin Energy      =      -0.8097596176212190 [Eh]
	 Correlation Energy        =      -1.0552092855567490 [Eh]
	 Total Energy              =    -244.6388381089081463 [Eh]

	 ================> DF-SCS-MP2 Energies <==================
	-----------------------------------------------------------
	 SCS Same-Spin Scale       =       0.3333333333333333 [-]
	 SCS Opposite-Spin Scale   =       1.2000000000000000 [-]
	 SCS Same-Spin Energy      =      -0.0818165559785100 [Eh]
	 SCS Opposite-Spin Energy  =      -0.9717115411454627 [Eh]
	 SCS Correlation Energy    =      -1.0535280971239727 [Eh]
	 SCS Total Energy          =    -244.6371569204753769 [Eh]
	-----------------------------------------------------------

  Dipole Moment: [D]
     X:     0.2687      Y:    -0.5619      Z:    -0.2020     Total:     0.6548

*** Psi4 exiting successfully. Buy a developer a beer!
