                               Psi4 1.4a3.dev225

  ==> Input File <==

--------------------------------------------------------------------------
#psi4
#
memory 32 gb

molecule  {
1 1
  C        1.9513750    -0.0476850     0.0410900
  C       -0.5109630    -0.0088300    -0.0208070
  N        0.6563499    -0.6704207    -0.0517535
  N       -0.5022500     1.3295140     0.0248160
  N       -1.6788480    -0.6625100     0.0611020
  H        0.5992730    -1.6821200    -0.1885540
  H        0.3071780     1.8489940    -0.2875250
  H       -1.3771720     1.8372740     0.0557700
  H       -1.6998490    -1.6741350     0.0517440
  H       -2.5379350    -0.1934290    -0.1962670
  H        1.9812500     0.6292430     0.8968410
  H        2.1994310     0.4949160    -0.8747400
  H        2.6844950    -0.8371890     0.1909030
units angstrom
no_reorient  #important for SAPT in psi4, default
symmetry c1  #important for SAPT in psi4, default
}

set PROPERTIES_ORIGIN ["COM"]
properties('MP2/aug-cc-pvtz', properties = ['dipole'])
--------------------------------------------------------------------------

    Molecular point group: c1
  Charge       = 1
  Multiplicity = 1
  Basis Set: AUG-CC-PVTZ
    Blend: AUG-CC-PVTZ
  Basis Set: (AUG-CC-PVTZ AUX)
    Blend: AUG-CC-PVTZ-JKFIT

    Orbital Energies [Eh]
    ---------------------

    Doubly Occupied:

       1A    -15.792197     2A    -15.791123     3A    -15.790877
       4A    -11.597089     5A    -11.434114     6A     -1.539682
       7A     -1.407019     8A     -1.391211     9A     -1.146836
      10A     -1.041950    11A     -0.977100    12A     -0.938536
      13A     -0.864694    14A     -0.860219    15A     -0.825330
      16A     -0.803119    17A     -0.746223    18A     -0.726200
      19A     -0.627136    20A     -0.592571

  @DF-RHF Final Energy:  -243.65599539078360

   => Energetics <=

    Nuclear Repulsion Energy =            193.1322184042711285
    One-Electron Energy =                -703.7899766526272742
    Two-Electron Energy =                 267.0017628575725439
    Total Energy =                       -243.6559953907835734
  Basis Set: (AUG-CC-PVTZ AUX)
    Blend: AUG-CC-PVTZ-RI
    Molecular point group: c1

    Geometry (in Angstrom), charge = 1, multiplicity = 1:

       Center              X                  Y                   Z               Mass
    ------------   -----------------  -----------------  -----------------  -----------------
         C            1.976926814500    -0.043646271505     0.036132339379    12.000000000000
         C           -0.485411185500    -0.004791271505    -0.025764660621    12.000000000000
         N            0.681901714500    -0.666381971505    -0.056711160621    14.003074004430
         N           -0.476698185500     1.333552728495     0.019858339379    14.003074004430
         N           -1.653296185500    -0.658471271505     0.056144339379    14.003074004430
         H            0.624824814500    -1.678081271505    -0.193511660621     1.007825032230
         H            0.332729814500     1.853032728495    -0.292482660621     1.007825032230
         H           -1.351620185500     1.841312728495     0.050812339379     1.007825032230
         H           -1.674297185500    -1.670096271505     0.046786339379     1.007825032230
         H           -2.512383185500    -0.189390271505    -0.201224660621     1.007825032230
         H            2.006801814500     0.633281728495     0.891883339379     1.007825032230
         H            2.224982814500     0.498954728495    -0.879697660621     1.007825032230
         H            2.710046814500    -0.833150271505     0.185945339379     1.007825032230

  Basis Set: AUG-CC-PVTZ
    Blend: AUG-CC-PVTZ
  Basis Set: (AUG-CC-PVTZ AUX)
    Blend: AUG-CC-PVTZ-JKFIT
	 Reference Energy          =    -243.6559953907836018 [Eh]
	 Singles Energy            =      -0.0000000000000000 [Eh]
	 Same-Spin Energy          =      -0.2454527000001225 [Eh]
	 Opposite-Spin Energy      =      -0.8095085357644657 [Eh]
	 Correlation Energy        =      -1.0549612357645883 [Eh]
	 Total Energy              =    -244.7109566265481817 [Eh]

	 ================> DF-SCS-MP2 Energies <==================
	-----------------------------------------------------------
	 SCS Same-Spin Scale       =       0.3333333333333333 [-]
	 SCS Opposite-Spin Scale   =       1.2000000000000000 [-]
	 SCS Same-Spin Energy      =      -0.0818175666667075 [Eh]
	 SCS Opposite-Spin Energy  =      -0.9714102429173588 [Eh]
	 SCS Correlation Energy    =      -1.0532278095840664 [Eh]
	 SCS Total Energy          =    -244.7092232003676600 [Eh]
	-----------------------------------------------------------

  Dipole Moment: [D]
     X:    -1.2726      Y:    -0.1300      Z:    -0.8936     Total:     1.5604

*** Psi4 exiting successfully. Buy a developer a beer!
