                               Psi4 1.3.2 release

  ==> Input File <==

--------------------------------------------------------------------------
#psi4
#
memory 32 gb

molecule  {
1 1
  C        1.9490215    -0.0247053     0.0677966
  C       -0.5119490    -0.0070210    -0.0238890
  N        0.6418760    -0.6705780    -0.0750100
  N       -0.5227960     1.3301210    -0.0115770
  N       -1.6711500    -0.6772890     0.0386260
  H        0.6032940    -1.6549680    -0.3141340
  H        0.2902210     1.8677740    -0.2812470
  H       -1.3594750     1.8446160     0.2321210
  H       -1.6988330    -1.6603540     0.2762120
  H       -2.5540630    -0.2212690    -0.1512530
  H        1.9599500     0.6280700     0.9221430
  H        2.2491870     0.4866410    -0.8442620
  H        2.6839440    -0.8393840     0.2497200
units angstrom
no_reorient  #important for SAPT in psi4, default
symmetry c1  #important for SAPT in psi4, default
}

set PROPERTIES_ORIGIN ["COM"]
properties('MP2/aug-cc-pvtz', properties = ['dipole'])
--------------------------------------------------------------------------

    Molecular point group: c1
  Charge       = 1
  Multiplicity = 1
  Basis Set: AUG-CC-PVTZ
    Blend: AUG-CC-PVTZ
  Basis Set: (AUG-CC-PVTZ AUX)
    Blend: AUG-CC-PVTZ-JKFIT

    Orbital Energies [Eh]
    ---------------------

    Doubly Occupied:

       1A    -15.790131     2A    -15.790094     3A    -15.786679
       4A    -11.594771     5A    -11.436133     6A     -1.538229
       7A     -1.402370     8A     -1.388443     9A     -1.143935
      10A     -1.043092    11A     -0.975530    12A     -0.938941
      13A     -0.873338    14A     -0.862241    15A     -0.818062
      16A     -0.794409    17A     -0.744054    18A     -0.722540
      19A     -0.624263    20A     -0.594266

  @DF-RHF Final Energy:  -243.65642970398071

   => Energetics <=

    Nuclear Repulsion Energy =            192.9333851926855061
    One-Electron Energy =                -703.4565901071148346
    Two-Electron Energy =                 266.8667752104486226
    Total Energy =                       -243.6564297039807343
  Basis Set: (AUG-CC-PVTZ AUX)
    Blend: AUG-CC-PVTZ-RI
    Molecular point group: c1

    Geometry (in Angstrom), charge = 1, multiplicity = 1:

       Center              X                  Y                   Z               Mass
    ------------   -----------------  -----------------  -----------------  -----------------
         C            1.980040619267    -0.022348694338     0.068535227123    12.000000000000
         C           -0.480929880733    -0.004664394338    -0.023150372877    12.000000000000
         N            0.672895119267    -0.668221394338    -0.074271372877    14.003074004430
         N           -0.491776880733     1.332477605662    -0.010838372877    14.003074004430
         N           -1.640130880733    -0.674932394338     0.039364627123    14.003074004430
         H            0.634313119267    -1.652611394338    -0.313395372877     1.007825032230
         H            0.321240119267     1.870130605662    -0.280508372877     1.007825032230
         H           -1.328455880733     1.846972605662     0.232859627123     1.007825032230
         H           -1.667813880733    -1.657997394338     0.276950627123     1.007825032230
         H           -2.523043880733    -0.218912394338    -0.150514372877     1.007825032230
         H            1.990969119267     0.630426605662     0.922881627123     1.007825032230
         H            2.280206119267     0.488997605662    -0.843523372877     1.007825032230
         H            2.714963119267    -0.837027394338     0.250458627123     1.007825032230

  Basis Set: AUG-CC-PVTZ
    Blend: AUG-CC-PVTZ
  Basis Set: (AUG-CC-PVTZ AUX)
    Blend: AUG-CC-PVTZ-JKFIT
	 Reference Energy          =    -243.6564297039807059 [Eh]
	 Singles Energy            =      -0.0000000000000000 [Eh]
	 Same-Spin Energy          =      -0.2453379985358587 [Eh]
	 Opposite-Spin Energy      =      -0.8093957484534361 [Eh]
	 Correlation Energy        =      -1.0547337469892948 [Eh]
	 Total Energy              =    -244.7111634509699911 [Eh]

	 ================> DF-SCS-MP2 Energies <==================
	-----------------------------------------------------------
	 SCS Same-Spin Scale       =       0.3333333333333333 [-]
	 SCS Opposite-Spin Scale   =       1.2000000000000000 [-]
	 SCS Same-Spin Energy      =      -0.0817793328452862 [Eh]
	 SCS Opposite-Spin Energy  =      -0.9712748981441233 [Eh]
	 SCS Correlation Energy    =      -1.0530542309894095 [Eh]
	 SCS Total Energy          =    -244.7094839349701090 [Eh]
	-----------------------------------------------------------

  Dipole Moment: [D]
     X:    -1.1865      Y:     0.0078      Z:    -0.1538     Total:     1.1965

*** Psi4 exiting successfully. Buy a developer a beer!
