                               Psi4 1.3.2 release

  ==> Input File <==

--------------------------------------------------------------------------
#psi4
#
memory 32 gb

molecule  {
1 1
  C        1.9603260    -0.0474630     0.0649610
  C       -0.5119490    -0.0070210    -0.0238890
  N        0.5518784    -0.7131119    -0.0845644
  N       -0.5227960     1.3301210    -0.0115770
  N       -1.6711500    -0.6772890     0.0386260
  H        0.6032940    -1.6549680    -0.3141340
  H        0.2902210     1.8677740    -0.2812470
  H       -1.3594750     1.8446160     0.2321210
  H       -1.6988330    -1.6603540     0.2762120
  H       -2.5540630    -0.2212690    -0.1512530
  H        1.9599500     0.6280700     0.9221430
  H        2.2491870     0.4866410    -0.8442620
  H        2.6839440    -0.8393840     0.2497200
units angstrom
no_reorient  #important for SAPT in psi4, default
symmetry c1  #important for SAPT in psi4, default
}

set PROPERTIES_ORIGIN ["COM"]
properties('MP2/aug-cc-pvtz', properties = ['dipole'])
--------------------------------------------------------------------------

    Molecular point group: c1
  Charge       = 1
  Multiplicity = 1
  Basis Set: AUG-CC-PVTZ
    Blend: AUG-CC-PVTZ
  Basis Set: (AUG-CC-PVTZ AUX)
    Blend: AUG-CC-PVTZ-JKFIT

    Orbital Energies [Eh]
    ---------------------

    Doubly Occupied:

       1A    -15.788188     2A    -15.787350     3A    -15.775996
       4A    -11.586391     5A    -11.448304     6A     -1.545205
       7A     -1.401198     8A     -1.381901     9A     -1.141215
      10A     -1.052329    11A     -0.981226    12A     -0.938285
      13A     -0.875585    14A     -0.864789    15A     -0.814683
      16A     -0.767467    17A     -0.742899    18A     -0.737839
      19A     -0.622086    20A     -0.600836

  @DF-RHF Final Energy:  -243.64744973335789

   => Energetics <=

    Nuclear Repulsion Energy =            193.0573074841491064
    One-Electron Energy =                -703.7019732663530931
    Two-Electron Energy =                 266.9972160488460986
    Total Energy =                       -243.6474497333579166
  Basis Set: (AUG-CC-PVTZ AUX)
    Blend: AUG-CC-PVTZ-RI
    Molecular point group: c1

    Geometry (in Angstrom), charge = 1, multiplicity = 1:

       Center              X                  Y                   Z               Mass
    ------------   -----------------  -----------------  -----------------  -----------------
         C            2.006527533018    -0.033378618204     0.067965241294    12.000000000000
         C           -0.465747466982     0.007063381796    -0.020884758706    12.000000000000
         N            0.598079933018    -0.699027518204    -0.081560158706    14.003074004430
         N           -0.476594466982     1.344205381796    -0.008572758706    14.003074004430
         N           -1.624948466982    -0.663204618204     0.041630241294    14.003074004430
         H            0.649495533018    -1.640883618204    -0.311129758706     1.007825032230
         H            0.336422533018     1.881858381796    -0.278242758706     1.007825032230
         H           -1.313273466982     1.858700381796     0.235125241294     1.007825032230
         H           -1.652631466982    -1.646269618204     0.279216241294     1.007825032230
         H           -2.507861466982    -0.207184618204    -0.148248758706     1.007825032230
         H            2.006151533018     0.642154381796     0.925147241294     1.007825032230
         H            2.295388533018     0.500725381796    -0.841257758706     1.007825032230
         H            2.730145533018    -0.825299618204     0.252724241294     1.007825032230

  Basis Set: AUG-CC-PVTZ
    Blend: AUG-CC-PVTZ
  Basis Set: (AUG-CC-PVTZ AUX)
    Blend: AUG-CC-PVTZ-JKFIT
	 Reference Energy          =    -243.6474497333578881 [Eh]
	 Singles Energy            =      -0.0000000000000000 [Eh]
	 Same-Spin Energy          =      -0.2445851993679108 [Eh]
	 Opposite-Spin Energy      =      -0.8087001761459982 [Eh]
	 Correlation Energy        =      -1.0532853755139091 [Eh]
	 Total Energy              =    -244.7007351088718110 [Eh]

	 ================> DF-SCS-MP2 Energies <==================
	-----------------------------------------------------------
	 SCS Same-Spin Scale       =       0.3333333333333333 [-]
	 SCS Opposite-Spin Scale   =       1.2000000000000000 [-]
	 SCS Same-Spin Energy      =      -0.0815283997893036 [Eh]
	 SCS Opposite-Spin Energy  =      -0.9704402113751978 [Eh]
	 SCS Correlation Energy    =      -1.0519686111645012 [Eh]
	 SCS Total Energy          =    -244.6994183445223996 [Eh]
	-----------------------------------------------------------

  Dipole Moment: [D]
     X:    -0.6951      Y:     0.0809      Z:    -0.1547     Total:     0.7167

*** Psi4 exiting successfully. Buy a developer a beer!
