                               Psi4 1.4a3.dev225

  ==> Input File <==

--------------------------------------------------------------------------
#psi4
#
memory 32 gb

molecule  {
1 1
  C        1.9513750    -0.0476850     0.0410900
  C       -0.5109630    -0.0088300    -0.0208070
  N        0.6203761    -0.6877193    -0.0543325
  N       -0.5022500     1.3295140     0.0248160
  N       -1.6788480    -0.6625100     0.0611020
  H        0.5992730    -1.6821200    -0.1885540
  H        0.3071780     1.8489940    -0.2875250
  H       -1.3771720     1.8372740     0.0557700
  H       -1.6998490    -1.6741350     0.0517440
  H       -2.5379350    -0.1934290    -0.1962670
  H        1.9812500     0.6292430     0.8968410
  H        2.1994310     0.4949160    -0.8747400
  H        2.6844950    -0.8371890     0.1909030
units angstrom
no_reorient  #important for SAPT in psi4, default
symmetry c1  #important for SAPT in psi4, default
}

set PROPERTIES_ORIGIN ["COM"]
properties('MP2/aug-cc-pvtz', properties = ['dipole'])
--------------------------------------------------------------------------

    Molecular point group: c1
  Charge       = 1
  Multiplicity = 1
  Basis Set: AUG-CC-PVTZ
    Blend: AUG-CC-PVTZ
  Basis Set: (AUG-CC-PVTZ AUX)
    Blend: AUG-CC-PVTZ-JKFIT

    Orbital Energies [Eh]
    ---------------------

    Doubly Occupied:

       1A    -15.791602     2A    -15.789927     3A    -15.786633
       4A    -11.593489     5A    -11.439107     6A     -1.541862
       7A     -1.404325     8A     -1.389851     9A     -1.145352
      10A     -1.045121    11A     -0.979237    12A     -0.937696
      13A     -0.864881    14A     -0.862715    15A     -0.824202
      16A     -0.792876    17A     -0.745746    18A     -0.731545
      19A     -0.625892    20A     -0.596914

  @DF-RHF Final Energy:  -243.65751642078482

   => Energetics <=

    Nuclear Repulsion Energy =            193.1901044641701901
    One-Electron Energy =                -703.9172965751110951
    Two-Electron Energy =                 267.0696756901560889
    Total Energy =                       -243.6575164207848161
  Basis Set: (AUG-CC-PVTZ AUX)
    Blend: AUG-CC-PVTZ-RI
    Molecular point group: c1

    Geometry (in Angstrom), charge = 1, multiplicity = 1:

       Center              X                  Y                   Z               Mass
    ------------   -----------------  -----------------  -----------------  -----------------
         C            1.983727562317    -0.040376018816     0.036619892227    12.000000000000
         C           -0.478610437683    -0.001521018816    -0.025277107773    12.000000000000
         N            0.652728662317    -0.680410318816    -0.058802607773    14.003074004430
         N           -0.469897437683     1.336822981184     0.020345892227    14.003074004430
         N           -1.646495437683    -0.655201018816     0.056631892227    14.003074004430
         H            0.631625562317    -1.674811018816    -0.193024107773     1.007825032230
         H            0.339530562317     1.856302981184    -0.291995107773     1.007825032230
         H           -1.344819437683     1.844582981184     0.051299892227     1.007825032230
         H           -1.667496437683    -1.666826018816     0.047273892227     1.007825032230
         H           -2.505582437683    -0.186120018816    -0.200737107773     1.007825032230
         H            2.013602562317     0.636551981184     0.892370892227     1.007825032230
         H            2.231783562317     0.502224981184    -0.879210107773     1.007825032230
         H            2.716847562317    -0.829880018816     0.186432892227     1.007825032230

  Basis Set: AUG-CC-PVTZ
    Blend: AUG-CC-PVTZ
  Basis Set: (AUG-CC-PVTZ AUX)
    Blend: AUG-CC-PVTZ-JKFIT
	 Reference Energy          =    -243.6575164207848161 [Eh]
	 Singles Energy            =      -0.0000000000000000 [Eh]
	 Same-Spin Energy          =      -0.2449872237738425 [Eh]
	 Opposite-Spin Energy      =      -0.8089046966541766 [Eh]
	 Correlation Energy        =      -1.0538919204280193 [Eh]
	 Total Energy              =    -244.7114083412128309 [Eh]

	 ================> DF-SCS-MP2 Energies <==================
	-----------------------------------------------------------
	 SCS Same-Spin Scale       =       0.3333333333333333 [-]
	 SCS Opposite-Spin Scale   =       1.2000000000000000 [-]
	 SCS Same-Spin Energy      =      -0.0816624079246142 [Eh]
	 SCS Opposite-Spin Energy  =      -0.9706856359850119 [Eh]
	 SCS Correlation Energy    =      -1.0523480439096260 [Eh]
	 SCS Total Energy          =    -244.7098644646944479 [Eh]
	-----------------------------------------------------------

  Dipole Moment: [D]
     X:    -1.0747      Y:    -0.1026      Z:    -0.8968     Total:     1.4035

*** Psi4 exiting successfully. Buy a developer a beer!
