                               Psi4 1.3.2 release

  ==> Input File <==

--------------------------------------------------------------------------
#psi4
#
memory 32 gb

molecule  {
1 1
  C        1.9603260    -0.0474630     0.0649610
  C       -0.5119490    -0.0070210    -0.0238890
  N        0.6301210    -0.6906327    -0.0747276
  N       -0.5227960     1.3301210    -0.0115770
  N       -1.6711500    -0.6772890     0.0386260
  H        0.6032940    -1.6549680    -0.3141340
  H        0.2902210     1.8677740    -0.2812470
  H       -1.3594750     1.8446160     0.2321210
  H       -1.6988330    -1.6603540     0.2762120
  H       -2.5540630    -0.2212690    -0.1512530
  H        1.9599500     0.6280700     0.9221430
  H        2.2491870     0.4866410    -0.8442620
  H        2.6839440    -0.8393840     0.2497200
units angstrom
no_reorient  #important for SAPT in psi4, default
symmetry c1  #important for SAPT in psi4, default
}

set PROPERTIES_ORIGIN ["COM"]
properties('MP2/aug-cc-pvtz', properties = ['dipole'])
--------------------------------------------------------------------------

    Molecular point group: c1
  Charge       = 1
  Multiplicity = 1
  Basis Set: AUG-CC-PVTZ
    Blend: AUG-CC-PVTZ
  Basis Set: (AUG-CC-PVTZ AUX)
    Blend: AUG-CC-PVTZ-JKFIT

    Orbital Energies [Eh]
    ---------------------

    Doubly Occupied:

       1A    -15.791061     2A    -15.788560     3A    -15.785612
       4A    -11.595210     5A    -11.437795     6A     -1.537610
       7A     -1.401233     8A     -1.388205     9A     -1.141780
      10A     -1.046118    11A     -0.976907    12A     -0.938907
      13A     -0.873719    14A     -0.864258    15A     -0.815153
      16A     -0.788581    17A     -0.742279    18A     -0.729375
      19A     -0.624334    20A     -0.594711

  @DF-RHF Final Energy:  -243.65704083067121

   => Energetics <=

    Nuclear Repulsion Energy =            192.6590487177477371
    One-Electron Energy =                -702.9093606095808582
    Two-Electron Energy =                 266.5932710611618859
    Total Energy =                       -243.6570408306712352
  Basis Set: (AUG-CC-PVTZ AUX)
    Blend: AUG-CC-PVTZ-RI
    Molecular point group: c1

    Geometry (in Angstrom), charge = 1, multiplicity = 1:

       Center              X                  Y                   Z               Mass
    ------------   -----------------  -----------------  -----------------  -----------------
         C            1.991735984971    -0.037628249056     0.066105621345    12.000000000000
         C           -0.480539015029     0.002813750944    -0.022744378655    12.000000000000
         N            0.661530984971    -0.680797949056    -0.073582978655    14.003074004430
         N           -0.491386015029     1.339955750944    -0.010432378655    14.003074004430
         N           -1.639740015029    -0.667454249056     0.039770621345    14.003074004430
         H            0.634703984971    -1.645133249056    -0.312989378655     1.007825032230
         H            0.321630984971     1.877608750944    -0.280102378655     1.007825032230
         H           -1.328065015029     1.854450750944     0.233265621345     1.007825032230
         H           -1.667423015029    -1.650519249056     0.277356621345     1.007825032230
         H           -2.522653015029    -0.211434249056    -0.150108378655     1.007825032230
         H            1.991359984971     0.637904750944     0.923287621345     1.007825032230
         H            2.280596984971     0.496475750944    -0.843117378655     1.007825032230
         H            2.715353984971    -0.829549249056     0.250864621345     1.007825032230

  Basis Set: AUG-CC-PVTZ
    Blend: AUG-CC-PVTZ
  Basis Set: (AUG-CC-PVTZ AUX)
    Blend: AUG-CC-PVTZ-JKFIT
	 Reference Energy          =    -243.6570408306712068 [Eh]
	 Singles Energy            =      -0.0000000000000000 [Eh]
	 Same-Spin Energy          =      -0.2450403817114137 [Eh]
	 Opposite-Spin Energy      =      -0.8090726112662771 [Eh]
	 Correlation Energy        =      -1.0541129929776907 [Eh]
	 Total Energy              =    -244.7111538236488855 [Eh]

	 ================> DF-SCS-MP2 Energies <==================
	-----------------------------------------------------------
	 SCS Same-Spin Scale       =       0.3333333333333333 [-]
	 SCS Opposite-Spin Scale   =       1.2000000000000000 [-]
	 SCS Same-Spin Energy      =      -0.0816801272371379 [Eh]
	 SCS Opposite-Spin Energy  =      -0.9708871335195324 [Eh]
	 SCS Correlation Energy    =      -1.0525672607566703 [Eh]
	 SCS Total Energy          =    -244.7096080914278673 [Eh]
	-----------------------------------------------------------

  Dipole Moment: [D]
     X:    -1.1566      Y:     0.0808      Z:    -0.1587     Total:     1.1702

*** Psi4 exiting successfully. Buy a developer a beer!
