                               Psi4 1.3.2 release

  ==> Input File <==

--------------------------------------------------------------------------
#psi4
#
memory 32 gb

molecule  {
1 1
  C        1.9603260    -0.0474630     0.0649610
  C       -0.5119490    -0.0070210    -0.0238890
  N        0.4618807    -0.7556459    -0.0941189
  N       -0.5227960     1.3301210    -0.0115770
  N       -1.6711500    -0.6772890     0.0386260
  H        0.6032940    -1.6549680    -0.3141340
  H        0.2902210     1.8677740    -0.2812470
  H       -1.3594750     1.8446160     0.2321210
  H       -1.6988330    -1.6603540     0.2762120
  H       -2.5540630    -0.2212690    -0.1512530
  H        1.9599500     0.6280700     0.9221430
  H        2.2491870     0.4866410    -0.8442620
  H        2.6839440    -0.8393840     0.2497200
units angstrom
no_reorient  #important for SAPT in psi4, default
symmetry c1  #important for SAPT in psi4, default
}

set PROPERTIES_ORIGIN ["COM"]
properties('MP2/aug-cc-pvtz', properties = ['dipole'])
--------------------------------------------------------------------------

    Molecular point group: c1
  Charge       = 1
  Multiplicity = 1
  Basis Set: AUG-CC-PVTZ
    Blend: AUG-CC-PVTZ
  Basis Set: (AUG-CC-PVTZ AUX)
    Blend: AUG-CC-PVTZ-JKFIT

    Orbital Energies [Eh]
    ---------------------

    Doubly Occupied:

       1A    -15.786239     2A    -15.785071     3A    -15.765224
       4A    -11.578675     5A    -11.459392     6A     -1.555050
       7A     -1.404392     8A     -1.372986     9A     -1.139577
      10A     -1.066998    11A     -0.985508    12A     -0.939534
      13A     -0.878160    14A     -0.863325    15A     -0.814644
      16A     -0.752921    17A     -0.746706    18A     -0.728226
      19A     -0.622537    20A     -0.601686

  @DF-RHF Final Energy:  -243.61477642930134

   => Energetics <=

    Nuclear Repulsion Energy =            193.3922947149516460
    One-Electron Energy =                -704.3204394552149097
    Two-Electron Energy =                 267.3133683109619483
    Total Energy =                       -243.6147764293013438
  Basis Set: (AUG-CC-PVTZ AUX)
    Blend: AUG-CC-PVTZ-RI
    Molecular point group: c1

    Geometry (in Angstrom), charge = 1, multiplicity = 1:

       Center              X                  Y                   Z               Mass
    ------------   -----------------  -----------------  -----------------  -----------------
         C            2.023541350347    -0.025337682644     0.069771493206    12.000000000000
         C           -0.448733649653     0.015104317356    -0.019078506794    12.000000000000
         N            0.525096050347    -0.733520582644    -0.089308406794    14.003074004430
         N           -0.459580649653     1.352246317356    -0.006766506794    14.003074004430
         N           -1.607934649653    -0.655163682644     0.043436493206    14.003074004430
         H            0.666509350347    -1.632842682644    -0.309323506794     1.007825032230
         H            0.353436350347     1.889899317356    -0.276436506794     1.007825032230
         H           -1.296259649653     1.866741317356     0.236931493206     1.007825032230
         H           -1.635617649653    -1.638228682644     0.281022493206     1.007825032230
         H           -2.490847649653    -0.199143682644    -0.146442506794     1.007825032230
         H            2.023165350347     0.650195317356     0.926953493206     1.007825032230
         H            2.312402350347     0.508766317356    -0.839451506794     1.007825032230
         H            2.747159350347    -0.817258682644     0.254530493206     1.007825032230

  Basis Set: AUG-CC-PVTZ
    Blend: AUG-CC-PVTZ
  Basis Set: (AUG-CC-PVTZ AUX)
    Blend: AUG-CC-PVTZ-JKFIT
	 Reference Energy          =    -243.6147764293013438 [Eh]
	 Singles Energy            =      -0.0000000000000000 [Eh]
	 Same-Spin Energy          =      -0.2447507316406923 [Eh]
	 Opposite-Spin Energy      =      -0.8097375894298443 [Eh]
	 Correlation Energy        =      -1.0544883210705365 [Eh]
	 Total Energy              =    -244.6692647503718945 [Eh]

	 ================> DF-SCS-MP2 Energies <==================
	-----------------------------------------------------------
	 SCS Same-Spin Scale       =       0.3333333333333333 [-]
	 SCS Opposite-Spin Scale   =       1.2000000000000000 [-]
	 SCS Same-Spin Energy      =      -0.0815835772135641 [Eh]
	 SCS Opposite-Spin Energy  =      -0.9716851073158131 [Eh]
	 SCS Correlation Energy    =      -1.0532686845293773 [Eh]
	 SCS Total Energy          =    -244.6680451138307149 [Eh]
	-----------------------------------------------------------

  Dipole Moment: [D]
     X:    -0.2228      Y:     0.1362      Z:    -0.1563     Total:     0.3044

*** Psi4 exiting successfully. Buy a developer a beer!
