                               Psi4 1.4a3.dev225

  ==> Input File <==

--------------------------------------------------------------------------
#psi4
#
memory 32 gb

molecule  {
1 1
  C        1.9513750    -0.0476850     0.0410900
  C       -0.5109630    -0.0088300    -0.0208070
  N        0.6383630    -0.6790700    -0.0530430
  N       -0.5022500     1.3295140     0.0248160
  N       -1.6788480    -0.6625100     0.0611020
  H        0.5973434    -1.7316329    -0.1952431
  H        0.3071780     1.8489940    -0.2875250
  H       -1.3771720     1.8372740     0.0557700
  H       -1.6998490    -1.6741350     0.0517440
  H       -2.5379350    -0.1934290    -0.1962670
  H        1.9812500     0.6292430     0.8968410
  H        2.1994310     0.4949160    -0.8747400
  H        2.6844950    -0.8371890     0.1909030
units angstrom
no_reorient  #important for SAPT in psi4, default
symmetry c1  #important for SAPT in psi4, default
}

set PROPERTIES_ORIGIN ["COM"]
properties('MP2/aug-cc-pvtz', properties = ['dipole'])
--------------------------------------------------------------------------

    Molecular point group: c1
  Charge       = 1
  Multiplicity = 1
  Basis Set: AUG-CC-PVTZ
    Blend: AUG-CC-PVTZ
  Basis Set: (AUG-CC-PVTZ AUX)
    Blend: AUG-CC-PVTZ-JKFIT

    Orbital Energies [Eh]
    ---------------------

    Doubly Occupied:

       1A    -15.795580     2A    -15.789994     3A    -15.788080
       4A    -11.594617     5A    -11.436376     6A     -1.538775
       7A     -1.400992     8A     -1.389807     9A     -1.145350
      10A     -1.037521    11A     -0.972894    12A     -0.937123
      13A     -0.863078    14A     -0.858249    15A     -0.823948
      16A     -0.795382    17A     -0.745223    18A     -0.727128
      19A     -0.625992    20A     -0.593562

  @DF-RHF Final Energy:  -243.65359877494856

   => Energetics <=

    Nuclear Repulsion Energy =            192.8880524613499006
    One-Electron Energy =                -703.3639635127402698
    Two-Electron Energy =                 266.8223122764418349
    Total Energy =                       -243.6535987749485344
  Basis Set: (AUG-CC-PVTZ AUX)
    Blend: AUG-CC-PVTZ-RI
    Molecular point group: c1

    Geometry (in Angstrom), charge = 1, multiplicity = 1:

       Center              X                  Y                   Z               Mass
    ------------   -----------------  -----------------  -----------------  -----------------
         C            1.980353442645    -0.041337470091     0.036467128042    12.000000000000
         C           -0.481984557355    -0.002482470091    -0.025429871958    12.000000000000
         N            0.667341442645    -0.672722470091    -0.057665871958    14.003074004430
         N           -0.473271557355     1.335861529909     0.020193128042    14.003074004430
         N           -1.649869557355    -0.656162470091     0.056479128042    14.003074004430
         H            0.626321842645    -1.725285370091    -0.199865971958     1.007825032230
         H            0.336156442645     1.855341529909    -0.292147871958     1.007825032230
         H           -1.348193557355     1.843621529909     0.051147128042     1.007825032230
         H           -1.670870557355    -1.667787470091     0.047121128042     1.007825032230
         H           -2.508956557355    -0.187081470091    -0.200889871958     1.007825032230
         H            2.010228442645     0.635590529909     0.892218128042     1.007825032230
         H            2.228409442645     0.501263529909    -0.879362871958     1.007825032230
         H            2.713473442645    -0.830841470091     0.186280128042     1.007825032230

  Basis Set: AUG-CC-PVTZ
    Blend: AUG-CC-PVTZ
  Basis Set: (AUG-CC-PVTZ AUX)
    Blend: AUG-CC-PVTZ-JKFIT
	 Reference Energy          =    -243.6535987749485628 [Eh]
	 Singles Energy            =      -0.0000000000000000 [Eh]
	 Same-Spin Energy          =      -0.2455532430765335 [Eh]
	 Opposite-Spin Energy      =      -0.8100677099493935 [Eh]
	 Correlation Energy        =      -1.0556209530259268 [Eh]
	 Total Energy              =    -244.7092197279744994 [Eh]

	 ================> DF-SCS-MP2 Energies <==================
	-----------------------------------------------------------
	 SCS Same-Spin Scale       =       0.3333333333333333 [-]
	 SCS Opposite-Spin Scale   =       1.2000000000000000 [-]
	 SCS Same-Spin Energy      =      -0.0818510810255111 [Eh]
	 SCS Opposite-Spin Energy  =      -0.9720812519392721 [Eh]
	 SCS Correlation Energy    =      -1.0539323329647832 [Eh]
	 SCS Total Energy          =    -244.7075311079133542 [Eh]
	-----------------------------------------------------------

  Dipole Moment: [D]
     X:    -1.1499      Y:    -0.1855      Z:    -0.9045     Total:     1.4748

*** Psi4 exiting successfully. Buy a developer a beer!
