                               Psi4 1.4a3.dev225

  ==> Input File <==

--------------------------------------------------------------------------
#psi4
#
memory 32 gb

molecule  {
1 1
  C        1.9513750    -0.0476850     0.0410900
  C       -0.5109630    -0.0088300    -0.0208070
  N        0.6556348    -0.6891422    -0.0535274
  N       -0.5022500     1.3295140     0.0248160
  N       -1.6788480    -0.6625100     0.0611020
  H        0.5992730    -1.6821200    -0.1885540
  H        0.3071780     1.8489940    -0.2875250
  H       -1.3771720     1.8372740     0.0557700
  H       -1.6998490    -1.6741350     0.0517440
  H       -2.5379350    -0.1934290    -0.1962670
  H        1.9812500     0.6292430     0.8968410
  H        2.1994310     0.4949160    -0.8747400
  H        2.6844950    -0.8371890     0.1909030
units angstrom
no_reorient  #important for SAPT in psi4, default
symmetry c1  #important for SAPT in psi4, default
}

set PROPERTIES_ORIGIN ["COM"]
properties('MP2/aug-cc-pvtz', properties = ['dipole'])
--------------------------------------------------------------------------

    Molecular point group: c1
  Charge       = 1
  Multiplicity = 1
  Basis Set: AUG-CC-PVTZ
    Blend: AUG-CC-PVTZ
  Basis Set: (AUG-CC-PVTZ AUX)
    Blend: AUG-CC-PVTZ-JKFIT

    Orbital Energies [Eh]
    ---------------------

    Doubly Occupied:

       1A    -15.792685     2A    -15.790999     3A    -15.790574
       4A    -11.598347     5A    -11.434310     6A     -1.538226
       7A     -1.405760     8A     -1.391968     9A     -1.143701
      10A     -1.045170    11A     -0.977904    12A     -0.938699
      13A     -0.865057    14A     -0.862280    15A     -0.823387
      16A     -0.800461    17A     -0.746219    18A     -0.726876
      19A     -0.627582    20A     -0.592784

  @DF-RHF Final Energy:  -243.65620895334098

   => Energetics <=

    Nuclear Repulsion Energy =            192.8925083713376978
    One-Electron Energy =                -703.3114523230320856
    Two-Electron Energy =                 266.7627349983533804
    Total Energy =                       -243.6562089533409790
  Basis Set: (AUG-CC-PVTZ AUX)
    Blend: AUG-CC-PVTZ-RI
    Molecular point group: c1

    Geometry (in Angstrom), charge = 1, multiplicity = 1:

       Center              X                  Y                   Z               Mass
    ------------   -----------------  -----------------  -----------------  -----------------
         C            1.977062002185    -0.040107023490     0.036467690289    12.000000000000
         C           -0.485275997815    -0.001252023490    -0.025429309711    12.000000000000
         N            0.681321802185    -0.681564223490    -0.058149709711    14.003074004430
         N           -0.476562997815     1.337091976510     0.020193690289    14.003074004430
         N           -1.653160997815    -0.654932023490     0.056479690289    14.003074004430
         H            0.624960002185    -1.674542023490    -0.193176309711     1.007825032230
         H            0.332865002185     1.856571976510    -0.292147309711     1.007825032230
         H           -1.351484997815     1.844851976510     0.051147690289     1.007825032230
         H           -1.674161997815    -1.666557023490     0.047121690289     1.007825032230
         H           -2.512247997815    -0.185851023490    -0.200889309711     1.007825032230
         H            2.006937002185     0.636820976510     0.892218690289     1.007825032230
         H            2.225118002185     0.502493976510    -0.879362309711     1.007825032230
         H            2.710182002185    -0.829611023490     0.186280690289     1.007825032230

  Basis Set: AUG-CC-PVTZ
    Blend: AUG-CC-PVTZ
  Basis Set: (AUG-CC-PVTZ AUX)
    Blend: AUG-CC-PVTZ-JKFIT
	 Reference Energy          =    -243.6562089533409790 [Eh]
	 Singles Energy            =      -0.0000000000000000 [Eh]
	 Same-Spin Energy          =      -0.2452841313193352 [Eh]
	 Opposite-Spin Energy      =      -0.8093286169242511 [Eh]
	 Correlation Energy        =      -1.0546127482435863 [Eh]
	 Total Energy              =    -244.7108217015845639 [Eh]

	 ================> DF-SCS-MP2 Energies <==================
	-----------------------------------------------------------
	 SCS Same-Spin Scale       =       0.3333333333333333 [-]
	 SCS Opposite-Spin Scale   =       1.2000000000000000 [-]
	 SCS Same-Spin Energy      =      -0.0817613771064451 [Eh]
	 SCS Opposite-Spin Energy  =      -0.9711943403091012 [Eh]
	 SCS Correlation Energy    =      -1.0529557174155464 [Eh]
	 SCS Total Energy          =    -244.7091646707565360 [Eh]
	-----------------------------------------------------------

  Dipole Moment: [D]
     X:    -1.3049      Y:    -0.0625      Z:    -0.8893     Total:     1.5804

*** Psi4 exiting successfully. Buy a developer a beer!
