                               Psi4 1.3.2 release

  ==> Input File <==

--------------------------------------------------------------------------
#psi4
#
memory 32 gb

molecule  {
1 1
  C        1.9603260    -0.0474630     0.0649610
  C       -0.5119490    -0.0070210    -0.0238890
  N        0.6418760    -0.6705780    -0.0750100
  N       -0.3832037     1.3240036    -0.0198631
  N       -1.6711500    -0.6772890     0.0386260
  H        0.6032940    -1.6549680    -0.3141340
  H        0.2902210     1.8677740    -0.2812470
  H       -1.3594750     1.8446160     0.2321210
  H       -1.6988330    -1.6603540     0.2762120
  H       -2.5540630    -0.2212690    -0.1512530
  H        1.9599500     0.6280700     0.9221430
  H        2.2491870     0.4866410    -0.8442620
  H        2.6839440    -0.8393840     0.2497200
units angstrom
no_reorient  #important for SAPT in psi4, default
symmetry c1  #important for SAPT in psi4, default
}

set PROPERTIES_ORIGIN ["COM"]
properties('MP2/aug-cc-pvtz', properties = ['dipole'])
--------------------------------------------------------------------------

    Molecular point group: c1
  Charge       = 1
  Multiplicity = 1
  Basis Set: AUG-CC-PVTZ
    Blend: AUG-CC-PVTZ
  Basis Set: (AUG-CC-PVTZ AUX)
    Blend: AUG-CC-PVTZ-JKFIT

    Orbital Energies [Eh]
    ---------------------

    Doubly Occupied:

       1A    -15.793994     2A    -15.790507     3A    -15.784905
       4A    -11.597760     5A    -11.433403     6A     -1.539942
       7A     -1.402050     8A     -1.392513     9A     -1.144602
      10A     -1.055645    11A     -0.970750    12A     -0.950467
      13A     -0.887429    14A     -0.836117    15A     -0.809341
      16A     -0.790788    17A     -0.740605    18A     -0.724563
      19A     -0.629426    20A     -0.590271

  @DF-RHF Final Energy:  -243.62680916876448

   => Energetics <=

    Nuclear Repulsion Energy =            193.3551631832976625
    One-Electron Energy =                -704.2337917796730835
    Two-Electron Energy =                 267.2518194276108829
    Total Energy =                       -243.6268091687645096
  Basis Set: (AUG-CC-PVTZ AUX)
    Blend: AUG-CC-PVTZ-RI
    Molecular point group: c1

    Geometry (in Angstrom), charge = 1, multiplicity = 1:

       Center              X                  Y                   Z               Mass
    ------------   -----------------  -----------------  -----------------  -----------------
         C            1.963124194720    -0.040263057237     0.067725472672    12.000000000000
         C           -0.509150805280     0.000178942763    -0.021124527328    12.000000000000
         N            0.644674194720    -0.663378057237    -0.072245527328    14.003074004430
         N           -0.380405505280     1.331203542763    -0.017098627328    14.003074004430
         N           -1.668351805280    -0.670089057237     0.041390472672    14.003074004430
         H            0.606092194720    -1.647768057237    -0.311369527328     1.007825032230
         H            0.293019194720     1.874973942763    -0.278482527328     1.007825032230
         H           -1.356676805280     1.851815942763     0.234885472672     1.007825032230
         H           -1.696034805280    -1.653154057237     0.278976472672     1.007825032230
         H           -2.551264805280    -0.214069057237    -0.148488527328     1.007825032230
         H            1.962748194720     0.635269942763     0.924907472672     1.007825032230
         H            2.251985194720     0.493840942763    -0.841497527328     1.007825032230
         H            2.686742194720    -0.832184057237     0.252484472672     1.007825032230

  Basis Set: AUG-CC-PVTZ
    Blend: AUG-CC-PVTZ
  Basis Set: (AUG-CC-PVTZ AUX)
    Blend: AUG-CC-PVTZ-JKFIT
	 Reference Energy          =    -243.6268091687644812 [Eh]
	 Singles Energy            =      -0.0000000000000000 [Eh]
	 Same-Spin Energy          =      -0.2459964958054731 [Eh]
	 Opposite-Spin Energy      =      -0.8111756337562870 [Eh]
	 Correlation Energy        =      -1.0571721295617602 [Eh]
	 Total Energy              =    -244.6839812983262448 [Eh]

	 ================> DF-SCS-MP2 Energies <==================
	-----------------------------------------------------------
	 SCS Same-Spin Scale       =       0.3333333333333333 [-]
	 SCS Opposite-Spin Scale   =       1.2000000000000000 [-]
	 SCS Same-Spin Energy      =      -0.0819988319351577 [Eh]
	 SCS Opposite-Spin Energy  =      -0.9734107605075444 [Eh]
	 SCS Correlation Energy    =      -1.0554095924427020 [Eh]
	 SCS Total Energy          =    -244.6822187612071957 [Eh]
	-----------------------------------------------------------

  Dipole Moment: [D]
     X:    -1.5779      Y:    -0.0137      Z:    -0.1761     Total:     1.5878

*** Psi4 exiting successfully. Buy a developer a beer!
