                               Psi4 1.3.2 release

  ==> Input File <==

--------------------------------------------------------------------------
#psi4
#
memory 32 gb

molecule  {
1 1
  C        1.9603260    -0.0474630     0.0649610
  C       -0.5119490    -0.0070210    -0.0238890
  N        0.5552527    -0.6207615    -0.0711721
  N       -0.5227960     1.3301210    -0.0115770
  N       -1.6711500    -0.6772890     0.0386260
  H        0.6032940    -1.6549680    -0.3141340
  H        0.2902210     1.8677740    -0.2812470
  H       -1.3594750     1.8446160     0.2321210
  H       -1.6988330    -1.6603540     0.2762120
  H       -2.5540630    -0.2212690    -0.1512530
  H        1.9599500     0.6280700     0.9221430
  H        2.2491870     0.4866410    -0.8442620
  H        2.6839440    -0.8393840     0.2497200
units angstrom
no_reorient  #important for SAPT in psi4, default
symmetry c1  #important for SAPT in psi4, default
}

set PROPERTIES_ORIGIN ["COM"]
properties('MP2/aug-cc-pvtz', properties = ['dipole'])
--------------------------------------------------------------------------

    Molecular point group: c1
  Charge       = 1
  Multiplicity = 1
  Basis Set: AUG-CC-PVTZ
    Blend: AUG-CC-PVTZ
  Basis Set: (AUG-CC-PVTZ AUX)
    Blend: AUG-CC-PVTZ-JKFIT

    Orbital Energies [Eh]
    ---------------------

    Doubly Occupied:

       1A    -15.795882     2A    -15.778288     3A    -15.774386
       4A    -11.576933     5A    -11.449326     6A     -1.556473
       7A     -1.401199     8A     -1.381030     9A     -1.156821
      10A     -1.033586    11A     -0.976290    12A     -0.936354
      13A     -0.871166    14A     -0.860827    15A     -0.823271
      16A     -0.783010    17A     -0.742609    18A     -0.732660
      19A     -0.618454    20A     -0.601931

  @DF-RHF Final Energy:  -243.64253467501669

   => Energetics <=

    Nuclear Repulsion Energy =            194.2938613637107039
    One-Electron Energy =                -706.1718018898371838
    Two-Electron Energy =                 268.2354058511098174
    Total Energy =                       -243.6425346750166909
  Basis Set: (AUG-CC-PVTZ AUX)
    Blend: AUG-CC-PVTZ-RI
    Molecular point group: c1

    Geometry (in Angstrom), charge = 1, multiplicity = 1:

       Center              X                  Y                   Z               Mass
    ------------   -----------------  -----------------  -----------------  -----------------
         C            2.005889630896    -0.050837206988     0.065433463862    12.000000000000
         C           -0.466385369104    -0.010395206988    -0.023416536138    12.000000000000
         N            0.600816330896    -0.624135706988    -0.070699636138    14.003074004430
         N           -0.477232369104     1.326746793012    -0.011104536138    14.003074004430
         N           -1.625586369104    -0.680663206988     0.039098463862    14.003074004430
         H            0.648857630896    -1.658342206988    -0.313661536138     1.007825032230
         H            0.335784630896     1.864399793012    -0.280774536138     1.007825032230
         H           -1.313911369104     1.841241793012     0.232593463862     1.007825032230
         H           -1.653269369104    -1.663728206988     0.276684463862     1.007825032230
         H           -2.508499369104    -0.224643206988    -0.150780536138     1.007825032230
         H            2.005513630896     0.624695793012     0.922615463862     1.007825032230
         H            2.294750630896     0.483266793012    -0.843789536138     1.007825032230
         H            2.729507630896    -0.842758206988     0.250192463862     1.007825032230

  Basis Set: AUG-CC-PVTZ
    Blend: AUG-CC-PVTZ
  Basis Set: (AUG-CC-PVTZ AUX)
    Blend: AUG-CC-PVTZ-JKFIT
	 Reference Energy          =    -243.6425346750166909 [Eh]
	 Singles Energy            =      -0.0000000000000000 [Eh]
	 Same-Spin Energy          =      -0.2451246929820656 [Eh]
	 Opposite-Spin Energy      =      -0.8090934284396474 [Eh]
	 Correlation Energy        =      -1.0542181214217130 [Eh]
	 Total Energy              =    -244.6967527964384033 [Eh]

	 ================> DF-SCS-MP2 Energies <==================
	-----------------------------------------------------------
	 SCS Same-Spin Scale       =       0.3333333333333333 [-]
	 SCS Opposite-Spin Scale   =       1.2000000000000000 [-]
	 SCS Same-Spin Energy      =      -0.0817082309940219 [Eh]
	 SCS Opposite-Spin Energy  =      -0.9709121141275768 [Eh]
	 SCS Correlation Energy    =      -1.0526203451215987 [Eh]
	 SCS Total Energy          =    -244.6951550201382872 [Eh]
	-----------------------------------------------------------

  Dipole Moment: [D]
     X:    -0.4895      Y:    -0.2631      Z:    -0.1776     Total:     0.5834

*** Psi4 exiting successfully. Buy a developer a beer!
