                               Psi4 1.4a3.dev225

  ==> Input File <==

--------------------------------------------------------------------------
#psi4
#
memory 32 gb

molecule  {
1 1
  C        1.9513750    -0.0476850     0.0410900
  C       -0.5109630    -0.0088300    -0.0208070
  N        0.6210912    -0.6689978    -0.0525586
  N       -0.5022500     1.3295140     0.0248160
  N       -1.6788480    -0.6625100     0.0611020
  H        0.5992730    -1.6821200    -0.1885540
  H        0.3071780     1.8489940    -0.2875250
  H       -1.3771720     1.8372740     0.0557700
  H       -1.6998490    -1.6741350     0.0517440
  H       -2.5379350    -0.1934290    -0.1962670
  H        1.9812500     0.6292430     0.8968410
  H        2.1994310     0.4949160    -0.8747400
  H        2.6844950    -0.8371890     0.1909030
units angstrom
no_reorient  #important for SAPT in psi4, default
symmetry c1  #important for SAPT in psi4, default
}

set PROPERTIES_ORIGIN ["COM"]
properties('MP2/aug-cc-pvtz', properties = ['dipole'])
--------------------------------------------------------------------------

    Molecular point group: c1
  Charge       = 1
  Multiplicity = 1
  Basis Set: AUG-CC-PVTZ
    Blend: AUG-CC-PVTZ
  Basis Set: (AUG-CC-PVTZ AUX)
    Blend: AUG-CC-PVTZ-JKFIT

    Orbital Energies [Eh]
    ---------------------

    Doubly Occupied:

       1A    -15.793230     2A    -15.788266     3A    -15.786452
       4A    -11.591992     5A    -11.439036     6A     -1.543556
       7A     -1.405202     8A     -1.389225     9A     -1.148582
      10A     -1.041680    11A     -0.978357    12A     -0.937498
      13A     -0.863107    14A     -0.862133    15A     -0.826056
      16A     -0.795720    17A     -0.745711    18A     -0.730841
      19A     -0.625362    20A     -0.596866

  @DF-RHF Final Energy:  -243.65723527258942

   => Energetics <=

    Nuclear Repulsion Energy =            193.4328820589881559
    One-Electron Energy =                -704.4024921831527308
    Two-Electron Energy =                 267.3123748515751004
    Total Energy =                       -243.6572352725894461
  Basis Set: (AUG-CC-PVTZ AUX)
    Blend: AUG-CC-PVTZ-RI
    Molecular point group: c1

    Geometry (in Angstrom), charge = 1, multiplicity = 1:

       Center              X                  Y                   Z               Mass
    ------------   -----------------  -----------------  -----------------  -----------------
         C            1.983592374631    -0.043915266832     0.036284541317    12.000000000000
         C           -0.478745625369    -0.005060266832    -0.025612458683    12.000000000000
         N            0.653308574631    -0.665228066832    -0.057364058683    14.003074004430
         N           -0.470032625369     1.333283733168     0.020010541317    14.003074004430
         N           -1.646630625369    -0.658740266832     0.056296541317    14.003074004430
         H            0.631490374631    -1.678350266832    -0.193359458683     1.007825032230
         H            0.339395374631     1.852763733168    -0.292330458683     1.007825032230
         H           -1.344954625369     1.841043733168     0.050964541317     1.007825032230
         H           -1.667631625369    -1.670365266832     0.046938541317     1.007825032230
         H           -2.505717625369    -0.189659266832    -0.201072458683     1.007825032230
         H            2.013467374631     0.633012733168     0.892035541317     1.007825032230
         H            2.231648374631     0.498685733168    -0.879545458683     1.007825032230
         H            2.716712374631    -0.833419266832     0.186097541317     1.007825032230

  Basis Set: AUG-CC-PVTZ
    Blend: AUG-CC-PVTZ
  Basis Set: (AUG-CC-PVTZ AUX)
    Blend: AUG-CC-PVTZ-JKFIT
	 Reference Energy          =    -243.6572352725894177 [Eh]
	 Singles Energy            =      -0.0000000000000000 [Eh]
	 Same-Spin Energy          =      -0.2451337854935537 [Eh]
	 Opposite-Spin Energy      =      -0.8090509256000775 [Eh]
	 Correlation Energy        =      -1.0541847110936311 [Eh]
	 Total Energy              =    -244.7114199836830437 [Eh]

	 ================> DF-SCS-MP2 Energies <==================
	-----------------------------------------------------------
	 SCS Same-Spin Scale       =       0.3333333333333333 [-]
	 SCS Opposite-Spin Scale   =       1.2000000000000000 [-]
	 SCS Same-Spin Energy      =      -0.0817112618311845 [Eh]
	 SCS Opposite-Spin Energy  =      -0.9708611107200930 [Eh]
	 SCS Correlation Energy    =      -1.0525723725512774 [Eh]
	 SCS Total Energy          =    -244.7098076451406996 [Eh]
	-----------------------------------------------------------

  Dipole Moment: [D]
     X:    -1.0398      Y:    -0.1711      Z:    -0.9013     Total:     1.3866

*** Psi4 exiting successfully. Buy a developer a beer!
