                               Psi4 1.3.2 release

  ==> Input File <==

--------------------------------------------------------------------------
#psi4
#
memory 32 gb

molecule  {
1 1
  C        1.9603260    -0.0474630     0.0649610
  C       -0.5119490    -0.0070210    -0.0238890
  N        0.8218713    -0.5855101    -0.0559011
  N       -0.5227960     1.3301210    -0.0115770
  N       -1.6711500    -0.6772890     0.0386260
  H        0.6032940    -1.6549680    -0.3141340
  H        0.2902210     1.8677740    -0.2812470
  H       -1.3594750     1.8446160     0.2321210
  H       -1.6988330    -1.6603540     0.2762120
  H       -2.5540630    -0.2212690    -0.1512530
  H        1.9599500     0.6280700     0.9221430
  H        2.2491870     0.4866410    -0.8442620
  H        2.6839440    -0.8393840     0.2497200
units angstrom
no_reorient  #important for SAPT in psi4, default
symmetry c1  #important for SAPT in psi4, default
}

set PROPERTIES_ORIGIN ["COM"]
properties('MP2/aug-cc-pvtz', properties = ['dipole'])
--------------------------------------------------------------------------

    Molecular point group: c1
  Charge       = 1
  Multiplicity = 1
  Basis Set: AUG-CC-PVTZ
    Blend: AUG-CC-PVTZ
  Basis Set: (AUG-CC-PVTZ AUX)
    Blend: AUG-CC-PVTZ-JKFIT

    Orbital Energies [Eh]
    ---------------------

    Doubly Occupied:

       1A    -15.806928     2A    -15.797250     3A    -15.791155
       4A    -11.613239     5A    -11.411361     6A     -1.533376
       7A     -1.433492     8A     -1.394870     9A     -1.146699
      10A     -1.034213    11A     -0.967635    12A     -0.944369
      13A     -0.879682    14A     -0.851527    15A     -0.839899
      16A     -0.822483    17A     -0.749191    18A     -0.687380
      19A     -0.630828    20A     -0.562113

  @DF-RHF Final Energy:  -243.58697898518440

   => Energetics <=

    Nuclear Repulsion Energy =            192.8603716156458461
    One-Electron Energy =                -703.0993202010648702
    Two-Electron Energy =                 266.6519696002346791
    Total Energy =                       -243.5869789851843734
  Basis Set: (AUG-CC-PVTZ AUX)
    Blend: AUG-CC-PVTZ-RI
    Molecular point group: c1

    Geometry (in Angstrom), charge = 1, multiplicity = 1:

       Center              X                  Y                   Z               Mass
    ------------   -----------------  -----------------  -----------------  -----------------
         C            1.955486118841    -0.057501387075     0.062546523369    12.000000000000
         C           -0.516788881159    -0.017059387075    -0.026303476631    12.000000000000
         N            0.817031418841    -0.595548487075    -0.058315576631    14.003074004430
         N           -0.527635881159     1.320082612925    -0.013991476631    14.003074004430
         N           -1.675989881159    -0.687327387075     0.036211523369    14.003074004430
         H            0.598454118841    -1.665006387075    -0.316548476631     1.007825032230
         H            0.285381118841     1.857735612925    -0.283661476631     1.007825032230
         H           -1.364314881159     1.834577612925     0.229706523369     1.007825032230
         H           -1.703672881159    -1.670392387075     0.273797523369     1.007825032230
         H           -2.558902881159    -0.231307387075    -0.153667476631     1.007825032230
         H            1.955110118841     0.618031612925     0.919728523369     1.007825032230
         H            2.244347118841     0.476602612925    -0.846676476631     1.007825032230
         H            2.679104118841    -0.849422387075     0.247305523369     1.007825032230

  Basis Set: AUG-CC-PVTZ
    Blend: AUG-CC-PVTZ
  Basis Set: (AUG-CC-PVTZ AUX)
    Blend: AUG-CC-PVTZ-JKFIT
	 Reference Energy          =    -243.5869789851844018 [Eh]
	 Singles Energy            =      -0.0000000000000000 [Eh]
	 Same-Spin Energy          =      -0.2493077393200281 [Eh]
	 Opposite-Spin Energy      =      -0.8156334446369231 [Eh]
	 Correlation Energy        =      -1.0649411839569511 [Eh]
	 Total Energy              =    -244.6519201691413627 [Eh]

	 ================> DF-SCS-MP2 Energies <==================
	-----------------------------------------------------------
	 SCS Same-Spin Scale       =       0.3333333333333333 [-]
	 SCS Opposite-Spin Scale   =       1.2000000000000000 [-]
	 SCS Same-Spin Energy      =      -0.0831025797733427 [Eh]
	 SCS Opposite-Spin Energy  =      -0.9787601335643077 [Eh]
	 SCS Correlation Energy    =      -1.0618627133376504 [Eh]
	 SCS Total Energy          =    -244.6488416985220624 [Eh]
	-----------------------------------------------------------

  Dipole Moment: [D]
     X:    -2.1488      Y:    -0.1257      Z:    -0.1330     Total:     2.1565

*** Psi4 exiting successfully. Buy a developer a beer!
