                               Psi4 1.3.2 release

  ==> Input File <==

--------------------------------------------------------------------------
#psi4
#
memory 32 gb

molecule  {
1 1
  C        1.9603260    -0.0474630     0.0649610
  C       -0.5119490    -0.0070210    -0.0238890
  N        0.6532795    -0.6503212    -0.0752769
  N       -0.5227960     1.3301210    -0.0115770
  N       -1.6711500    -0.6772890     0.0386260
  H        0.6032940    -1.6549680    -0.3141340
  H        0.2902210     1.8677740    -0.2812470
  H       -1.3594750     1.8446160     0.2321210
  H       -1.6988330    -1.6603540     0.2762120
  H       -2.5540630    -0.2212690    -0.1512530
  H        1.9599500     0.6280700     0.9221430
  H        2.2491870     0.4866410    -0.8442620
  H        2.6839440    -0.8393840     0.2497200
units angstrom
no_reorient  #important for SAPT in psi4, default
symmetry c1  #important for SAPT in psi4, default
}

set PROPERTIES_ORIGIN ["COM"]
properties('MP2/aug-cc-pvtz', properties = ['dipole'])
--------------------------------------------------------------------------

    Molecular point group: c1
  Charge       = 1
  Multiplicity = 1
  Basis Set: AUG-CC-PVTZ
    Blend: AUG-CC-PVTZ
  Basis Set: (AUG-CC-PVTZ AUX)
    Blend: AUG-CC-PVTZ-JKFIT

    Orbital Energies [Eh]
    ---------------------

    Doubly Occupied:

       1A    -15.791420     2A    -15.789245     3A    -15.787924
       4A    -11.595368     5A    -11.434626     6A     -1.538623
       7A     -1.404103     8A     -1.388296     9A     -1.147527
      10A     -1.039482    11A     -0.974380    12A     -0.938750
      13A     -0.872826    14A     -0.860367    15A     -0.819462
      16A     -0.798606    17A     -0.741989    18A     -0.725044
      19A     -0.624263    20A     -0.591927

  @DF-RHF Final Energy:  -243.65593895664222

   => Energetics <=

    Nuclear Repulsion Energy =            192.9893649825723969
    One-Electron Energy =                -703.5621550163348275
    Two-Electron Energy =                 266.9168510771202136
    Total Energy =                       -243.6559389566422169
  Basis Set: (AUG-CC-PVTZ AUX)
    Blend: AUG-CC-PVTZ-RI
    Molecular point group: c1

    Geometry (in Angstrom), charge = 1, multiplicity = 1:

       Center              X                  Y                   Z               Mass
    ------------   -----------------  -----------------  -----------------  -----------------
         C            1.987357934325    -0.045249027112     0.066209464997    12.000000000000
         C           -0.484917065675    -0.004807027112    -0.022640535003    12.000000000000
         N            0.680311434325    -0.648107227112    -0.074028435003    14.003074004430
         N           -0.495764065675     1.332334972888    -0.010328535003    14.003074004430
         N           -1.644118065675    -0.675075027112     0.039874464997    14.003074004430
         H            0.630325934325    -1.652754027112    -0.312885535003     1.007825032230
         H            0.317252934325     1.869987972888    -0.279998535003     1.007825032230
         H           -1.332443065675     1.846829972888     0.233369464997     1.007825032230
         H           -1.671801065675    -1.658140027112     0.277460464997     1.007825032230
         H           -2.527031065675    -0.219055027112    -0.150004535003     1.007825032230
         H            1.986981934325     0.630283972888     0.923391464997     1.007825032230
         H            2.276218934325     0.488854972888    -0.843013535003     1.007825032230
         H            2.710975934325    -0.837170027112     0.250968464997     1.007825032230

  Basis Set: AUG-CC-PVTZ
    Blend: AUG-CC-PVTZ
  Basis Set: (AUG-CC-PVTZ AUX)
    Blend: AUG-CC-PVTZ-JKFIT
	 Reference Energy          =    -243.6559389566422169 [Eh]
	 Singles Energy            =      -0.0000000000000000 [Eh]
	 Same-Spin Energy          =      -0.2455523117425040 [Eh]
	 Opposite-Spin Energy      =      -0.8096609774755086 [Eh]
	 Correlation Energy        =      -1.0552132892180126 [Eh]
	 Total Energy              =    -244.7111522458602337 [Eh]

	 ================> DF-SCS-MP2 Energies <==================
	-----------------------------------------------------------
	 SCS Same-Spin Scale       =       0.3333333333333333 [-]
	 SCS Opposite-Spin Scale   =       1.2000000000000000 [-]
	 SCS Same-Spin Energy      =      -0.0818507705808347 [Eh]
	 SCS Opposite-Spin Energy  =      -0.9715931729706102 [Eh]
	 SCS Correlation Energy    =      -1.0534439435514449 [Eh]
	 SCS Total Energy          =    -244.7093829001936740 [Eh]
	-----------------------------------------------------------

  Dipole Moment: [D]
     X:    -1.2238      Y:    -0.0446      Z:    -0.1472     Total:     1.2334

*** Psi4 exiting successfully. Buy a developer a beer!
