                               Psi4 1.3.2 release

  ==> Input File <==

--------------------------------------------------------------------------
#psi4
#
memory 32 gb

molecule  {
1 1
  C        2.0014953    -0.1403217     0.0532011
  C       -0.5119490    -0.0070210    -0.0238890
  N        0.6418760    -0.6705780    -0.0750100
  N       -0.5227960     1.3301210    -0.0115770
  N       -1.6711500    -0.6772890     0.0386260
  H        0.6032940    -1.6549680    -0.3141340
  H        0.2902210     1.8677740    -0.2812470
  H       -1.3594750     1.8446160     0.2321210
  H       -1.6988330    -1.6603540     0.2762120
  H       -2.5540630    -0.2212690    -0.1512530
  H        1.9599500     0.6280700     0.9221430
  H        2.2491870     0.4866410    -0.8442620
  H        2.6839440    -0.8393840     0.2497200
units angstrom
no_reorient  #important for SAPT in psi4, default
symmetry c1  #important for SAPT in psi4, default
}

set PROPERTIES_ORIGIN ["COM"]
properties('MP2/aug-cc-pvtz', properties = ['dipole'])
--------------------------------------------------------------------------

    Molecular point group: c1
  Charge       = 1
  Multiplicity = 1
  Basis Set: AUG-CC-PVTZ
    Blend: AUG-CC-PVTZ
  Basis Set: (AUG-CC-PVTZ AUX)
    Blend: AUG-CC-PVTZ-JKFIT

    Orbital Energies [Eh]
    ---------------------

    Doubly Occupied:

       1A    -15.790563     2A    -15.790458     3A    -15.787318
       4A    -11.597480     5A    -11.438436     6A     -1.537898
       7A     -1.402960     8A     -1.388634     9A     -1.148863
      10A     -1.041677    11A     -0.976084    12A     -0.939517
      13A     -0.872782    14A     -0.863843    15A     -0.816498
      16A     -0.804882    17A     -0.745286    18A     -0.717894
      19A     -0.624484    20A     -0.588300

  @DF-RHF Final Energy:  -243.64406121991283

   => Energetics <=

    Nuclear Repulsion Energy =            192.4099254747556245
    One-Electron Energy =                -702.3602592427201898
    Two-Electron Energy =                 266.3062725480517656
    Total Energy =                       -243.6440612199128282
  Basis Set: (AUG-CC-PVTZ AUX)
    Blend: AUG-CC-PVTZ-RI
    Molecular point group: c1

    Geometry (in Angstrom), charge = 1, multiplicity = 1:

       Center              X                  Y                   Z               Mass
    ------------   -----------------  -----------------  -----------------  -----------------
         C            2.024013405242    -0.119234668145     0.056304270003    12.000000000000
         C           -0.489430894758     0.014066031855    -0.020785829997    12.000000000000
         N            0.664394105242    -0.649490968145    -0.071906829997    14.003074004430
         N           -0.500277894758     1.351208031855    -0.008473829997    14.003074004430
         N           -1.648631894758    -0.656201968145     0.041729170003    14.003074004430
         H            0.625812105242    -1.633880968145    -0.311030829997     1.007825032230
         H            0.312739105242     1.888861031855    -0.278143829997     1.007825032230
         H           -1.336956894758     1.865703031855     0.235224170003     1.007825032230
         H           -1.676314894758    -1.639266968145     0.279315170003     1.007825032230
         H           -2.531544894758    -0.200181968145    -0.148149829997     1.007825032230
         H            1.982468105242     0.649157031855     0.925246170003     1.007825032230
         H            2.271705105242     0.507728031855    -0.841158829997     1.007825032230
         H            2.706462105242    -0.818296968145     0.252823170003     1.007825032230

  Basis Set: AUG-CC-PVTZ
    Blend: AUG-CC-PVTZ
  Basis Set: (AUG-CC-PVTZ AUX)
    Blend: AUG-CC-PVTZ-JKFIT
	 Reference Energy          =    -243.6440612199128282 [Eh]
	 Singles Energy            =      -0.0000000000000000 [Eh]
	 Same-Spin Energy          =      -0.2453528609211719 [Eh]
	 Opposite-Spin Energy      =      -0.8098703423351721 [Eh]
	 Correlation Energy        =      -1.0552232032563440 [Eh]
	 Total Energy              =    -244.6992844231691606 [Eh]

	 ================> DF-SCS-MP2 Energies <==================
	-----------------------------------------------------------
	 SCS Same-Spin Scale       =       0.3333333333333333 [-]
	 SCS Opposite-Spin Scale   =       1.2000000000000000 [-]
	 SCS Same-Spin Energy      =      -0.0817842869737239 [Eh]
	 SCS Opposite-Spin Energy  =      -0.9718444108022064 [Eh]
	 SCS Correlation Energy    =      -1.0536286977759304 [Eh]
	 SCS Total Energy          =    -244.6976899176887628 [Eh]
	-----------------------------------------------------------

  Dipole Moment: [D]
     X:    -1.2232      Y:     0.0529      Z:    -0.1560     Total:     1.2342

*** Psi4 exiting successfully. Buy a developer a beer!
