                               Psi4 1.3.2 release

  ==> Input File <==

--------------------------------------------------------------------------
#psi4
#
memory 32 gb

molecule  {
1 1
  C        1.9603260    -0.0474630     0.0649610
  C       -0.5119490    -0.0070210    -0.0238890
  N        0.6418760    -0.6705780    -0.0750100
  N       -0.5460912     1.3297157    -0.0102067
  N       -1.6711500    -0.6772890     0.0386260
  H        0.6032940    -1.6549680    -0.3141340
  H        0.2902210     1.8677740    -0.2812470
  H       -1.3594750     1.8446160     0.2321210
  H       -1.6988330    -1.6603540     0.2762120
  H       -2.5540630    -0.2212690    -0.1512530
  H        1.9599500     0.6280700     0.9221430
  H        2.2491870     0.4866410    -0.8442620
  H        2.6839440    -0.8393840     0.2497200
units angstrom
no_reorient  #important for SAPT in psi4, default
symmetry c1  #important for SAPT in psi4, default
}

set PROPERTIES_ORIGIN ["COM"]
properties('MP2/aug-cc-pvtz', properties = ['dipole'])
--------------------------------------------------------------------------

    Molecular point group: c1
  Charge       = 1
  Multiplicity = 1
  Basis Set: AUG-CC-PVTZ
    Blend: AUG-CC-PVTZ
  Basis Set: (AUG-CC-PVTZ AUX)
    Blend: AUG-CC-PVTZ-JKFIT

    Orbital Energies [Eh]
    ---------------------

    Doubly Occupied:

       1A    -15.791001     2A    -15.790056     3A    -15.785655
       4A    -11.595293     5A    -11.436710     6A     -1.538044
       7A     -1.403824     8A     -1.386989     9A     -1.144984
      10A     -1.043369    11A     -0.975354    12A     -0.938275
      13A     -0.873235    14A     -0.863067    15A     -0.816368
      16A     -0.794095    17A     -0.742339    18A     -0.727968
      19A     -0.623561    20A     -0.593953

  @DF-RHF Final Energy:  -243.65646073549189

   => Energetics <=

    Nuclear Repulsion Energy =            192.7580395396390429
    One-Electron Energy =                -703.1007202777369685
    Two-Electron Energy =                 266.6862200026059782
    Total Energy =                       -243.6564607354919190
  Basis Set: (AUG-CC-PVTZ AUX)
    Blend: AUG-CC-PVTZ-RI
    Molecular point group: c1

    Geometry (in Angstrom), charge = 1, multiplicity = 1:

       Center              X                  Y                   Z               Mass
    ------------   -----------------  -----------------  -----------------  -----------------
         C            1.993917627999    -0.041342914011     0.065899956846    12.000000000000
         C           -0.478357372001    -0.000900914011    -0.022950043154    12.000000000000
         N            0.675467627999    -0.664457914011    -0.074071043154    14.003074004430
         N           -0.512499572001     1.335835785989    -0.009267743154    14.003074004430
         N           -1.637558372001    -0.671168914011     0.039564956846    14.003074004430
         H            0.636885627999    -1.648847914011    -0.313195043154     1.007825032230
         H            0.323812627999     1.873894085989    -0.280308043154     1.007825032230
         H           -1.325883372001     1.850736085989     0.233059956846     1.007825032230
         H           -1.665241372001    -1.654233914011     0.277150956846     1.007825032230
         H           -2.520471372001    -0.215148914011    -0.150314043154     1.007825032230
         H            1.993541627999     0.634190085989     0.923081956846     1.007825032230
         H            2.282778627999     0.492761085989    -0.843323043154     1.007825032230
         H            2.717535627999    -0.833263914011     0.250658956846     1.007825032230

  Basis Set: AUG-CC-PVTZ
    Blend: AUG-CC-PVTZ
  Basis Set: (AUG-CC-PVTZ AUX)
    Blend: AUG-CC-PVTZ-JKFIT
	 Reference Energy          =    -243.6564607354918905 [Eh]
	 Singles Energy            =      -0.0000000000000000 [Eh]
	 Same-Spin Energy          =      -0.2452609695840186 [Eh]
	 Opposite-Spin Energy      =      -0.8093156059059187 [Eh]
	 Correlation Energy        =      -1.0545765754899372 [Eh]
	 Total Energy              =    -244.7110373109818227 [Eh]

	 ================> DF-SCS-MP2 Energies <==================
	-----------------------------------------------------------
	 SCS Same-Spin Scale       =       0.3333333333333333 [-]
	 SCS Opposite-Spin Scale   =       1.2000000000000000 [-]
	 SCS Same-Spin Energy      =      -0.0817536565280062 [Eh]
	 SCS Opposite-Spin Energy  =      -0.9711787270871024 [Eh]
	 SCS Correlation Energy    =      -1.0529323836151085 [Eh]
	 SCS Total Energy          =    -244.7093931191070055 [Eh]
	-----------------------------------------------------------

  Dipole Moment: [D]
     X:    -1.1238      Y:     0.0176      Z:    -0.1493     Total:     1.1338

*** Psi4 exiting successfully. Buy a developer a beer!
