                               Psi4 1.4a3.dev225

  ==> Input File <==

--------------------------------------------------------------------------
#psi4
#
memory 32 gb

molecule  {
1 1
  C        1.9513750    -0.0476850     0.0410900
  C       -0.5109630    -0.0088300    -0.0208070
  N        0.6383630    -0.6790700    -0.0530430
  N       -0.5022500     1.3295140     0.0248160
  N       -1.6788480    -0.6625100     0.0611020
  H        0.5992730    -1.6821200    -0.1885540
  H        0.3231868     1.8592682    -0.2937024
  H       -1.3771720     1.8372740     0.0557700
  H       -1.6998490    -1.6741350     0.0517440
  H       -2.5379350    -0.1934290    -0.1962670
  H        1.9812500     0.6292430     0.8968410
  H        2.1994310     0.4949160    -0.8747400
  H        2.6844950    -0.8371890     0.1909030
units angstrom
no_reorient  #important for SAPT in psi4, default
symmetry c1  #important for SAPT in psi4, default
}

set PROPERTIES_ORIGIN ["COM"]
properties('MP2/aug-cc-pvtz', properties = ['dipole'])
--------------------------------------------------------------------------

    Molecular point group: c1
  Charge       = 1
  Multiplicity = 1
  Basis Set: AUG-CC-PVTZ
    Blend: AUG-CC-PVTZ
  Basis Set: (AUG-CC-PVTZ AUX)
    Blend: AUG-CC-PVTZ-JKFIT

    Orbital Energies [Eh]
    ---------------------

    Doubly Occupied:

       1A    -15.791883     2A    -15.791665     3A    -15.788542
       4A    -11.595002     5A    -11.436612     6A     -1.539979
       7A     -1.405006     8A     -1.388534     9A     -1.145875
      10A     -1.041776    11A     -0.976547    12A     -0.937290
      13A     -0.862045    14A     -0.860721    15A     -0.823862
      16A     -0.797935    17A     -0.745759    18A     -0.728866
      19A     -0.625919    20A     -0.594665

  @DF-RHF Final Energy:  -243.65629749684049

   => Energetics <=

    Nuclear Repulsion Energy =            193.0604022640880260
    One-Electron Energy =                -703.6764296131334504
    Two-Electron Energy =                 266.9597298522049869
    Total Energy =                       -243.6562974968404660
  Basis Set: (AUG-CC-PVTZ AUX)
    Blend: AUG-CC-PVTZ-RI
    Molecular point group: c1

    Geometry (in Angstrom), charge = 1, multiplicity = 1:

       Center              X                  Y                   Z               Mass
    ------------   -----------------  -----------------  -----------------  -----------------
         C            1.980109371850    -0.042150936456     0.036460165826    12.000000000000
         C           -0.482228628150    -0.003295936456    -0.025436834174    12.000000000000
         N            0.667097371850    -0.673535936456    -0.057672834174    14.003074004430
         N           -0.473515628150     1.335048063544     0.020186165826    14.003074004430
         N           -1.650113628150    -0.656975936456     0.056472165826    14.003074004430
         H            0.628007371850    -1.676585936456    -0.193183834174     1.007825032230
         H            0.351921171850     1.864802263544    -0.298332234174     1.007825032230
         H           -1.348437628150     1.842808063544     0.051140165826     1.007825032230
         H           -1.671114628150    -1.668600936456     0.047114165826     1.007825032230
         H           -2.509200628150    -0.187894936456    -0.200896834174     1.007825032230
         H            2.009984371850     0.634777063544     0.892211165826     1.007825032230
         H            2.228165371850     0.500450063544    -0.879369834174     1.007825032230
         H            2.713229371850    -0.831654936456     0.186273165826     1.007825032230

  Basis Set: AUG-CC-PVTZ
    Blend: AUG-CC-PVTZ
  Basis Set: (AUG-CC-PVTZ AUX)
    Blend: AUG-CC-PVTZ-JKFIT
	 Reference Energy          =    -243.6562974968404944 [Eh]
	 Singles Energy            =      -0.0000000000000000 [Eh]
	 Same-Spin Energy          =      -0.2453378909218674 [Eh]
	 Opposite-Spin Energy      =      -0.8095014109609746 [Eh]
	 Correlation Energy        =      -1.0548393018828419 [Eh]
	 Total Energy              =    -244.7111367987233450 [Eh]

	 ================> DF-SCS-MP2 Energies <==================
	-----------------------------------------------------------
	 SCS Same-Spin Scale       =       0.3333333333333333 [-]
	 SCS Opposite-Spin Scale   =       1.2000000000000000 [-]
	 SCS Same-Spin Energy      =      -0.0817792969739558 [Eh]
	 SCS Opposite-Spin Energy  =      -0.9714016931531695 [Eh]
	 SCS Correlation Energy    =      -1.0531809901271252 [Eh]
	 SCS Total Energy          =    -244.7094784869676118 [Eh]
	-----------------------------------------------------------

  Dipole Moment: [D]
     X:    -1.1546      Y:    -0.0954      Z:    -0.9025     Total:     1.4686

*** Psi4 exiting successfully. Buy a developer a beer!
