                               Psi4 1.3.2 release

  ==> Input File <==

--------------------------------------------------------------------------
#psi4
#
memory 32 gb

molecule  {
1 1
  C        1.9603260    -0.0474630     0.0649610
  C       -0.5119490    -0.0070210    -0.0238890
  N        0.5927836    -0.7495231    -0.0737877
  N       -0.5227960     1.3301210    -0.0115770
  N       -1.6711500    -0.6772890     0.0386260
  H        0.6032940    -1.6549680    -0.3141340
  H        0.2902210     1.8677740    -0.2812470
  H       -1.3594750     1.8446160     0.2321210
  H       -1.6988330    -1.6603540     0.2762120
  H       -2.5540630    -0.2212690    -0.1512530
  H        1.9599500     0.6280700     0.9221430
  H        2.2491870     0.4866410    -0.8442620
  H        2.6839440    -0.8393840     0.2497200
units angstrom
no_reorient  #important for SAPT in psi4, default
symmetry c1  #important for SAPT in psi4, default
}

set PROPERTIES_ORIGIN ["COM"]
properties('MP2/aug-cc-pvtz', properties = ['dipole'])
--------------------------------------------------------------------------

    Molecular point group: c1
  Charge       = 1
  Multiplicity = 1
  Basis Set: AUG-CC-PVTZ
    Blend: AUG-CC-PVTZ
  Basis Set: (AUG-CC-PVTZ AUX)
    Blend: AUG-CC-PVTZ-JKFIT

    Orbital Energies [Eh]
    ---------------------

    Doubly Occupied:

       1A    -15.793900     2A    -15.784069     3A    -15.782212
       4A    -11.595787     5A    -11.442743     6A     -1.536752
       7A     -1.401503     8A     -1.385128     9A     -1.134246
      10A     -1.058237    11A     -0.981150    12A     -0.939478
      13A     -0.877655    14A     -0.866945    15A     -0.810160
      16A     -0.771639    17A     -0.743509    18A     -0.732548
      19A     -0.624957    20A     -0.597808

  @DF-RHF Final Energy:  -243.64700196110448

   => Energetics <=

    Nuclear Repulsion Energy =            192.2141787255700933
    One-Electron Energy =                -702.0015138662794243
    Two-Electron Energy =                 266.1403331796048519
    Total Energy =                       -243.6470019611044791
  Basis Set: (AUG-CC-PVTZ AUX)
    Blend: AUG-CC-PVTZ-RI
    Molecular point group: c1

    Geometry (in Angstrom), charge = 1, multiplicity = 1:

       Center              X                  Y                   Z               Mass
    ------------   -----------------  -----------------  -----------------  -----------------
         C            1.998794517612    -0.026495181122     0.065927935839    12.000000000000
         C           -0.473480482388     0.013946818878    -0.022922064161    12.000000000000
         N            0.631252117612    -0.728555281122    -0.072820764161    14.003074004430
         N           -0.484327482388     1.351088818878    -0.010610064161    14.003074004430
         N           -1.632681482388    -0.656321181122     0.039592935839    14.003074004430
         H            0.641762517612    -1.634000181122    -0.313167064161     1.007825032230
         H            0.328689517612     1.888741818878    -0.280280064161     1.007825032230
         H           -1.321006482388     1.865583818878     0.233087935839     1.007825032230
         H           -1.660364482388    -1.639386181122     0.277178935839     1.007825032230
         H           -2.515594482388    -0.200301181122    -0.150286064161     1.007825032230
         H            1.998418517612     0.649037818878     0.923109935839     1.007825032230
         H            2.287655517612     0.507608818878    -0.843295064161     1.007825032230
         H            2.722412517612    -0.818416181122     0.250686935839     1.007825032230

  Basis Set: AUG-CC-PVTZ
    Blend: AUG-CC-PVTZ
  Basis Set: (AUG-CC-PVTZ AUX)
    Blend: AUG-CC-PVTZ-JKFIT
	 Reference Energy          =    -243.6470019611044791 [Eh]
	 Singles Energy            =      -0.0000000000000000 [Eh]
	 Same-Spin Energy          =      -0.2445685181277501 [Eh]
	 Opposite-Spin Energy      =      -0.8089270659261794 [Eh]
	 Correlation Energy        =      -1.0534955840539295 [Eh]
	 Total Energy              =    -244.7004975451584130 [Eh]

	 ================> DF-SCS-MP2 Energies <==================
	-----------------------------------------------------------
	 SCS Same-Spin Scale       =       0.3333333333333333 [-]
	 SCS Opposite-Spin Scale   =       1.2000000000000000 [-]
	 SCS Same-Spin Energy      =      -0.0815228393759167 [Eh]
	 SCS Opposite-Spin Energy  =      -0.9707124791114152 [Eh]
	 SCS Correlation Energy    =      -1.0522353184873319 [Eh]
	 SCS Total Energy          =    -244.6992372795918129 [Eh]
	-----------------------------------------------------------

  Dipole Moment: [D]
     X:    -1.0497      Y:     0.2739      Z:    -0.1753     Total:     1.0989

*** Psi4 exiting successfully. Buy a developer a beer!
