                               Psi4 1.3.2 release

  ==> Input File <==

--------------------------------------------------------------------------
#psi4
#
memory 32 gb

molecule  {
1 1
  C        1.9603260    -0.0474630     0.0649610
  C       -0.5119490    -0.0070210    -0.0238890
  N        0.6418760    -0.6705780    -0.0750100
  N       -0.4762028     1.3297096    -0.0143285
  N       -1.6711500    -0.6772890     0.0386260
  H        0.6032940    -1.6549680    -0.3141340
  H        0.2902210     1.8677740    -0.2812470
  H       -1.3594750     1.8446160     0.2321210
  H       -1.6988330    -1.6603540     0.2762120
  H       -2.5540630    -0.2212690    -0.1512530
  H        1.9599500     0.6280700     0.9221430
  H        2.2491870     0.4866410    -0.8442620
  H        2.6839440    -0.8393840     0.2497200
units angstrom
no_reorient  #important for SAPT in psi4, default
symmetry c1  #important for SAPT in psi4, default
}

set PROPERTIES_ORIGIN ["COM"]
properties('MP2/aug-cc-pvtz', properties = ['dipole'])
--------------------------------------------------------------------------

    Molecular point group: c1
  Charge       = 1
  Multiplicity = 1
  Basis Set: AUG-CC-PVTZ
    Blend: AUG-CC-PVTZ
  Basis Set: (AUG-CC-PVTZ AUX)
    Blend: AUG-CC-PVTZ-JKFIT

    Orbital Energies [Eh]
    ---------------------

    Doubly Occupied:

       1A    -15.790286     2A    -15.789074     3A    -15.788133
       4A    -11.595533     5A    -11.435195     6A     -1.538368
       7A     -1.400104     8A     -1.391250     9A     -1.144096
      10A     -1.044008    11A     -0.975030    12A     -0.941374
      13A     -0.878140    14A     -0.853950    15A     -0.817482
      16A     -0.793085    17A     -0.741560    18A     -0.726408
      19A     -0.625826    20A     -0.592279

  @DF-RHF Final Energy:  -243.65373856918794

   => Energetics <=

    Nuclear Repulsion Energy =            192.9694694245041831
    One-Electron Energy =                -703.5240548808631047
    Two-Electron Energy =                 266.9008468871710420
    Total Energy =                       -243.6537385691879081
  Basis Set: (AUG-CC-PVTZ AUX)
    Blend: AUG-CC-PVTZ-RI
    Molecular point group: c1

    Geometry (in Angstrom), charge = 1, multiplicity = 1:

       Center              X                  Y                   Z               Mass
    ------------   -----------------  -----------------  -----------------  -----------------
         C            1.980705418453    -0.041341760822     0.066679171785    12.000000000000
         C           -0.491569581547    -0.000899760822    -0.022170828215    12.000000000000
         N            0.662255418453    -0.664456760822    -0.073291828215    14.003074004430
         N           -0.455823381547     1.335830839178    -0.012610328215    14.003074004430
         N           -1.650770581547    -0.671167760822     0.040344171785    14.003074004430
         H            0.623673418453    -1.648846760822    -0.312415828215     1.007825032230
         H            0.310600418453     1.873895239178    -0.279528828215     1.007825032230
         H           -1.339095581547     1.850737239178     0.233839171785     1.007825032230
         H           -1.678453581547    -1.654232760822     0.277930171785     1.007825032230
         H           -2.533683581547    -0.215147760822    -0.149534828215     1.007825032230
         H            1.980329418453     0.634191239178     0.923861171785     1.007825032230
         H            2.269566418453     0.492762239178    -0.842543828215     1.007825032230
         H            2.704323418453    -0.833262760822     0.251438171785     1.007825032230

  Basis Set: AUG-CC-PVTZ
    Blend: AUG-CC-PVTZ
  Basis Set: (AUG-CC-PVTZ AUX)
    Blend: AUG-CC-PVTZ-JKFIT
	 Reference Energy          =    -243.6537385691879365 [Eh]
	 Singles Energy            =      -0.0000000000000000 [Eh]
	 Same-Spin Energy          =      -0.2453982148424995 [Eh]
	 Opposite-Spin Energy      =      -0.8095872765534146 [Eh]
	 Correlation Energy        =      -1.0549854913959140 [Eh]
	 Total Energy              =    -244.7087240605838474 [Eh]

	 ================> DF-SCS-MP2 Energies <==================
	-----------------------------------------------------------
	 SCS Same-Spin Scale       =       0.3333333333333333 [-]
	 SCS Opposite-Spin Scale   =       1.2000000000000000 [-]
	 SCS Same-Spin Energy      =      -0.0817994049474998 [Eh]
	 SCS Opposite-Spin Energy  =      -0.9715047318640975 [Eh]
	 SCS Correlation Energy    =      -1.0533041368115974 [Eh]
	 SCS Total Energy          =    -244.7070427059995268 [Eh]
	-----------------------------------------------------------

  Dipole Moment: [D]
     X:    -1.3230      Y:     0.0130      Z:    -0.1605     Total:     1.3328

*** Psi4 exiting successfully. Buy a developer a beer!
