                               Psi4 1.4a3.dev225

  ==> Input File <==

--------------------------------------------------------------------------
#psi4
#
memory 32 gb

molecule  {
1 1
  C        1.9513750    -0.0476850     0.0410900
  C       -0.5109630    -0.0088300    -0.0208070
  N        0.5951835    -0.6538895    -0.0518319
  N       -0.5022500     1.3295140     0.0248160
  N       -1.6788480    -0.6625100     0.0611020
  H        0.5992730    -1.6821200    -0.1885540
  H        0.3071780     1.8489940    -0.2875250
  H       -1.3771720     1.8372740     0.0557700
  H       -1.6998490    -1.6741350     0.0517440
  H       -2.5379350    -0.1934290    -0.1962670
  H        1.9812500     0.6292430     0.8968410
  H        2.1994310     0.4949160    -0.8747400
  H        2.6844950    -0.8371890     0.1909030
units angstrom
no_reorient  #important for SAPT in psi4, default
symmetry c1  #important for SAPT in psi4, default
}

set PROPERTIES_ORIGIN ["COM"]
properties('MP2/aug-cc-pvtz', properties = ['dipole'])
--------------------------------------------------------------------------

    Molecular point group: c1
  Charge       = 1
  Multiplicity = 1
  Basis Set: AUG-CC-PVTZ
    Blend: AUG-CC-PVTZ
  Basis Set: (AUG-CC-PVTZ AUX)
    Blend: AUG-CC-PVTZ-JKFIT

    Orbital Energies [Eh]
    ---------------------

    Doubly Occupied:

       1A    -15.795123     2A    -15.784765     3A    -15.782855
       4A    -11.586664     5A    -11.442845     6A     -1.548574
       7A     -1.404813     8A     -1.387065     9A     -1.152379
      10A     -1.039002    11A     -0.978506    12A     -0.936719
      13A     -0.862729    14A     -0.861079    15A     -0.828181
      16A     -0.792071    17A     -0.745630    18A     -0.733103
      19A     -0.623588    20A     -0.599720

  @DF-RHF Final Energy:  -243.65467232619312

   => Energetics <=

    Nuclear Repulsion Energy =            193.8632797881960244
    One-Electron Energy =                -705.2650825784345443
    Two-Electron Energy =                 267.7471304640454264
    Total Energy =                       -243.6546723261931220
  Basis Set: (AUG-CC-PVTZ AUX)
    Blend: AUG-CC-PVTZ-RI
    Molecular point group: c1

    Geometry (in Angstrom), charge = 1, multiplicity = 1:

       Center              X                  Y                   Z               Mass
    ------------   -----------------  -----------------  -----------------  -----------------
         C            1.988490153966    -0.046771449338     0.036147160683    12.000000000000
         C           -0.473847846034    -0.007916449338    -0.025749839317    12.000000000000
         N            0.632298653966    -0.652975949338    -0.056774739317    14.003074004430
         N           -0.465134846034     1.330427550662     0.019873160683    14.003074004430
         N           -1.641732846034    -0.661596449338     0.056159160683    14.003074004430
         H            0.636388153966    -1.681206449338    -0.193496839317     1.007825032230
         H            0.344293153966     1.849907550662    -0.292467839317     1.007825032230
         H           -1.340056846034     1.838187550662     0.050827160683     1.007825032230
         H           -1.662733846034    -1.673221449338     0.046801160683     1.007825032230
         H           -2.500819846034    -0.192515449338    -0.201209839317     1.007825032230
         H            2.018365153966     0.630156550662     0.891898160683     1.007825032230
         H            2.236546153966     0.495829550662    -0.879682839317     1.007825032230
         H            2.721610153966    -0.836275449338     0.185960160683     1.007825032230

  Basis Set: AUG-CC-PVTZ
    Blend: AUG-CC-PVTZ
  Basis Set: (AUG-CC-PVTZ AUX)
    Blend: AUG-CC-PVTZ-JKFIT
	 Reference Energy          =    -243.6546723261931220 [Eh]
	 Singles Energy            =      -0.0000000000000000 [Eh]
	 Same-Spin Energy          =      -0.2450572741245951 [Eh]
	 Opposite-Spin Energy      =      -0.8089337603288564 [Eh]
	 Correlation Energy        =      -1.0539910344534515 [Eh]
	 Total Energy              =    -244.7086633606465682 [Eh]

	 ================> DF-SCS-MP2 Energies <==================
	-----------------------------------------------------------
	 SCS Same-Spin Scale       =       0.3333333333333333 [-]
	 SCS Opposite-Spin Scale   =       1.2000000000000000 [-]
	 SCS Same-Spin Energy      =      -0.0816857580415317 [Eh]
	 SCS Opposite-Spin Energy  =      -0.9707205123946276 [Eh]
	 SCS Correlation Energy    =      -1.0524062704361594 [Eh]
	 SCS Total Energy          =    -244.7070785966292874 [Eh]
	-----------------------------------------------------------

  Dipole Moment: [D]
     X:    -0.8336      Y:    -0.2555      Z:    -0.9105     Total:     1.2606

*** Psi4 exiting successfully. Buy a developer a beer!
