                               Psi4 1.3.2 release

  ==> Input File <==

--------------------------------------------------------------------------
#psi4
#
memory 32 gb

molecule  {
1 1
  C        1.9603260    -0.0474630     0.0649610
  C       -0.5119490    -0.0070210    -0.0238890
  N        0.6853471    -0.5884001    -0.0759832
  N       -0.5227960     1.3301210    -0.0115770
  N       -1.6711500    -0.6772890     0.0386260
  H        0.6032940    -1.6549680    -0.3141340
  H        0.2902210     1.8677740    -0.2812470
  H       -1.3594750     1.8446160     0.2321210
  H       -1.6988330    -1.6603540     0.2762120
  H       -2.5540630    -0.2212690    -0.1512530
  H        1.9599500     0.6280700     0.9221430
  H        2.2491870     0.4866410    -0.8442620
  H        2.6839440    -0.8393840     0.2497200
units angstrom
no_reorient  #important for SAPT in psi4, default
symmetry c1  #important for SAPT in psi4, default
}

set PROPERTIES_ORIGIN ["COM"]
properties('MP2/aug-cc-pvtz', properties = ['dipole'])
--------------------------------------------------------------------------

    Molecular point group: c1
  Charge       = 1
  Multiplicity = 1
  Basis Set: AUG-CC-PVTZ
    Blend: AUG-CC-PVTZ
  Basis Set: (AUG-CC-PVTZ AUX)
    Blend: AUG-CC-PVTZ-JKFIT

    Orbital Energies [Eh]
    ---------------------

    Doubly Occupied:

       1A    -15.795486     2A    -15.791423     3A    -15.786657
       4A    -11.596425     5A    -11.430276     6A     -1.540873
       7A     -1.411478     8A     -1.386991     9A     -1.156962
      10A     -1.031738    11A     -0.971145    12A     -0.938702
      13A     -0.873118    14A     -0.853891    15A     -0.827903
      16A     -0.810274    17A     -0.742394    18A     -0.715011
      19A     -0.624543    20A     -0.586882

  @DF-RHF Final Energy:  -243.64316715617281

   => Energetics <=

    Nuclear Repulsion Energy =            193.5301319478577966
    One-Electron Energy =                -704.6022562721518625
    Two-Electron Energy =                 267.4289571681212578
    Total Energy =                       -243.6431671561728081
  Basis Set: (AUG-CC-PVTZ AUX)
    Blend: AUG-CC-PVTZ-RI
    Molecular point group: c1

    Geometry (in Angstrom), charge = 1, multiplicity = 1:

       Center              X                  Y                   Z               Mass
    ------------   -----------------  -----------------  -----------------  -----------------
         C            1.981295642860    -0.056955040534     0.066342989067    12.000000000000
         C           -0.490979357140    -0.016513040534    -0.022507010933    12.000000000000
         N            0.706316742860    -0.597892140534    -0.074601210933    14.003074004430
         N           -0.501826357140     1.320628959466    -0.010195010933    14.003074004430
         N           -1.650180357140    -0.686781040534     0.040007989067    14.003074004430
         H            0.624263642860    -1.664460040534    -0.312752010933     1.007825032230
         H            0.311190642860     1.858281959466    -0.279865010933     1.007825032230
         H           -1.338505357140     1.835123959466     0.233502989067     1.007825032230
         H           -1.677863357140    -1.669846040534     0.277593989067     1.007825032230
         H           -2.533093357140    -0.230761040534    -0.149871010933     1.007825032230
         H            1.980919642860     0.618577959466     0.923524989067     1.007825032230
         H            2.270156642860     0.477148959466    -0.842880010933     1.007825032230
         H            2.704913642860    -0.848876040534     0.251101989067     1.007825032230

  Basis Set: AUG-CC-PVTZ
    Blend: AUG-CC-PVTZ
  Basis Set: (AUG-CC-PVTZ AUX)
    Blend: AUG-CC-PVTZ-JKFIT
	 Reference Energy          =    -243.6431671561728081 [Eh]
	 Singles Energy            =      -0.0000000000000000 [Eh]
	 Same-Spin Energy          =      -0.2466008593940027 [Eh]
	 Opposite-Spin Energy      =      -0.8112572382332446 [Eh]
	 Correlation Energy        =      -1.0578580976272471 [Eh]
	 Total Energy              =    -244.7010252538000543 [Eh]

	 ================> DF-SCS-MP2 Energies <==================
	-----------------------------------------------------------
	 SCS Same-Spin Scale       =       0.3333333333333333 [-]
	 SCS Opposite-Spin Scale   =       1.2000000000000000 [-]
	 SCS Same-Spin Energy      =      -0.0822002864646676 [Eh]
	 SCS Opposite-Spin Energy  =      -0.9735086858798935 [Eh]
	 SCS Correlation Energy    =      -1.0557089723445610 [Eh]
	 SCS Total Energy          =    -244.6988761285173553 [Eh]
	-----------------------------------------------------------

  Dipole Moment: [D]
     X:    -1.3152      Y:    -0.2241      Z:    -0.1283     Total:     1.3403

*** Psi4 exiting successfully. Buy a developer a beer!
