                               Psi4 1.4a3.dev225

  ==> Input File <==

--------------------------------------------------------------------------
#psi4
#
memory 32 gb

molecule  {
1 1
  C        1.9513750    -0.0476850     0.0410900
  C       -0.5109630    -0.0088300    -0.0208070
  N        0.6383630    -0.6790700    -0.0530430
  N       -0.5022500     1.3295140     0.0248160
  N       -1.6788480    -0.6625100     0.0611020
  H        0.6000448    -1.6623148    -0.1858783
  H        0.3071780     1.8489940    -0.2875250
  H       -1.3771720     1.8372740     0.0557700
  H       -1.6998490    -1.6741350     0.0517440
  H       -2.5379350    -0.1934290    -0.1962670
  H        1.9812500     0.6292430     0.8968410
  H        2.1994310     0.4949160    -0.8747400
  H        2.6844950    -0.8371890     0.1909030
units angstrom
no_reorient  #important for SAPT in psi4, default
symmetry c1  #important for SAPT in psi4, default
}

set PROPERTIES_ORIGIN ["COM"]
properties('MP2/aug-cc-pvtz', properties = ['dipole'])
--------------------------------------------------------------------------

    Molecular point group: c1
  Charge       = 1
  Multiplicity = 1
  Basis Set: AUG-CC-PVTZ
    Blend: AUG-CC-PVTZ
  Basis Set: (AUG-CC-PVTZ AUX)
    Blend: AUG-CC-PVTZ-JKFIT

    Orbital Energies [Eh]
    ---------------------

    Doubly Occupied:

       1A    -15.790723     2A    -15.790322     3A    -15.789036
       4A    -11.595548     5A    -11.436716     6A     -1.541568
       7A     -1.407463     8A     -1.390918     9A     -1.146414
      10A     -1.046210    11A     -0.980233    12A     -0.938450
      13A     -0.864877    14A     -0.863313    15A     -0.824984
      16A     -0.799150    17A     -0.746184    18A     -0.729645
      19A     -0.626694    20A     -0.595385

  @DF-RHF Final Energy:  -243.65771254406144

   => Energetics <=

    Nuclear Repulsion Energy =            193.2715314434694562
    One-Electron Energy =                -704.0508187601889176
    Two-Electron Energy =                 267.1215747726579934
    Total Energy =                       -243.6577125440614395
  Basis Set: (AUG-CC-PVTZ AUX)
    Blend: AUG-CC-PVTZ-RI
    Molecular point group: c1

    Geometry (in Angstrom), charge = 1, multiplicity = 1:

       Center              X                  Y                   Z               Mass
    ------------   -----------------  -----------------  -----------------  -----------------
         C            1.980316687258    -0.042280615733     0.036339710091    12.000000000000
         C           -0.482021312742    -0.003425615733    -0.025557289909    12.000000000000
         N            0.667304687258    -0.673665615733    -0.057793289909    14.003074004430
         N           -0.473308312742     1.334918384267     0.020065710091    14.003074004430
         N           -1.649906312742    -0.657105615733     0.056351710091    14.003074004430
         H            0.628986487258    -1.656910415733    -0.190628589909     1.007825032230
         H            0.336119687258     1.854398384267    -0.292275289909     1.007825032230
         H           -1.348230312742     1.842678384267     0.051019710091     1.007825032230
         H           -1.670907312742    -1.668730615733     0.046993710091     1.007825032230
         H           -2.508993312742    -0.188024615733    -0.201017289909     1.007825032230
         H            2.010191687258     0.634647384267     0.892090710091     1.007825032230
         H            2.228372687258     0.500320384267    -0.879490289909     1.007825032230
         H            2.713436687258    -0.831784615733     0.186152710091     1.007825032230

  Basis Set: AUG-CC-PVTZ
    Blend: AUG-CC-PVTZ
  Basis Set: (AUG-CC-PVTZ AUX)
    Blend: AUG-CC-PVTZ-JKFIT
	 Reference Energy          =    -243.6577125440614395 [Eh]
	 Singles Energy            =      -0.0000000000000000 [Eh]
	 Same-Spin Energy          =      -0.2450664703019363 [Eh]
	 Opposite-Spin Energy      =      -0.8088389546874617 [Eh]
	 Correlation Energy        =      -1.0539054249893980 [Eh]
	 Total Energy              =    -244.7116179690508488 [Eh]

	 ================> DF-SCS-MP2 Energies <==================
	-----------------------------------------------------------
	 SCS Same-Spin Scale       =       0.3333333333333333 [-]
	 SCS Opposite-Spin Scale   =       1.2000000000000000 [-]
	 SCS Same-Spin Energy      =      -0.0816888234339788 [Eh]
	 SCS Opposite-Spin Energy  =      -0.9706067456249540 [Eh]
	 SCS Correlation Energy    =      -1.0522955690589328 [Eh]
	 SCS Total Energy          =    -244.7100081131203808 [Eh]
	-----------------------------------------------------------

  Dipole Moment: [D]
     X:    -1.1833      Y:    -0.0890      Z:    -0.8916     Total:     1.4843

*** Psi4 exiting successfully. Buy a developer a beer!
