                               Psi4 1.3.2 release

  ==> Input File <==

--------------------------------------------------------------------------
#psi4
#
memory 32 gb

molecule  {
1 1
  C        2.0196073    -0.1877486     0.0470833
  C       -0.5119490    -0.0070210    -0.0238890
  N        0.6418760    -0.6705780    -0.0750100
  N       -0.5227960     1.3301210    -0.0115770
  N       -1.6711500    -0.6772890     0.0386260
  H        0.6032940    -1.6549680    -0.3141340
  H        0.2902210     1.8677740    -0.2812470
  H       -1.3594750     1.8446160     0.2321210
  H       -1.6988330    -1.6603540     0.2762120
  H       -2.5540630    -0.2212690    -0.1512530
  H        1.9599500     0.6280700     0.9221430
  H        2.2491870     0.4866410    -0.8442620
  H        2.6839440    -0.8393840     0.2497200
units angstrom
no_reorient  #important for SAPT in psi4, default
symmetry c1  #important for SAPT in psi4, default
}

set PROPERTIES_ORIGIN ["COM"]
properties('MP2/aug-cc-pvtz', properties = ['dipole'])
--------------------------------------------------------------------------

    Molecular point group: c1
  Charge       = 1
  Multiplicity = 1
  Basis Set: AUG-CC-PVTZ
    Blend: AUG-CC-PVTZ
  Basis Set: (AUG-CC-PVTZ AUX)
    Blend: AUG-CC-PVTZ-JKFIT

    Orbital Energies [Eh]
    ---------------------

    Doubly Occupied:

       1A    -15.791270     2A    -15.790911     3A    -15.787724
       4A    -11.598834     5A    -11.440774     6A     -1.538084
       7A     -1.403573     8A     -1.388894     9A     -1.152109
      10A     -1.041880    11A     -0.976374    12A     -0.940935
      13A     -0.873034    14A     -0.864767    15A     -0.824894
      16A     -0.808617    17A     -0.743660    18A     -0.707989
      19A     -0.624714    20A     -0.584775

  @DF-RHF Final Energy:  -243.62638878477867

   => Energetics <=

    Nuclear Repulsion Energy =            192.2299128672773634
    One-Electron Energy =                -701.9449825125850566
    Two-Electron Energy =                 266.0886808605290526
    Total Energy =                       -243.6263887847786691
  Basis Set: (AUG-CC-PVTZ AUX)
    Blend: AUG-CC-PVTZ-RI
    Molecular point group: c1

    Geometry (in Angstrom), charge = 1, multiplicity = 1:

       Center              X                  Y                   Z               Mass
    ------------   -----------------  -----------------  -----------------  -----------------
         C            2.039191172043    -0.158978176775     0.051177583732    12.000000000000
         C           -0.492365127957     0.021749423225    -0.019794716268    12.000000000000
         N            0.661459872043    -0.641807576775    -0.070915716268    14.003074004430
         N           -0.503212127957     1.358891423225    -0.007482716268    14.003074004430
         N           -1.651566127957    -0.648518576775     0.042720283732    14.003074004430
         H            0.622877872043    -1.626197576775    -0.310039716268     1.007825032230
         H            0.309804872043     1.896544423225    -0.277152716268     1.007825032230
         H           -1.339891127957     1.873386423225     0.236215283732     1.007825032230
         H           -1.679249127957    -1.631583576775     0.280306283732     1.007825032230
         H           -2.534479127957    -0.192498576775    -0.147158716268     1.007825032230
         H            1.979533872043     0.656840423225     0.926237283732     1.007825032230
         H            2.268770872043     0.515411423225    -0.840167716268     1.007825032230
         H            2.703527872043    -0.810613576775     0.253814283732     1.007825032230

  Basis Set: AUG-CC-PVTZ
    Blend: AUG-CC-PVTZ
  Basis Set: (AUG-CC-PVTZ AUX)
    Blend: AUG-CC-PVTZ-JKFIT
	 Reference Energy          =    -243.6263887847786691 [Eh]
	 Singles Energy            =      -0.0000000000000000 [Eh]
	 Same-Spin Energy          =      -0.2455844761311297 [Eh]
	 Opposite-Spin Energy      =      -0.8106827345815496 [Eh]
	 Correlation Energy        =      -1.0562672107126794 [Eh]
	 Total Energy              =    -244.6826559954913591 [Eh]

	 ================> DF-SCS-MP2 Energies <==================
	-----------------------------------------------------------
	 SCS Same-Spin Scale       =       0.3333333333333333 [-]
	 SCS Opposite-Spin Scale   =       1.2000000000000000 [-]
	 SCS Same-Spin Energy      =      -0.0818614920437099 [Eh]
	 SCS Opposite-Spin Energy  =      -0.9728192814978595 [Eh]
	 SCS Correlation Energy    =      -1.0546807735415693 [Eh]
	 SCS Total Energy          =    -244.6810695583202460 [Eh]
	-----------------------------------------------------------

  Dipole Moment: [D]
     X:    -1.2504      Y:     0.0692      Z:    -0.1605     Total:     1.2626

*** Psi4 exiting successfully. Buy a developer a beer!
