                               Psi4 1.3.2 release

  ==> Input File <==

--------------------------------------------------------------------------
#psi4
#
memory 32 gb

molecule  {
1 1
  C        1.9603260    -0.0474630     0.0649610
  C       -0.5119490    -0.0070210    -0.0238890
  N        0.6418760    -0.6705780    -0.0750100
  N       -0.5219849     1.2301285    -0.0124977
  N       -1.6711500    -0.6772890     0.0386260
  H        0.6032940    -1.6549680    -0.3141340
  H        0.2902210     1.8677740    -0.2812470
  H       -1.3594750     1.8446160     0.2321210
  H       -1.6988330    -1.6603540     0.2762120
  H       -2.5540630    -0.2212690    -0.1512530
  H        1.9599500     0.6280700     0.9221430
  H        2.2491870     0.4866410    -0.8442620
  H        2.6839440    -0.8393840     0.2497200
units angstrom
no_reorient  #important for SAPT in psi4, default
symmetry c1  #important for SAPT in psi4, default
}

set PROPERTIES_ORIGIN ["COM"]
properties('MP2/aug-cc-pvtz', properties = ['dipole'])
--------------------------------------------------------------------------

    Molecular point group: c1
  Charge       = 1
  Multiplicity = 1
  Basis Set: AUG-CC-PVTZ
    Blend: AUG-CC-PVTZ
  Basis Set: (AUG-CC-PVTZ AUX)
    Blend: AUG-CC-PVTZ-JKFIT

    Orbital Energies [Eh]
    ---------------------

    Doubly Occupied:

       1A    -15.801006     2A    -15.779063     3A    -15.776566
       4A    -11.579221     5A    -11.433033     6A     -1.557527
       7A     -1.403602     8A     -1.388467     9A     -1.139685
      10A     -1.047314    11A     -0.974573    12A     -0.942711
      13A     -0.870723    14A     -0.857471    15A     -0.804593
      16A     -0.789792    17A     -0.747689    18A     -0.724593
      19A     -0.624538    20A     -0.588584

  @DF-RHF Final Energy:  -243.63952273311676

   => Energetics <=

    Nuclear Repulsion Energy =            194.9224237038572483
    One-Electron Energy =                -707.4623931174809286
    Two-Electron Energy =                 268.9004466805068887
    Total Energy =                       -243.6395227331167916
  Basis Set: (AUG-CC-PVTZ AUX)
    Blend: AUG-CC-PVTZ-RI
    Molecular point group: c1

    Geometry (in Angstrom), charge = 1, multiplicity = 1:

       Center              X                  Y                   Z               Mass
    ------------   -----------------  -----------------  -----------------  -----------------
         C            1.989360398373    -0.022516228117     0.066333064087    12.000000000000
         C           -0.482914601627     0.017925771883    -0.022516935913    12.000000000000
         N            0.670910398373    -0.645631228117    -0.073637935913    14.003074004430
         N           -0.492950501627     1.255075271883    -0.011125635913    14.003074004430
         N           -1.642115601627    -0.652342228117     0.039998064087    14.003074004430
         H            0.632328398373    -1.630021228117    -0.312761935913     1.007825032230
         H            0.319255398373     1.892720771883    -0.279874935913     1.007825032230
         H           -1.330440601627     1.869562771883     0.233493064087     1.007825032230
         H           -1.669798601627    -1.635407228117     0.277584064087     1.007825032230
         H           -2.525028601627    -0.196322228117    -0.149880935913     1.007825032230
         H            1.988984398373     0.653016771883     0.923515064087     1.007825032230
         H            2.278221398373     0.511587771883    -0.842889935913     1.007825032230
         H            2.712978398373    -0.814437228117     0.251092064087     1.007825032230

  Basis Set: AUG-CC-PVTZ
    Blend: AUG-CC-PVTZ
  Basis Set: (AUG-CC-PVTZ AUX)
    Blend: AUG-CC-PVTZ-JKFIT
	 Reference Energy          =    -243.6395227331167632 [Eh]
	 Singles Energy            =      -0.0000000000000000 [Eh]
	 Same-Spin Energy          =      -0.2460617609304120 [Eh]
	 Opposite-Spin Energy      =      -0.8098049048035367 [Eh]
	 Correlation Energy        =      -1.0558666657339488 [Eh]
	 Total Energy              =    -244.6953893988507218 [Eh]

	 ================> DF-SCS-MP2 Energies <==================
	-----------------------------------------------------------
	 SCS Same-Spin Scale       =       0.3333333333333333 [-]
	 SCS Opposite-Spin Scale   =       1.2000000000000000 [-]
	 SCS Same-Spin Energy      =      -0.0820205869768040 [Eh]
	 SCS Opposite-Spin Energy  =      -0.9717658857642441 [Eh]
	 SCS Correlation Energy    =      -1.0537864727410480 [Eh]
	 SCS Total Energy          =    -244.6933092058578154 [Eh]
	-----------------------------------------------------------

  Dipole Moment: [D]
     X:    -1.2454      Y:     0.7150      Z:    -0.1547     Total:     1.4444

*** Psi4 exiting successfully. Buy a developer a beer!
