                               Psi4 1.3.2 release

  ==> Input File <==

--------------------------------------------------------------------------
#psi4
#
memory 32 gb

molecule  {
1 1
  C        1.9373188    -0.0021443     0.0705887
  C       -0.5119490    -0.0070210    -0.0238890
  N        0.6418760    -0.6705780    -0.0750100
  N       -0.5227960     1.3301210    -0.0115770
  N       -1.6711500    -0.6772890     0.0386260
  H        0.6032940    -1.6549680    -0.3141340
  H        0.2902210     1.8677740    -0.2812470
  H       -1.3594750     1.8446160     0.2321210
  H       -1.6988330    -1.6603540     0.2762120
  H       -2.5540630    -0.2212690    -0.1512530
  H        1.9599500     0.6280700     0.9221430
  H        2.2491870     0.4866410    -0.8442620
  H        2.6839440    -0.8393840     0.2497200
units angstrom
no_reorient  #important for SAPT in psi4, default
symmetry c1  #important for SAPT in psi4, default
}

set PROPERTIES_ORIGIN ["COM"]
properties('MP2/aug-cc-pvtz', properties = ['dipole'])
--------------------------------------------------------------------------

    Molecular point group: c1
  Charge       = 1
  Multiplicity = 1
  Basis Set: AUG-CC-PVTZ
    Blend: AUG-CC-PVTZ
  Basis Set: (AUG-CC-PVTZ AUX)
    Blend: AUG-CC-PVTZ-JKFIT

    Orbital Energies [Eh]
    ---------------------

    Doubly Occupied:

       1A    -15.790337     2A    -15.790073     3A    -15.786614
       4A    -11.594346     5A    -11.436276     6A     -1.538434
       7A     -1.402412     8A     -1.388483     9A     -1.143429
      10A     -1.043587    11A     -0.975470    12A     -0.939161
      13A     -0.873622    14A     -0.862063    15A     -0.819034
      16A     -0.796196    17A     -0.746562    18A     -0.715739
      19A     -0.624275    20A     -0.594987

  @DF-RHF Final Energy:  -243.65413586817601

   => Energetics <=

    Nuclear Repulsion Energy =            193.0492465985407193
    One-Electron Energy =                -703.6845572365526778
    Two-Electron Energy =                 266.9811747698359454
    Total Energy =                       -243.6541358681760130
  Basis Set: (AUG-CC-PVTZ AUX)
    Blend: AUG-CC-PVTZ-RI
    Molecular point group: c1

    Geometry (in Angstrom), charge = 1, multiplicity = 1:

       Center              X                  Y                   Z               Mass
    ------------   -----------------  -----------------  -----------------  -----------------
         C            1.970233814301    -0.003442687447     0.070874993172    12.000000000000
         C           -0.479033985699    -0.008319387447    -0.023602706828    12.000000000000
         N            0.674791014301    -0.671876387447    -0.074723706828    14.003074004430
         N           -0.489880985699     1.328822612553    -0.011290706828    14.003074004430
         N           -1.638234985699    -0.678587387447     0.038912293172    14.003074004430
         H            0.636209014301    -1.656266387447    -0.313847706828     1.007825032230
         H            0.323136014301     1.866475612553    -0.280960706828     1.007825032230
         H           -1.326559985699     1.843317612553     0.232407293172     1.007825032230
         H           -1.665917985699    -1.661652387447     0.276498293172     1.007825032230
         H           -2.521147985699    -0.222567387447    -0.150966706828     1.007825032230
         H            1.992865014301     0.626771612553     0.922429293172     1.007825032230
         H            2.282102014301     0.485342612553    -0.843975706828     1.007825032230
         H            2.716859014301    -0.840682387447     0.250006293172     1.007825032230

  Basis Set: AUG-CC-PVTZ
    Blend: AUG-CC-PVTZ
  Basis Set: (AUG-CC-PVTZ AUX)
    Blend: AUG-CC-PVTZ-JKFIT
	 Reference Energy          =    -243.6541358681760130 [Eh]
	 Singles Energy            =      -0.0000000000000000 [Eh]
	 Same-Spin Energy          =      -0.2454307269133681 [Eh]
	 Opposite-Spin Energy      =      -0.8095574467826616 [Eh]
	 Correlation Energy        =      -1.0549881736960298 [Eh]
	 Total Energy              =    -244.7091240418720304 [Eh]

	 ================> DF-SCS-MP2 Energies <==================
	-----------------------------------------------------------
	 SCS Same-Spin Scale       =       0.3333333333333333 [-]
	 SCS Opposite-Spin Scale   =       1.2000000000000000 [-]
	 SCS Same-Spin Energy      =      -0.0818102423044560 [Eh]
	 SCS Opposite-Spin Energy  =      -0.9714689361391939 [Eh]
	 SCS Correlation Energy    =      -1.0532791784436499 [Eh]
	 SCS Total Energy          =    -244.7074150466196727 [Eh]
	-----------------------------------------------------------

  Dipole Moment: [D]
     X:    -1.1836      Y:    -0.0027      Z:    -0.1552     Total:     1.1938

*** Psi4 exiting successfully. Buy a developer a beer!
