                               Psi4 1.3.2 release

  ==> Input File <==

--------------------------------------------------------------------------
#psi4
#
memory 32 gb

molecule  {
1 1
  C        1.9603260    -0.0474630     0.0649610
  C       -0.5119490    -0.0070210    -0.0238890
  N        0.6418760    -0.6705780    -0.0750100
  N       -0.5227960     1.3301210    -0.0115770
  N       -1.6711500    -0.6772890     0.0386260
  H        0.5956823    -1.8491753    -0.3613100
  H        0.2902210     1.8677740    -0.2812470
  H       -1.3594750     1.8446160     0.2321210
  H       -1.6988330    -1.6603540     0.2762120
  H       -2.5540630    -0.2212690    -0.1512530
  H        1.9599500     0.6280700     0.9221430
  H        2.2491870     0.4866410    -0.8442620
  H        2.6839440    -0.8393840     0.2497200
units angstrom
no_reorient  #important for SAPT in psi4, default
symmetry c1  #important for SAPT in psi4, default
}

set PROPERTIES_ORIGIN ["COM"]
properties('MP2/aug-cc-pvtz', properties = ['dipole'])
--------------------------------------------------------------------------

    Molecular point group: c1
  Charge       = 1
  Multiplicity = 1
  Basis Set: AUG-CC-PVTZ
    Blend: AUG-CC-PVTZ
  Basis Set: (AUG-CC-PVTZ AUX)
    Blend: AUG-CC-PVTZ-JKFIT

    Orbital Energies [Eh]
    ---------------------

    Doubly Occupied:

       1A    -15.801898     2A    -15.788173     3A    -15.783903
       4A    -11.592612     5A    -11.435145     6A     -1.531570
       7A     -1.388311     8A     -1.384398     9A     -1.141691
      10A     -1.026212    11A     -0.956647    12A     -0.933733
      13A     -0.868182    14A     -0.847433    15A     -0.814162
      16A     -0.781676    17A     -0.738740    18A     -0.717314
      19A     -0.622231    20A     -0.588411

  @DF-RHF Final Energy:  -243.62744232897788

   => Energetics <=

    Nuclear Repulsion Energy =            191.8376131929110215
    One-Electron Energy =                -701.4452276019894725
    Two-Electron Energy =                 265.9801720801005445
    Total Energy =                       -243.6274423289779065
  Basis Set: (AUG-CC-PVTZ AUX)
    Blend: AUG-CC-PVTZ-RI
    Molecular point group: c1

    Geometry (in Angstrom), charge = 1, multiplicity = 1:

       Center              X                  Y                   Z               Mass
    ------------   -----------------  -----------------  -----------------  -----------------
         C            1.989617299777    -0.038777140324     0.066800887375    12.000000000000
         C           -0.482657700223     0.001664859676    -0.022049112625    12.000000000000
         N            0.671167299777    -0.661892140324    -0.073170112625    14.003074004430
         N           -0.493504700223     1.338806859676    -0.009737112625    14.003074004430
         N           -1.641858700223    -0.668603140324     0.040465887375    14.003074004430
         H            0.624973599777    -1.840489440324    -0.359470112625     1.007825032230
         H            0.319512299777     1.876459859676    -0.279407112625     1.007825032230
         H           -1.330183700223     1.853301859676     0.233960887375     1.007825032230
         H           -1.669541700223    -1.651668140324     0.278051887375     1.007825032230
         H           -2.524771700223    -0.212583140324    -0.149413112625     1.007825032230
         H            1.989241299777     0.636755859676     0.923982887375     1.007825032230
         H            2.278478299777     0.495326859676    -0.842422112625     1.007825032230
         H            2.713235299777    -0.830698140324     0.251559887375     1.007825032230

  Basis Set: AUG-CC-PVTZ
    Blend: AUG-CC-PVTZ
  Basis Set: (AUG-CC-PVTZ AUX)
    Blend: AUG-CC-PVTZ-JKFIT
	 Reference Energy          =    -243.6274423289778781 [Eh]
	 Singles Energy            =      -0.0000000000000000 [Eh]
	 Same-Spin Energy          =      -0.2467385761674941 [Eh]
	 Opposite-Spin Energy      =      -0.8133199952485144 [Eh]
	 Correlation Energy        =      -1.0600585714160085 [Eh]
	 Total Energy              =    -244.6875009003938999 [Eh]

	 ================> DF-SCS-MP2 Energies <==================
	-----------------------------------------------------------
	 SCS Same-Spin Scale       =       0.3333333333333333 [-]
	 SCS Opposite-Spin Scale   =       1.2000000000000000 [-]
	 SCS Same-Spin Energy      =      -0.0822461920558313 [Eh]
	 SCS Opposite-Spin Energy  =      -0.9759839942982173 [Eh]
	 SCS Correlation Energy    =      -1.0582301863540486 [Eh]
	 SCS Total Energy          =    -244.6856725153319303 [Eh]
	-----------------------------------------------------------

  Dipole Moment: [D]
     X:    -1.0987      Y:    -0.2610      Z:    -0.2210     Total:     1.1506

*** Psi4 exiting successfully. Buy a developer a beer!
