                               Psi4 1.3.2 release

  ==> Input File <==

--------------------------------------------------------------------------
#psi4
#
memory 32 gb

molecule  {
1 1
  C        1.9603260    -0.0474630     0.0649610
  C       -0.5119490    -0.0070210    -0.0238890
  N        0.6418760    -0.6705780    -0.0750100
  N       -0.5227960     1.3301210    -0.0115770
  N       -1.6711500    -0.6772890     0.0386260
  H        0.5994881    -1.7520717    -0.3377220
  H        0.2902210     1.8677740    -0.2812470
  H       -1.3594750     1.8446160     0.2321210
  H       -1.6988330    -1.6603540     0.2762120
  H       -2.5540630    -0.2212690    -0.1512530
  H        1.9599500     0.6280700     0.9221430
  H        2.2491870     0.4866410    -0.8442620
  H        2.6839440    -0.8393840     0.2497200
units angstrom
no_reorient  #important for SAPT in psi4, default
symmetry c1  #important for SAPT in psi4, default
}

set PROPERTIES_ORIGIN ["COM"]
properties('MP2/aug-cc-pvtz', properties = ['dipole'])
--------------------------------------------------------------------------

    Molecular point group: c1
  Charge       = 1
  Multiplicity = 1
  Basis Set: AUG-CC-PVTZ
    Blend: AUG-CC-PVTZ
  Basis Set: (AUG-CC-PVTZ AUX)
    Blend: AUG-CC-PVTZ-JKFIT

    Orbital Energies [Eh]
    ---------------------

    Doubly Occupied:

       1A    -15.796838     2A    -15.789150     3A    -15.785342
       4A    -11.593918     5A    -11.435679     6A     -1.534442
       7A     -1.393848     8A     -1.386908     9A     -1.143100
      10A     -1.032591    11A     -0.965295    12A     -0.936435
      13A     -0.870164    14A     -0.855484    15A     -0.815670
      16A     -0.788104    17A     -0.740383    18A     -0.723274
      19A     -0.623263    20A     -0.590821

  @DF-RHF Final Energy:  -243.64676884164729

   => Energetics <=

    Nuclear Repulsion Energy =            192.2987405661333469
    One-Electron Energy =                -702.2896024336668006
    Two-Electron Energy =                 266.3440930258861954
    Total Energy =                       -243.6467688416472583
  Basis Set: (AUG-CC-PVTZ AUX)
    Blend: AUG-CC-PVTZ-RI
    Molecular point group: c1

    Geometry (in Angstrom), charge = 1, multiplicity = 1:

       Center              X                  Y                   Z               Mass
    ------------   -----------------  -----------------  -----------------  -----------------
         C            1.989565517866    -0.040098336912     0.066479947831    12.000000000000
         C           -0.482709482134     0.000343663088    -0.022370052169    12.000000000000
         N            0.671115517866    -0.663213336912    -0.073491052169    14.003074004430
         N           -0.493556482134     1.337485663088    -0.010058052169    14.003074004430
         N           -1.641910482134    -0.669924336912     0.040144947831    14.003074004430
         H            0.628727617866    -1.744707036912    -0.336203052169     1.007825032230
         H            0.319460517866     1.875138663088    -0.279728052169     1.007825032230
         H           -1.330235482134     1.851980663088     0.233639947831     1.007825032230
         H           -1.669593482134    -1.652989336912     0.277730947831     1.007825032230
         H           -2.524823482134    -0.213904336912    -0.149734052169     1.007825032230
         H            1.989189517866     0.635434663088     0.923661947831     1.007825032230
         H            2.278426517866     0.494005663088    -0.842743052169     1.007825032230
         H            2.713183517866    -0.832019336912     0.251238947831     1.007825032230

  Basis Set: AUG-CC-PVTZ
    Blend: AUG-CC-PVTZ
  Basis Set: (AUG-CC-PVTZ AUX)
    Blend: AUG-CC-PVTZ-JKFIT
	 Reference Energy          =    -243.6467688416472868 [Eh]
	 Singles Energy            =      -0.0000000000000000 [Eh]
	 Same-Spin Energy          =      -0.2459917094135705 [Eh]
	 Opposite-Spin Energy      =      -0.8111776081496986 [Eh]
	 Correlation Energy        =      -1.0571693175632690 [Eh]
	 Total Energy              =    -244.7039381592105656 [Eh]

	 ================> DF-SCS-MP2 Energies <==================
	-----------------------------------------------------------
	 SCS Same-Spin Scale       =       0.3333333333333333 [-]
	 SCS Opposite-Spin Scale   =       1.2000000000000000 [-]
	 SCS Same-Spin Energy      =      -0.0819972364711902 [Eh]
	 SCS Opposite-Spin Energy  =      -0.9734131297796383 [Eh]
	 SCS Correlation Energy    =      -1.0554103662508285 [Eh]
	 SCS Total Energy          =    -244.7021792078981264 [Eh]
	-----------------------------------------------------------

  Dipole Moment: [D]
     X:    -1.1443      Y:    -0.1191      Z:    -0.1864     Total:     1.1655

*** Psi4 exiting successfully. Buy a developer a beer!
