                               Psi4 1.4a3.dev225

  ==> Input File <==

--------------------------------------------------------------------------
#psi4
#
memory 32 gb

molecule  {
1 1
  C        1.9513750    -0.0476850     0.0410900
  C       -0.5109630    -0.0088300    -0.0208070
  N        0.6383630    -0.6790700    -0.0530430
  N       -0.5022500     1.3295140     0.0248160
  N       -1.6788480    -0.6625100     0.0611020
  H        0.5992730    -1.6821200    -0.1885540
  H        0.2671561     1.8233085    -0.2720814
  H       -1.3771720     1.8372740     0.0557700
  H       -1.6998490    -1.6741350     0.0517440
  H       -2.5379350    -0.1934290    -0.1962670
  H        1.9812500     0.6292430     0.8968410
  H        2.1994310     0.4949160    -0.8747400
  H        2.6844950    -0.8371890     0.1909030
units angstrom
no_reorient  #important for SAPT in psi4, default
symmetry c1  #important for SAPT in psi4, default
}

set PROPERTIES_ORIGIN ["COM"]
properties('MP2/aug-cc-pvtz', properties = ['dipole'])
--------------------------------------------------------------------------

    Molecular point group: c1
  Charge       = 1
  Multiplicity = 1
  Basis Set: AUG-CC-PVTZ
    Blend: AUG-CC-PVTZ
  Basis Set: (AUG-CC-PVTZ AUX)
    Blend: AUG-CC-PVTZ-JKFIT

    Orbital Energies [Eh]
    ---------------------

    Doubly Occupied:

       1A    -15.792532     2A    -15.789314     3A    -15.786764
       4A    -11.595970     5A    -11.436639     6A     -1.542731
       7A     -1.407132     8A     -1.395876     9A     -1.146719
      10A     -1.048274    11A     -0.982473    12A     -0.940055
      13A     -0.871708    14A     -0.863064    15A     -0.826350
      16A     -0.798576    17A     -0.746299    18A     -0.729241
      19A     -0.627953    20A     -0.595322

  @DF-RHF Final Energy:  -243.65671300447465

   => Energetics <=

    Nuclear Repulsion Energy =            193.4160475641486983
    One-Electron Energy =                -704.2995412007745699
    Two-Electron Energy =                 267.2267806321511898
    Total Energy =                       -243.6567130044746818
  Basis Set: (AUG-CC-PVTZ AUX)
    Blend: AUG-CC-PVTZ-RI
    Molecular point group: c1

    Geometry (in Angstrom), charge = 1, multiplicity = 1:

       Center              X                  Y                   Z               Mass
    ------------   -----------------  -----------------  -----------------  -----------------
         C            1.980871728443    -0.041661666924     0.036165989385    12.000000000000
         C           -0.481466271557    -0.002806666924    -0.025731010615    12.000000000000
         N            0.667859728443    -0.673046666924    -0.057967010615    14.003074004430
         N           -0.472753271557     1.335537333076     0.019891989385    14.003074004430
         N           -1.649351271557    -0.656486666924     0.056177989385    14.003074004430
         H            0.628769728443    -1.676096666924    -0.193478010615     1.007825032230
         H            0.296652828443     1.829331833076    -0.277005410615     1.007825032230
         H           -1.347675271557     1.843297333076     0.050845989385     1.007825032230
         H           -1.670352271557    -1.668111666924     0.046819989385     1.007825032230
         H           -2.508438271557    -0.187405666924    -0.201191010615     1.007825032230
         H            2.010746728443     0.635266333076     0.891916989385     1.007825032230
         H            2.228927728443     0.500939333076    -0.879664010615     1.007825032230
         H            2.713991728443    -0.831165666924     0.185978989385     1.007825032230

  Basis Set: AUG-CC-PVTZ
    Blend: AUG-CC-PVTZ
  Basis Set: (AUG-CC-PVTZ AUX)
    Blend: AUG-CC-PVTZ-JKFIT
	 Reference Energy          =    -243.6567130044746534 [Eh]
	 Singles Energy            =      -0.0000000000000000 [Eh]
	 Same-Spin Energy          =      -0.2448780318665828 [Eh]
	 Opposite-Spin Energy      =      -0.8084070030805489 [Eh]
	 Correlation Energy        =      -1.0532850349471317 [Eh]
	 Total Energy              =    -244.7099980394217766 [Eh]

	 ================> DF-SCS-MP2 Energies <==================
	-----------------------------------------------------------
	 SCS Same-Spin Scale       =       0.3333333333333333 [-]
	 SCS Opposite-Spin Scale   =       1.2000000000000000 [-]
	 SCS Same-Spin Energy      =      -0.0816260106221943 [Eh]
	 SCS Opposite-Spin Energy  =      -0.9700884036966586 [Eh]
	 SCS Correlation Energy    =      -1.0517144143188528 [Eh]
	 SCS Total Energy          =    -244.7084274187935193 [Eh]
	-----------------------------------------------------------

  Dipole Moment: [D]
     X:    -1.2200      Y:    -0.1676      Z:    -0.8780     Total:     1.5124

*** Psi4 exiting successfully. Buy a developer a beer!
