                               Psi4 1.3.2 release

  ==> Input File <==

--------------------------------------------------------------------------
#psi4
#
memory 32 gb

molecule  {
1 1
  C        1.9603260    -0.0474630     0.0649610
  C       -0.5119490    -0.0070210    -0.0238890
  N        0.7049073    -0.5462234    -0.0763749
  N       -0.5227960     1.3301210    -0.0115770
  N       -1.6711500    -0.6772890     0.0386260
  H        0.6032940    -1.6549680    -0.3141340
  H        0.2902210     1.8677740    -0.2812470
  H       -1.3594750     1.8446160     0.2321210
  H       -1.6988330    -1.6603540     0.2762120
  H       -2.5540630    -0.2212690    -0.1512530
  H        1.9599500     0.6280700     0.9221430
  H        2.2491870     0.4866410    -0.8442620
  H        2.6839440    -0.8393840     0.2497200
units angstrom
no_reorient  #important for SAPT in psi4, default
symmetry c1  #important for SAPT in psi4, default
}

set PROPERTIES_ORIGIN ["COM"]
properties('MP2/aug-cc-pvtz', properties = ['dipole'])
--------------------------------------------------------------------------

    Molecular point group: c1
  Charge       = 1
  Multiplicity = 1
  Basis Set: AUG-CC-PVTZ
    Blend: AUG-CC-PVTZ
  Basis Set: (AUG-CC-PVTZ AUX)
    Blend: AUG-CC-PVTZ-JKFIT

    Orbital Energies [Eh]
    ---------------------

    Doubly Occupied:

       1A    -15.798084     2A    -15.793754     3A    -15.785038
       4A    -11.597681     5A    -11.427775     6A     -1.542907
       7A     -1.417457     8A     -1.386097     9A     -1.163586
      10A     -1.027961    11A     -0.969392    12A     -0.938706
      13A     -0.873843    14A     -0.850884    15A     -0.834462
      16A     -0.815551    17A     -0.743133    18A     -0.705895
      19A     -0.624911    20A     -0.583100

  @DF-RHF Final Energy:  -243.62767915472728

   => Energetics <=

    Nuclear Repulsion Energy =            193.9162348951634272
    One-Electron Energy =                -705.3273940080630382
    Two-Electron Energy =                 267.7834799581723360
    Total Energy =                       -243.6276791547272751
  Basis Set: (AUG-CC-PVTZ AUX)
    Blend: AUG-CC-PVTZ-RI
    Molecular point group: c1

    Geometry (in Angstrom), charge = 1, multiplicity = 1:

       Center              X                  Y                   Z               Mass
    ------------   -----------------  -----------------  -----------------  -----------------
         C            1.977597840919    -0.064928429513     0.066417038873    12.000000000000
         C           -0.494677159081    -0.024486429513    -0.022432961127    12.000000000000
         N            0.722179140919    -0.563688829513    -0.074918861127    14.003074004430
         N           -0.505524159081     1.312655570487    -0.010120961127    14.003074004430
         N           -1.653878159081    -0.694754429513     0.040082038873    14.003074004430
         H            0.620565840919    -1.672433429513    -0.312677961127     1.007825032230
         H            0.307492840919     1.850308570487    -0.279790961127     1.007825032230
         H           -1.342203159081     1.827150570487     0.233577038873     1.007825032230
         H           -1.681561159081    -1.677819429513     0.277668038873     1.007825032230
         H           -2.536791159081    -0.238734429513    -0.149796961127     1.007825032230
         H            1.977221840919     0.610604570487     0.923599038873     1.007825032230
         H            2.266458840919     0.469175570487    -0.842805961127     1.007825032230
         H            2.701215840919    -0.856849429513     0.251176038873     1.007825032230

  Basis Set: AUG-CC-PVTZ
    Blend: AUG-CC-PVTZ
  Basis Set: (AUG-CC-PVTZ AUX)
    Blend: AUG-CC-PVTZ-JKFIT
	 Reference Energy          =    -243.6276791547272751 [Eh]
	 Singles Energy            =      -0.0000000000000000 [Eh]
	 Same-Spin Energy          =      -0.2474766116338541 [Eh]
	 Opposite-Spin Energy      =      -0.8127724903168621 [Eh]
	 Correlation Energy        =      -1.0602491019507161 [Eh]
	 Total Energy              =    -244.6879282566779921 [Eh]

	 ================> DF-SCS-MP2 Energies <==================
	-----------------------------------------------------------
	 SCS Same-Spin Scale       =       0.3333333333333333 [-]
	 SCS Opposite-Spin Scale   =       1.2000000000000000 [-]
	 SCS Same-Spin Energy      =      -0.0824922038779514 [Eh]
	 SCS Opposite-Spin Energy  =      -0.9753269883802345 [Eh]
	 SCS Correlation Energy    =      -1.0578191922581859 [Eh]
	 SCS Total Energy          =    -244.6854983469854687 [Eh]
	-----------------------------------------------------------

  Dipole Moment: [D]
     X:    -1.3681      Y:    -0.3359      Z:    -0.1141     Total:     1.4133

*** Psi4 exiting successfully. Buy a developer a beer!
