                               Psi4 1.4a3.dev225

  ==> Input File <==

--------------------------------------------------------------------------
#psi4
#
memory 32 gb

molecule  {
1 1
  C        1.9513750    -0.0476850     0.0410900
  C       -0.5109630    -0.0088300    -0.0208070
  N        0.6383630    -0.6790700    -0.0530430
  N       -0.5022500     1.3295140     0.0248160
  N       -1.6788480    -0.6625100     0.0611020
  H        0.5992730    -1.6821200    -0.1885540
  H        0.2911692     1.8387198    -0.2813476
  H       -1.3771720     1.8372740     0.0557700
  H       -1.6998490    -1.6741350     0.0517440
  H       -2.5379350    -0.1934290    -0.1962670
  H        1.9812500     0.6292430     0.8968410
  H        2.1994310     0.4949160    -0.8747400
  H        2.6844950    -0.8371890     0.1909030
units angstrom
no_reorient  #important for SAPT in psi4, default
symmetry c1  #important for SAPT in psi4, default
}

set PROPERTIES_ORIGIN ["COM"]
properties('MP2/aug-cc-pvtz', properties = ['dipole'])
--------------------------------------------------------------------------

    Molecular point group: c1
  Charge       = 1
  Multiplicity = 1
  Basis Set: AUG-CC-PVTZ
    Blend: AUG-CC-PVTZ
  Basis Set: (AUG-CC-PVTZ AUX)
    Blend: AUG-CC-PVTZ-JKFIT

    Orbital Energies [Eh]
    ---------------------

    Doubly Occupied:

       1A    -15.792162     2A    -15.789070     3A    -15.788982
       4A    -11.595557     5A    -11.436628     6A     -1.541483
       7A     -1.406018     8A     -1.392738     9A     -1.146340
      10A     -1.045249    11A     -0.979848    12A     -0.938872
      13A     -0.867118    14A     -0.862615    15A     -0.825411
      16A     -0.798313    17A     -0.746066    18A     -0.729093
      19A     -0.627075    20A     -0.595043

  @DF-RHF Final Energy:  -243.65766217787845

   => Energetics <=

    Nuclear Repulsion Energy =            193.2588863584156798
    One-Electron Energy =                -704.0257343765028963
    Two-Electron Energy =                 267.1091858402087951
    Total Energy =                       -243.6576621778784215
  Basis Set: (AUG-CC-PVTZ AUX)
    Blend: AUG-CC-PVTZ-RI
    Molecular point group: c1

    Geometry (in Angstrom), charge = 1, multiplicity = 1:

       Center              X                  Y                   Z               Mass
    ------------   -----------------  -----------------  -----------------  -----------------
         C            1.980545004966    -0.041871353866     0.036292065780    12.000000000000
         C           -0.481792995034    -0.003016353866    -0.025604934220    12.000000000000
         N            0.667533004966    -0.673256353866    -0.057840934220    14.003074004430
         N           -0.473079995034     1.335327646134     0.020018065780    14.003074004430
         N           -1.649677995034    -0.656696353866     0.056304065780    14.003074004430
         H            0.628443004966    -1.676306353866    -0.193351934220     1.007825032230
         H            0.320339204966     1.844533446134    -0.286145534220     1.007825032230
         H           -1.348001995034     1.843087646134     0.050972065780     1.007825032230
         H           -1.670678995034    -1.668321353866     0.046946065780     1.007825032230
         H           -2.508764995034    -0.187615353866    -0.201064934220     1.007825032230
         H            2.010420004966     0.635056646134     0.892043065780     1.007825032230
         H            2.228601004966     0.500729646134    -0.879537934220     1.007825032230
         H            2.713665004966    -0.831375353866     0.186105065780     1.007825032230

  Basis Set: AUG-CC-PVTZ
    Blend: AUG-CC-PVTZ
  Basis Set: (AUG-CC-PVTZ AUX)
    Blend: AUG-CC-PVTZ-JKFIT
	 Reference Energy          =    -243.6576621778784499 [Eh]
	 Singles Energy            =      -0.0000000000000000 [Eh]
	 Same-Spin Energy          =      -0.2450700680819493 [Eh]
	 Opposite-Spin Energy      =      -0.8088562348643649 [Eh]
	 Correlation Energy        =      -1.0539263029463142 [Eh]
	 Total Energy              =    -244.7115884808247586 [Eh]

	 ================> DF-SCS-MP2 Energies <==================
	-----------------------------------------------------------
	 SCS Same-Spin Scale       =       0.3333333333333333 [-]
	 SCS Opposite-Spin Scale   =       1.2000000000000000 [-]
	 SCS Same-Spin Energy      =      -0.0816900226939831 [Eh]
	 SCS Opposite-Spin Energy  =      -0.9706274818372378 [Eh]
	 SCS Correlation Energy    =      -1.0523175045312210 [Eh]
	 SCS Total Energy          =    -244.7099796824096813 [Eh]
	-----------------------------------------------------------

  Dipole Moment: [D]
     X:    -1.1925      Y:    -0.1369      Z:    -0.8882     Total:     1.4933

*** Psi4 exiting successfully. Buy a developer a beer!
