                               Psi4 1.3.2 release

  ==> Input File <==

--------------------------------------------------------------------------
#psi4
#
memory 32 gb

molecule  {
1 1
  C        1.9603260    -0.0474630     0.0649610
  C       -0.5119490    -0.0070210    -0.0238890
  N        0.6418760    -0.6705780    -0.0750100
  N       -0.5236071     1.4301135    -0.0106563
  N       -1.6711500    -0.6772890     0.0386260
  H        0.6032940    -1.6549680    -0.3141340
  H        0.2902210     1.8677740    -0.2812470
  H       -1.3594750     1.8446160     0.2321210
  H       -1.6988330    -1.6603540     0.2762120
  H       -2.5540630    -0.2212690    -0.1512530
  H        1.9599500     0.6280700     0.9221430
  H        2.2491870     0.4866410    -0.8442620
  H        2.6839440    -0.8393840     0.2497200
units angstrom
no_reorient  #important for SAPT in psi4, default
symmetry c1  #important for SAPT in psi4, default
}

set PROPERTIES_ORIGIN ["COM"]
properties('MP2/aug-cc-pvtz', properties = ['dipole'])
--------------------------------------------------------------------------

    Molecular point group: c1
  Charge       = 1
  Multiplicity = 1
  Basis Set: AUG-CC-PVTZ
    Blend: AUG-CC-PVTZ
  Basis Set: (AUG-CC-PVTZ AUX)
    Blend: AUG-CC-PVTZ-JKFIT

    Orbital Energies [Eh]
    ---------------------

    Doubly Occupied:

       1A    -15.799231     2A    -15.795378     3A    -15.779999
       4A    -11.606784     5A    -11.438949     6A     -1.528352
       7A     -1.405201     8A     -1.383477     9A     -1.148610
      10A     -1.039154    11A     -0.979868    12A     -0.935011
      13A     -0.896836    14A     -0.846661    15A     -0.820636
      16A     -0.796282    17A     -0.738040    18A     -0.729580
      19A     -0.622373    20A     -0.597314

  @DF-RHF Final Energy:  -243.64352389272625

   => Energetics <=

    Nuclear Repulsion Energy =            190.9433278351619663
    One-Electron Energy =                -699.3982337742198752
    Two-Electron Energy =                 264.8113820463316301
    Total Energy =                       -243.6435238927262503
  Basis Set: (AUG-CC-PVTZ AUX)
    Blend: AUG-CC-PVTZ-RI
    Molecular point group: c1

    Geometry (in Angstrom), charge = 1, multiplicity = 1:

       Center              X                  Y                   Z               Mass
    ------------   -----------------  -----------------  -----------------  -----------------
         C            1.989667070815    -0.060322841602     0.065984952488    12.000000000000
         C           -0.482607929185    -0.019880841602    -0.022865047512    12.000000000000
         N            0.671217070815    -0.683437841602    -0.073986047512    14.003074004430
         N           -0.494266029185     1.417253658398    -0.009632347512    14.003074004430
         N           -1.641808929185    -0.690148841602     0.039649952488    14.003074004430
         H            0.632635070815    -1.667827841602    -0.313110047512     1.007825032230
         H            0.319562070815     1.854914158398    -0.280223047512     1.007825032230
         H           -1.330133929185     1.831756158398     0.233144952488     1.007825032230
         H           -1.669491929185    -1.673213841602     0.277235952488     1.007825032230
         H           -2.524721929185    -0.234128841602    -0.150229047512     1.007825032230
         H            1.989291070815     0.615210158398     0.923166952488     1.007825032230
         H            2.278528070815     0.473781158398    -0.843238047512     1.007825032230
         H            2.713285070815    -0.852243841602     0.250743952488     1.007825032230

  Basis Set: AUG-CC-PVTZ
    Blend: AUG-CC-PVTZ
  Basis Set: (AUG-CC-PVTZ AUX)
    Blend: AUG-CC-PVTZ-JKFIT
	 Reference Energy          =    -243.6435238927262503 [Eh]
	 Singles Energy            =      -0.0000000000000000 [Eh]
	 Same-Spin Energy          =      -0.2448807387728873 [Eh]
	 Opposite-Spin Energy      =      -0.8098026674699377 [Eh]
	 Correlation Energy        =      -1.0546834062428250 [Eh]
	 Total Energy              =    -244.6982072989690664 [Eh]

	 ================> DF-SCS-MP2 Energies <==================
	-----------------------------------------------------------
	 SCS Same-Spin Scale       =       0.3333333333333333 [-]
	 SCS Opposite-Spin Scale   =       1.2000000000000000 [-]
	 SCS Same-Spin Energy      =      -0.0816269129242958 [Eh]
	 SCS Opposite-Spin Energy  =      -0.9717632009639252 [Eh]
	 SCS Correlation Energy    =      -1.0533901138882209 [Eh]
	 SCS Total Energy          =    -244.6969140066144632 [Eh]
	-----------------------------------------------------------

  Dipole Moment: [D]
     X:    -1.1410      Y:    -0.6161      Z:    -0.1525     Total:     1.3057

*** Psi4 exiting successfully. Buy a developer a beer!
