                               Psi4 1.4a3.dev225

  ==> Input File <==

--------------------------------------------------------------------------
#psi4
#
memory 32 gb

molecule  {
1 1
  C        1.9513750    -0.0476850     0.0410900
  C       -0.5109630    -0.0088300    -0.0208070
  N        0.6383630    -0.6790700    -0.0530430
  N       -0.5021199     1.3495020     0.0254974
  N       -1.6788480    -0.6625100     0.0611020
  H        0.5992730    -1.6821200    -0.1885540
  H        0.3071780     1.8489940    -0.2875250
  H       -1.3771720     1.8372740     0.0557700
  H       -1.6998490    -1.6741350     0.0517440
  H       -2.5379350    -0.1934290    -0.1962670
  H        1.9812500     0.6292430     0.8968410
  H        2.1994310     0.4949160    -0.8747400
  H        2.6844950    -0.8371890     0.1909030
units angstrom
no_reorient  #important for SAPT in psi4, default
symmetry c1  #important for SAPT in psi4, default
}

set PROPERTIES_ORIGIN ["COM"]
properties('MP2/aug-cc-pvtz', properties = ['dipole'])
--------------------------------------------------------------------------

    Molecular point group: c1
  Charge       = 1
  Multiplicity = 1
  Basis Set: AUG-CC-PVTZ
    Blend: AUG-CC-PVTZ
  Basis Set: (AUG-CC-PVTZ AUX)
    Blend: AUG-CC-PVTZ-JKFIT

    Orbital Energies [Eh]
    ---------------------

    Doubly Occupied:

       1A    -15.793909     2A    -15.790597     3A    -15.788490
       4A    -11.597896     5A    -11.437200     6A     -1.538178
       7A     -1.405932     8A     -1.389667     9A     -1.146963
      10A     -1.042671    11A     -0.978635    12A     -0.937296
      13A     -0.868918    14A     -0.859808    15A     -0.824735
      16A     -0.798944    17A     -0.745021    18A     -0.729464
      19A     -0.626306    20A     -0.595725

  @DF-RHF Final Energy:  -243.65673669913744

   => Energetics <=

    Nuclear Repulsion Energy =            192.7646744470638396
    One-Electron Energy =                -703.0501107615849605
    Two-Electron Energy =                 266.6286996153836526
    Total Energy =                       -243.6567366991374683
  Basis Set: (AUG-CC-PVTZ AUX)
    Blend: AUG-CC-PVTZ-RI
    Molecular point group: c1

    Geometry (in Angstrom), charge = 1, multiplicity = 1:

       Center              X                  Y                   Z               Mass
    ------------   -----------------  -----------------  -----------------  -----------------
         C            1.980302593362    -0.045789821513     0.036247299009    12.000000000000
         C           -0.482035406638    -0.006934821513    -0.025649700991    12.000000000000
         N            0.667290593362    -0.677174821513    -0.057885700991    14.003074004430
         N           -0.473192306638     1.351397178487     0.020654699009    14.003074004430
         N           -1.649920406638    -0.660614821513     0.056259299009    14.003074004430
         H            0.628200593362    -1.680224821513    -0.193396700991     1.007825032230
         H            0.336105593362     1.850889178487    -0.292367700991     1.007825032230
         H           -1.348244406638     1.839169178487     0.050927299009     1.007825032230
         H           -1.670921406638    -1.672239821513     0.046901299009     1.007825032230
         H           -2.509007406638    -0.191533821513    -0.201109700991     1.007825032230
         H            2.010177593362     0.631138178487     0.891998299009     1.007825032230
         H            2.228358593362     0.496811178487    -0.879582700991     1.007825032230
         H            2.713422593362    -0.835293821513     0.186060299009     1.007825032230

  Basis Set: AUG-CC-PVTZ
    Blend: AUG-CC-PVTZ
  Basis Set: (AUG-CC-PVTZ AUX)
    Blend: AUG-CC-PVTZ-JKFIT
	 Reference Energy          =    -243.6567366991374399 [Eh]
	 Singles Energy            =      -0.0000000000000000 [Eh]
	 Same-Spin Energy          =      -0.2450907947519914 [Eh]
	 Opposite-Spin Energy      =      -0.8091967902269045 [Eh]
	 Correlation Energy        =      -1.0542875849788960 [Eh]
	 Total Energy              =    -244.7110242841163483 [Eh]

	 ================> DF-SCS-MP2 Energies <==================
	-----------------------------------------------------------
	 SCS Same-Spin Scale       =       0.3333333333333333 [-]
	 SCS Opposite-Spin Scale   =       1.2000000000000000 [-]
	 SCS Same-Spin Energy      =      -0.0816969315839971 [Eh]
	 SCS Opposite-Spin Energy  =      -0.9710361482722853 [Eh]
	 SCS Correlation Energy    =      -1.0527330798562824 [Eh]
	 SCS Total Energy          =    -244.7094697789937356 [Eh]
	-----------------------------------------------------------

  Dipole Moment: [D]
     X:    -1.1653      Y:    -0.2482      Z:    -0.8984     Total:     1.4922

*** Psi4 exiting successfully. Buy a developer a beer!
