                               Psi4 1.4a3.dev225

  ==> Input File <==

--------------------------------------------------------------------------
#psi4
#
memory 32 gb

molecule  {
1 1
  C        1.9513750    -0.0476850     0.0410900
  C       -0.5109630    -0.0088300    -0.0208070
  N        0.6383630    -0.6790700    -0.0530430
  N       -0.5023801     1.3095260     0.0241346
  N       -1.6788480    -0.6625100     0.0611020
  H        0.5992730    -1.6821200    -0.1885540
  H        0.3071780     1.8489940    -0.2875250
  H       -1.3771720     1.8372740     0.0557700
  H       -1.6998490    -1.6741350     0.0517440
  H       -2.5379350    -0.1934290    -0.1962670
  H        1.9812500     0.6292430     0.8968410
  H        2.1994310     0.4949160    -0.8747400
  H        2.6844950    -0.8371890     0.1909030
units angstrom
no_reorient  #important for SAPT in psi4, default
symmetry c1  #important for SAPT in psi4, default
}

set PROPERTIES_ORIGIN ["COM"]
properties('MP2/aug-cc-pvtz', properties = ['dipole'])
--------------------------------------------------------------------------

    Molecular point group: c1
  Charge       = 1
  Multiplicity = 1
  Basis Set: AUG-CC-PVTZ
    Blend: AUG-CC-PVTZ
  Basis Set: (AUG-CC-PVTZ AUX)
    Blend: AUG-CC-PVTZ-JKFIT

    Orbital Energies [Eh]
    ---------------------

    Doubly Occupied:

       1A    -15.792575     2A    -15.789846     3A    -15.786864
       4A    -11.592482     5A    -11.436022     6A     -1.543626
       7A     -1.405163     8A     -1.391379     9A     -1.145207
      10A     -1.044261    11A     -0.977803    12A     -0.938895
      13A     -0.864889    14A     -0.858863    15A     -0.824352
      16A     -0.797227    17A     -0.746865    18A     -0.728476
      19A     -0.626630    20A     -0.593951

  @DF-RHF Final Energy:  -243.65669042597685

   => Energetics <=

    Nuclear Repulsion Energy =            193.5603277250168048
    One-Electron Energy =                -704.6632830410229644
    Two-Electron Energy =                 267.4462648900293402
    Total Energy =                       -243.6566904259768194
  Basis Set: (AUG-CC-PVTZ AUX)
    Blend: AUG-CC-PVTZ-RI
    Molecular point group: c1

    Geometry (in Angstrom), charge = 1, multiplicity = 1:

       Center              X                  Y                   Z               Mass
    ------------   -----------------  -----------------  -----------------  -----------------
         C            1.980351783455    -0.038232468808     0.036504932596    12.000000000000
         C           -0.481986216545     0.000622531192    -0.025392067404    12.000000000000
         N            0.667339783455    -0.669617468808    -0.057628067404    14.003074004430
         N           -0.473403316545     1.318978531192     0.019549532596    14.003074004430
         N           -1.649871216545    -0.653057468808     0.056516932596    14.003074004430
         H            0.628249783455    -1.672667468808    -0.193139067404     1.007825032230
         H            0.336154783455     1.858446531192    -0.292110067404     1.007825032230
         H           -1.348195216545     1.846726531192     0.051184932596     1.007825032230
         H           -1.670872216545    -1.664682468808     0.047158932596     1.007825032230
         H           -2.508958216545    -0.183976468808    -0.200852067404     1.007825032230
         H            2.010226783455     0.638695531192     0.892255932596     1.007825032230
         H            2.228407783455     0.504368531192    -0.879325067404     1.007825032230
         H            2.713471783455    -0.827736468808     0.186317932596     1.007825032230

  Basis Set: AUG-CC-PVTZ
    Blend: AUG-CC-PVTZ
  Basis Set: (AUG-CC-PVTZ AUX)
    Blend: AUG-CC-PVTZ-JKFIT
	 Reference Energy          =    -243.6566904259768478 [Eh]
	 Singles Energy            =      -0.0000000000000000 [Eh]
	 Same-Spin Energy          =      -0.2453288907611236 [Eh]
	 Opposite-Spin Energy      =      -0.8091860779106886 [Eh]
	 Correlation Energy        =      -1.0545149686718123 [Eh]
	 Total Energy              =    -244.7112053946486583 [Eh]

	 ================> DF-SCS-MP2 Energies <==================
	-----------------------------------------------------------
	 SCS Same-Spin Scale       =       0.3333333333333333 [-]
	 SCS Opposite-Spin Scale   =       1.2000000000000000 [-]
	 SCS Same-Spin Energy      =      -0.0817762969203745 [Eh]
	 SCS Opposite-Spin Energy  =      -0.9710232934928263 [Eh]
	 SCS Correlation Energy    =      -1.0527995904132008 [Eh]
	 SCS Total Energy          =    -244.7094900163900490 [Eh]
	-----------------------------------------------------------

  Dipole Moment: [D]
     X:    -1.1824      Y:     0.0186      Z:    -0.8925     Total:     1.4815

*** Psi4 exiting successfully. Buy a developer a beer!
