                               Psi4 1.3.2 release

  ==> Input File <==

--------------------------------------------------------------------------
#psi4
#
memory 32 gb

molecule  {
1 1
  C        1.9603260    -0.0474630     0.0649610
  C       -0.5119490    -0.0070210    -0.0238890
  N        0.6418760    -0.6705780    -0.0750100
  N       -0.5227960     1.3301210    -0.0115770
  N       -1.6711500    -0.6772890     0.0386260
  H        0.6070999    -1.5578643    -0.2905460
  H        0.2902210     1.8677740    -0.2812470
  H       -1.3594750     1.8446160     0.2321210
  H       -1.6988330    -1.6603540     0.2762120
  H       -2.5540630    -0.2212690    -0.1512530
  H        1.9599500     0.6280700     0.9221430
  H        2.2491870     0.4866410    -0.8442620
  H        2.6839440    -0.8393840     0.2497200
units angstrom
no_reorient  #important for SAPT in psi4, default
symmetry c1  #important for SAPT in psi4, default
}

set PROPERTIES_ORIGIN ["COM"]
properties('MP2/aug-cc-pvtz', properties = ['dipole'])
--------------------------------------------------------------------------

    Molecular point group: c1
  Charge       = 1
  Multiplicity = 1
  Basis Set: AUG-CC-PVTZ
    Blend: AUG-CC-PVTZ
  Basis Set: (AUG-CC-PVTZ AUX)
    Blend: AUG-CC-PVTZ-JKFIT

    Orbital Energies [Eh]
    ---------------------

    Doubly Occupied:

       1A    -15.791165     2A    -15.788166     3A    -15.781416
       4A    -11.596585     5A    -11.436685     6A     -1.542982
       7A     -1.413803     8A     -1.389707     9A     -1.146229
      10A     -1.058287    11A     -0.985627    12A     -0.940872
      13A     -0.877541    14A     -0.866875    15A     -0.818728
      16A     -0.798561    17A     -0.743732    18A     -0.730336
      19A     -0.625246    20A     -0.596127

  @DF-RHF Final Energy:  -243.65075180475401

   => Energetics <=

    Nuclear Repulsion Energy =            193.4221234985001274
    One-Electron Energy =                -704.2884153309265685
    Two-Electron Energy =                 267.2155400276724322
    Total Energy =                       -243.6507518047540088
  Basis Set: (AUG-CC-PVTZ AUX)
    Blend: AUG-CC-PVTZ-RI
    Molecular point group: c1

    Geometry (in Angstrom), charge = 1, multiplicity = 1:

       Center              X                  Y                   Z               Mass
    ------------   -----------------  -----------------  -----------------  -----------------
         C            1.989461951323    -0.042740732807     0.065838068743    12.000000000000
         C           -0.482813048677    -0.002298732807    -0.023011931257    12.000000000000
         N            0.671011951323    -0.665855732807    -0.074132931257    14.003074004430
         N           -0.493660048677     1.334843267193    -0.010699931257    14.003074004430
         N           -1.642014048677    -0.672566732807     0.039503068743    14.003074004430
         H            0.636235851323    -1.553142032807    -0.289668931257     1.007825032230
         H            0.319356951323     1.872496267193    -0.280369931257     1.007825032230
         H           -1.330339048677     1.849338267193     0.232998068743     1.007825032230
         H           -1.669697048677    -1.655631732807     0.277089068743     1.007825032230
         H           -2.524927048677    -0.216546732807    -0.150375931257     1.007825032230
         H            1.989085951323     0.632792267193     0.923020068743     1.007825032230
         H            2.278322951323     0.491363267193    -0.843384931257     1.007825032230
         H            2.713079951323    -0.834661732807     0.250597068743     1.007825032230

  Basis Set: AUG-CC-PVTZ
    Blend: AUG-CC-PVTZ
  Basis Set: (AUG-CC-PVTZ AUX)
    Blend: AUG-CC-PVTZ-JKFIT
	 Reference Energy          =    -243.6507518047540088 [Eh]
	 Singles Energy            =      -0.0000000000000000 [Eh]
	 Same-Spin Energy          =      -0.2446308220655617 [Eh]
	 Opposite-Spin Energy      =      -0.8078170874984101 [Eh]
	 Correlation Energy        =      -1.0524479095639718 [Eh]
	 Total Energy              =    -244.7031997143179751 [Eh]

	 ================> DF-SCS-MP2 Energies <==================
	-----------------------------------------------------------
	 SCS Same-Spin Scale       =       0.3333333333333333 [-]
	 SCS Opposite-Spin Scale   =       1.2000000000000000 [-]
	 SCS Same-Spin Energy      =      -0.0815436073551872 [Eh]
	 SCS Opposite-Spin Energy  =      -0.9693805049980920 [Eh]
	 SCS Correlation Energy    =      -1.0509241123532793 [Eh]
	 SCS Total Energy          =    -244.7016759171072806 [Eh]
	-----------------------------------------------------------

  Dipole Moment: [D]
     X:    -1.2376      Y:     0.1477      Z:    -0.1214     Total:     1.2523

*** Psi4 exiting successfully. Buy a developer a beer!
