                               Psi4 1.3.2 release

  ==> Input File <==

--------------------------------------------------------------------------
#psi4
#
memory 32 gb

molecule  {
1 1
  C        1.9603260    -0.0474630     0.0649610
  C       -0.5119490    -0.0070210    -0.0238890
  N        0.6643281    -0.6298685    -0.0755281
  N       -0.5227960     1.3301210    -0.0115770
  N       -1.6711500    -0.6772890     0.0386260
  H        0.6032940    -1.6549680    -0.3141340
  H        0.2902210     1.8677740    -0.2812470
  H       -1.3594750     1.8446160     0.2321210
  H       -1.6988330    -1.6603540     0.2762120
  H       -2.5540630    -0.2212690    -0.1512530
  H        1.9599500     0.6280700     0.9221430
  H        2.2491870     0.4866410    -0.8442620
  H        2.6839440    -0.8393840     0.2497200
units angstrom
no_reorient  #important for SAPT in psi4, default
symmetry c1  #important for SAPT in psi4, default
}

set PROPERTIES_ORIGIN ["COM"]
properties('MP2/aug-cc-pvtz', properties = ['dipole'])
--------------------------------------------------------------------------

    Molecular point group: c1
  Charge       = 1
  Multiplicity = 1
  Basis Set: AUG-CC-PVTZ
    Blend: AUG-CC-PVTZ
  Basis Set: (AUG-CC-PVTZ AUX)
    Blend: AUG-CC-PVTZ-JKFIT

    Orbital Energies [Eh]
    ---------------------

    Doubly Occupied:

       1A    -15.792803     2A    -15.789088     3A    -15.788362
       4A    -11.595611     5A    -11.433111     6A     -1.539272
       7A     -1.406265     8A     -1.387943     9A     -1.150580
      10A     -1.036610    11A     -0.973224    12A     -0.938717
      13A     -0.872778    14A     -0.858131    15A     -0.822003
      16A     -0.802997    17A     -0.742019    18A     -0.722182
      19A     -0.624311    20A     -0.590348

  @DF-RHF Final Energy:  -243.65312992132485

   => Energetics <=

    Nuclear Repulsion Energy =            193.1639250518275333
    One-Electron Energy =                -703.9013998103088170
    Two-Electron Energy =                 267.0843448371564364
    Total Energy =                       -243.6531299213248758
  Basis Set: (AUG-CC-PVTZ AUX)
    Blend: AUG-CC-PVTZ-RI
    Molecular point group: c1

    Geometry (in Angstrom), charge = 1, multiplicity = 1:

       Center              X                  Y                   Z               Mass
    ------------   -----------------  -----------------  -----------------  -----------------
         C            1.985269226923    -0.049115553719     0.066256953666    12.000000000000
         C           -0.487005773077    -0.008673553719    -0.022593046334    12.000000000000
         N            0.689271326923    -0.631521053719    -0.074232146334    14.003074004430
         N           -0.497852773077     1.328468446281    -0.010281046334    14.003074004430
         N           -1.646206773077    -0.678941553719     0.039921953666    14.003074004430
         H            0.628237226923    -1.656620553719    -0.312838046334     1.007825032230
         H            0.315164226923     1.866121446281    -0.279951046334     1.007825032230
         H           -1.334531773077     1.842963446281     0.233416953666     1.007825032230
         H           -1.673889773077    -1.662006553719     0.277507953666     1.007825032230
         H           -2.529119773077    -0.222921553719    -0.149957046334     1.007825032230
         H            1.984893226923     0.626417446281     0.923438953666     1.007825032230
         H            2.274130226923     0.484988446281    -0.842966046334     1.007825032230
         H            2.708887226923    -0.841036553719     0.251015953666     1.007825032230

  Basis Set: AUG-CC-PVTZ
    Blend: AUG-CC-PVTZ
  Basis Set: (AUG-CC-PVTZ AUX)
    Blend: AUG-CC-PVTZ-JKFIT
	 Reference Energy          =    -243.6531299213248474 [Eh]
	 Singles Energy            =      -0.0000000000000000 [Eh]
	 Same-Spin Energy          =      -0.2458652539149065 [Eh]
	 Opposite-Spin Energy      =      -0.8100996390815705 [Eh]
	 Correlation Energy        =      -1.0559648929964769 [Eh]
	 Total Energy              =    -244.7090948143213325 [Eh]

	 ================> DF-SCS-MP2 Energies <==================
	-----------------------------------------------------------
	 SCS Same-Spin Scale       =       0.3333333333333333 [-]
	 SCS Opposite-Spin Scale   =       1.2000000000000000 [-]
	 SCS Same-Spin Energy      =      -0.0819550846383022 [Eh]
	 SCS Opposite-Spin Energy  =      -0.9721195668978845 [Eh]
	 SCS Correlation Energy    =      -1.0540746515361867 [Eh]
	 SCS Total Energy          =    -244.7072045728610306 [Eh]
	-----------------------------------------------------------

  Dipole Moment: [D]
     X:    -1.2556      Y:    -0.1058      Z:    -0.1412     Total:     1.2680

*** Psi4 exiting successfully. Buy a developer a beer!
