                               Psi4 1.4a3.dev225

  ==> Input File <==

--------------------------------------------------------------------------
#psi4
#
memory 32 gb

molecule  {
1 1
  C        1.9513750    -0.0476850     0.0410900
  C       -0.5109630    -0.0088300    -0.0208070
  N        0.6815425    -0.7042505    -0.0542541
  N       -0.5022500     1.3295140     0.0248160
  N       -1.6788480    -0.6625100     0.0611020
  H        0.5992730    -1.6821200    -0.1885540
  H        0.3071780     1.8489940    -0.2875250
  H       -1.3771720     1.8372740     0.0557700
  H       -1.6998490    -1.6741350     0.0517440
  H       -2.5379350    -0.1934290    -0.1962670
  H        1.9812500     0.6292430     0.8968410
  H        2.1994310     0.4949160    -0.8747400
  H        2.6844950    -0.8371890     0.1909030
units angstrom
no_reorient  #important for SAPT in psi4, default
symmetry c1  #important for SAPT in psi4, default
}

set PROPERTIES_ORIGIN ["COM"]
properties('MP2/aug-cc-pvtz', properties = ['dipole'])
--------------------------------------------------------------------------

    Molecular point group: c1
  Charge       = 1
  Multiplicity = 1
  Basis Set: AUG-CC-PVTZ
    Blend: AUG-CC-PVTZ
  Basis Set: (AUG-CC-PVTZ AUX)
    Blend: AUG-CC-PVTZ-JKFIT

    Orbital Energies [Eh]
    ---------------------

    Doubly Occupied:

       1A    -15.795789     2A    -15.794196     3A    -15.788562
       4A    -11.602512     5A    -11.431059     6A     -1.535097
       7A     -1.406294     8A     -1.393892     9A     -1.140307
      10A     -1.047711    11A     -0.977395    12A     -0.939666
      13A     -0.866794    14A     -0.862177    15A     -0.821604
      16A     -0.803728    17A     -0.746860    18A     -0.723268
      19A     -0.629119    20A     -0.589619

  @DF-RHF Final Energy:  -243.65249950674718

   => Energetics <=

    Nuclear Repulsion Energy =            192.5099826291294107
    One-Electron Energy =                -702.5336654129996532
    Two-Electron Energy =                 266.3711832771230661
    Total Energy =                       -243.6524995067471764
  Basis Set: (AUG-CC-PVTZ AUX)
    Blend: AUG-CC-PVTZ-RI
    Molecular point group: c1

    Geometry (in Angstrom), charge = 1, multiplicity = 1:

       Center              X                  Y                   Z               Mass
    ------------   -----------------  -----------------  -----------------  -----------------
         C            1.972164222851    -0.037250840984     0.036605070922    12.000000000000
         C           -0.490173777149     0.001604159016    -0.025291929078    12.000000000000
         N            0.702331722851    -0.693816340984    -0.058739029078    14.003074004430
         N           -0.481460777149     1.339948159016     0.020331070922    14.003074004430
         N           -1.658058777149    -0.652075840984     0.056617070922    14.003074004430
         H            0.620062222851    -1.671685840984    -0.193038929078     1.007825032230
         H            0.327967222851     1.859428159016    -0.292009929078     1.007825032230
         H           -1.356382777149     1.847708159016     0.051285070922     1.007825032230
         H           -1.679059777149    -1.663700840984     0.047259070922     1.007825032230
         H           -2.517145777149    -0.182994840984    -0.200751929078     1.007825032230
         H            2.002039222851     0.639677159016     0.892356070922     1.007825032230
         H            2.220220222851     0.505350159016    -0.879224929078     1.007825032230
         H            2.705284222851    -0.826754840984     0.186418070922     1.007825032230

  Basis Set: AUG-CC-PVTZ
    Blend: AUG-CC-PVTZ
  Basis Set: (AUG-CC-PVTZ AUX)
    Blend: AUG-CC-PVTZ-JKFIT
	 Reference Energy          =    -243.6524995067471764 [Eh]
	 Singles Energy            =      -0.0000000000000000 [Eh]
	 Same-Spin Energy          =      -0.2454285593389069 [Eh]
	 Opposite-Spin Energy      =      -0.8096262849848863 [Eh]
	 Correlation Energy        =      -1.0550548443237933 [Eh]
	 Total Energy              =    -244.7075543510709679 [Eh]

	 ================> DF-SCS-MP2 Energies <==================
	-----------------------------------------------------------
	 SCS Same-Spin Scale       =       0.3333333333333333 [-]
	 SCS Opposite-Spin Scale   =       1.2000000000000000 [-]
	 SCS Same-Spin Energy      =      -0.0818095197796356 [Eh]
	 SCS Opposite-Spin Energy  =      -0.9715515419818636 [Eh]
	 SCS Correlation Energy    =      -1.0533610617614992 [Eh]
	 SCS Total Energy          =    -244.7058605685086832 [Eh]
	-----------------------------------------------------------

  Dipole Moment: [D]
     X:    -1.4960      Y:     0.0159      Z:    -0.8805     Total:     1.7360

*** Psi4 exiting successfully. Buy a developer a beer!
