                               Psi4 1.3.2 release

  ==> Input File <==

--------------------------------------------------------------------------
#psi4
#
memory 32 gb

molecule  {
1 1
  C        1.9603260    -0.0474630     0.0649610
  C       -0.5119490    -0.0070210    -0.0238890
  N        0.7318736    -0.6280441    -0.0654556
  N       -0.5227960     1.3301210    -0.0115770
  N       -1.6711500    -0.6772890     0.0386260
  H        0.6032940    -1.6549680    -0.3141340
  H        0.2902210     1.8677740    -0.2812470
  H       -1.3594750     1.8446160     0.2321210
  H       -1.6988330    -1.6603540     0.2762120
  H       -2.5540630    -0.2212690    -0.1512530
  H        1.9599500     0.6280700     0.9221430
  H        2.2491870     0.4866410    -0.8442620
  H        2.6839440    -0.8393840     0.2497200
units angstrom
no_reorient  #important for SAPT in psi4, default
symmetry c1  #important for SAPT in psi4, default
}

set PROPERTIES_ORIGIN ["COM"]
properties('MP2/aug-cc-pvtz', properties = ['dipole'])
--------------------------------------------------------------------------

    Molecular point group: c1
  Charge       = 1
  Multiplicity = 1
  Basis Set: AUG-CC-PVTZ
    Blend: AUG-CC-PVTZ
  Basis Set: (AUG-CC-PVTZ AUX)
    Blend: AUG-CC-PVTZ-JKFIT

    Orbital Energies [Eh]
    ---------------------

    Doubly Occupied:

       1A    -15.797190     2A    -15.793468     3A    -15.791108
       4A    -11.604482     5A    -11.423575     6A     -1.534046
       7A     -1.413187     8A     -1.391217     9A     -1.147453
      10A     -1.037378    11A     -0.970657    12A     -0.941150
      13A     -0.875664    14A     -0.854430    15A     -0.826520
      16A     -0.811590    17A     -0.744213    18A     -0.710977
      19A     -0.627573    20A     -0.580195

  @DF-RHF Final Energy:  -243.63917889162371

   => Energetics <=

    Nuclear Repulsion Energy =            192.7367856620008126
    One-Electron Energy =                -702.9997866961167574
    Two-Electron Energy =                 266.6238221424922585
    Total Energy =                       -243.6391788916237147
  Basis Set: (AUG-CC-PVTZ AUX)
    Blend: AUG-CC-PVTZ-RI
    Molecular point group: c1

    Geometry (in Angstrom), charge = 1, multiplicity = 1:

       Center              X                  Y                   Z               Mass
    ------------   -----------------  -----------------  -----------------  -----------------
         C            1.972499936170    -0.049460451515     0.064352775281    12.000000000000
         C           -0.499775063830    -0.009018451515    -0.024497224719    12.000000000000
         N            0.744047536170    -0.630041551515    -0.066063824719    14.003074004430
         N           -0.510622063830     1.328123548485    -0.012185224719    14.003074004430
         N           -1.658976063830    -0.679286451515     0.038017775281    14.003074004430
         H            0.615467936170    -1.656965451515    -0.314742224719     1.007825032230
         H            0.302394936170     1.865776548485    -0.281855224719     1.007825032230
         H           -1.347301063830     1.842618548485     0.231512775281     1.007825032230
         H           -1.686659063830    -1.662351451515     0.275603775281     1.007825032230
         H           -2.541889063830    -0.223266451515    -0.151861224719     1.007825032230
         H            1.972123936170     0.626072548485     0.921534775281     1.007825032230
         H            2.261360936170     0.484643548485    -0.844870224719     1.007825032230
         H            2.696117936170    -0.841381451515     0.249111775281     1.007825032230

  Basis Set: AUG-CC-PVTZ
    Blend: AUG-CC-PVTZ
  Basis Set: (AUG-CC-PVTZ AUX)
    Blend: AUG-CC-PVTZ-JKFIT
	 Reference Energy          =    -243.6391788916237147 [Eh]
	 Singles Energy            =      -0.0000000000000000 [Eh]
	 Same-Spin Energy          =      -0.2468390339006195 [Eh]
	 Opposite-Spin Energy      =      -0.8116237121284753 [Eh]
	 Correlation Energy        =      -1.0584627460290947 [Eh]
	 Total Energy              =    -244.6976416376528221 [Eh]

	 ================> DF-SCS-MP2 Energies <==================
	-----------------------------------------------------------
	 SCS Same-Spin Scale       =       0.3333333333333333 [-]
	 SCS Opposite-Spin Scale   =       1.2000000000000000 [-]
	 SCS Same-Spin Energy      =      -0.0822796779668731 [Eh]
	 SCS Opposite-Spin Energy  =      -0.9739484545541703 [Eh]
	 SCS Correlation Energy    =      -1.0562281325210434 [Eh]
	 SCS Total Energy          =    -244.6954070241447710 [Eh]
	-----------------------------------------------------------

  Dipole Moment: [D]
     X:    -1.6846      Y:    -0.0518      Z:    -0.1476     Total:     1.6919

*** Psi4 exiting successfully. Buy a developer a beer!
