                               Psi4 1.4a3.dev225

  ==> Input File <==

--------------------------------------------------------------------------
#psi4
#
memory 32 gb

molecule  {
1 1
  C        1.9513750    -0.0476850     0.0410900
  C       -0.5109630    -0.0088300    -0.0208070
  N        0.6383630    -0.6790700    -0.0530430
  N       -0.5022500     1.3295140     0.0248160
  N       -1.6788480    -0.6625100     0.0611020
  H        0.6012026    -1.6326071    -0.1818649
  H        0.3071780     1.8489940    -0.2875250
  H       -1.3771720     1.8372740     0.0557700
  H       -1.6998490    -1.6741350     0.0517440
  H       -2.5379350    -0.1934290    -0.1962670
  H        1.9812500     0.6292430     0.8968410
  H        2.1994310     0.4949160    -0.8747400
  H        2.6844950    -0.8371890     0.1909030
units angstrom
no_reorient  #important for SAPT in psi4, default
symmetry c1  #important for SAPT in psi4, default
}

set PROPERTIES_ORIGIN ["COM"]
properties('MP2/aug-cc-pvtz', properties = ['dipole'])
--------------------------------------------------------------------------

    Molecular point group: c1
  Charge       = 1
  Multiplicity = 1
  Basis Set: AUG-CC-PVTZ
    Blend: AUG-CC-PVTZ
  Basis Set: (AUG-CC-PVTZ AUX)
    Blend: AUG-CC-PVTZ-JKFIT

    Orbital Energies [Eh]
    ---------------------

    Doubly Occupied:

       1A    -15.791038     2A    -15.789442     3A    -15.787805
       4A    -11.595953     5A    -11.436859     6A     -1.542961
       7A     -1.410689     8A     -1.391346     9A     -1.146894
      10A     -1.050841    11A     -0.983234    12A     -0.938990
      13A     -0.867027    14A     -0.863952    15A     -0.825432
      16A     -0.800606    17A     -0.746586    18A     -0.730562
      19A     -0.626992    20A     -0.596195

  @DF-RHF Final Energy:  -243.65686430105953

   => Energetics <=

    Nuclear Repulsion Energy =            193.4478998398063538
    One-Electron Energy =                -704.3627216595631353
    Two-Electron Energy =                 267.2579575186972534
    Total Energy =                       -243.6568643010594997
  Basis Set: (AUG-CC-PVTZ AUX)
    Blend: AUG-CC-PVTZ-RI
    Molecular point group: c1

    Geometry (in Angstrom), charge = 1, multiplicity = 1:

       Center              X                  Y                   Z               Mass
    ------------   -----------------  -----------------  -----------------  -----------------
         C            1.980300934171    -0.042684820231     0.036285103563    12.000000000000
         C           -0.482037065829    -0.003829820231    -0.025611896437    12.000000000000
         N            0.667288934171    -0.674069820231    -0.057847896437    14.003074004430
         N           -0.473324065829     1.334514179769     0.020011103563    14.003074004430
         N           -1.649922065829    -0.657509820231     0.056297103563    14.003074004430
         H            0.630128534171    -1.627606920231    -0.186669796437     1.007825032230
         H            0.336103934171     1.853994179769    -0.292329896437     1.007825032230
         H           -1.348246065829     1.842274179769     0.050965103563     1.007825032230
         H           -1.670923065829    -1.669134820231     0.046939103563     1.007825032230
         H           -2.509009065829    -0.188428820231    -0.201071896437     1.007825032230
         H            2.010175934171     0.634243179769     0.892036103563     1.007825032230
         H            2.228356934171     0.499916179769    -0.879544896437     1.007825032230
         H            2.713420934171    -0.832188820231     0.186098103563     1.007825032230

  Basis Set: AUG-CC-PVTZ
    Blend: AUG-CC-PVTZ
  Basis Set: (AUG-CC-PVTZ AUX)
    Blend: AUG-CC-PVTZ-JKFIT
	 Reference Energy          =    -243.6568643010595281 [Eh]
	 Singles Energy            =      -0.0000000000000000 [Eh]
	 Same-Spin Energy          =      -0.2448684394200779 [Eh]
	 Opposite-Spin Energy      =      -0.8083673642050027 [Eh]
	 Correlation Energy        =      -1.0532358036250806 [Eh]
	 Total Energy              =    -244.7101001046846136 [Eh]

	 ================> DF-SCS-MP2 Energies <==================
	-----------------------------------------------------------
	 SCS Same-Spin Scale       =       0.3333333333333333 [-]
	 SCS Opposite-Spin Scale   =       1.2000000000000000 [-]
	 SCS Same-Spin Energy      =      -0.0816228131400260 [Eh]
	 SCS Opposite-Spin Energy  =      -0.9700408370460032 [Eh]
	 SCS Correlation Energy    =      -1.0516636501860290 [Eh]
	 SCS Total Energy          =    -244.7085279512455713 [Eh]
	-----------------------------------------------------------

  Dipole Moment: [D]
     X:    -1.1976      Y:    -0.0487      Z:    -0.8862     Total:     1.4907

*** Psi4 exiting successfully. Buy a developer a beer!
