                               Psi4 1.3.2 release

  ==> Input File <==

--------------------------------------------------------------------------
#psi4
#
memory 32 gb

molecule  {
1 1
  C        1.9603260    -0.0474630     0.0649610
  C       -0.5119490    -0.0070210    -0.0238890
  N        0.6418760    -0.6705780    -0.0750100
  N       -0.6622694     1.3215884    -0.0034258
  N       -1.6711500    -0.6772890     0.0386260
  H        0.6032940    -1.6549680    -0.3141340
  H        0.2902210     1.8677740    -0.2812470
  H       -1.3594750     1.8446160     0.2321210
  H       -1.6988330    -1.6603540     0.2762120
  H       -2.5540630    -0.2212690    -0.1512530
  H        1.9599500     0.6280700     0.9221430
  H        2.2491870     0.4866410    -0.8442620
  H        2.6839440    -0.8393840     0.2497200
units angstrom
no_reorient  #important for SAPT in psi4, default
symmetry c1  #important for SAPT in psi4, default
}

set PROPERTIES_ORIGIN ["COM"]
properties('MP2/aug-cc-pvtz', properties = ['dipole'])
--------------------------------------------------------------------------

    Molecular point group: c1
  Charge       = 1
  Multiplicity = 1
  Basis Set: AUG-CC-PVTZ
    Blend: AUG-CC-PVTZ
  Basis Set: (AUG-CC-PVTZ AUX)
    Blend: AUG-CC-PVTZ-JKFIT

    Orbital Energies [Eh]
    ---------------------

    Doubly Occupied:

       1A    -15.796505     2A    -15.789528     3A    -15.780646
       4A    -11.597649     5A    -11.439451     6A     -1.539133
       7A     -1.412692     8A     -1.380924     9A     -1.148175
      10A     -1.059051    11A     -0.969957    12A     -0.943297
      13A     -0.884442    14A     -0.848192    15A     -0.804255
      16A     -0.794415    17A     -0.743544    18A     -0.730562
      19A     -0.620962    20A     -0.596752

  @DF-RHF Final Energy:  -243.62723213648763

   => Energetics <=

    Nuclear Repulsion Energy =            192.5536360786464627
    One-Electron Energy =                -702.6014757660133228
    Two-Electron Energy =                 266.4206075508791969
    Total Energy =                       -243.6272321364876348
  Basis Set: (AUG-CC-PVTZ AUX)
    Blend: AUG-CC-PVTZ-RI
    Molecular point group: c1

    Geometry (in Angstrom), charge = 1, multiplicity = 1:

       Center              X                  Y                   Z               Mass
    ------------   -----------------  -----------------  -----------------  -----------------
         C            2.015880796750    -0.039806470328     0.064618046376    12.000000000000
         C           -0.456394203250     0.000635529672    -0.024231953624    12.000000000000
         N            0.697430796750    -0.662921470328    -0.075352953624    14.003074004430
         N           -0.606714603250     1.329244929672    -0.003768753624    14.003074004430
         N           -1.615595203250    -0.669632470328     0.038283046376    14.003074004430
         H            0.658848796750    -1.647311470328    -0.314476953624     1.007825032230
         H            0.345775796750     1.875430529672    -0.281589953624     1.007825032230
         H           -1.303920203250     1.852272529672     0.231778046376     1.007825032230
         H           -1.643278203250    -1.652697470328     0.275869046376     1.007825032230
         H           -2.498508203250    -0.213612470328    -0.151595953624     1.007825032230
         H            2.015504796750     0.635726529672     0.921800046376     1.007825032230
         H            2.304741796750     0.494297529672    -0.844604953624     1.007825032230
         H            2.739498796750    -0.831727470328     0.249377046376     1.007825032230

  Basis Set: AUG-CC-PVTZ
    Blend: AUG-CC-PVTZ
  Basis Set: (AUG-CC-PVTZ AUX)
    Blend: AUG-CC-PVTZ-JKFIT
	 Reference Energy          =    -243.6272321364876348 [Eh]
	 Singles Energy            =      -0.0000000000000000 [Eh]
	 Same-Spin Energy          =      -0.2456209343871766 [Eh]
	 Opposite-Spin Energy      =      -0.8106220578356925 [Eh]
	 Correlation Energy        =      -1.0562429922228691 [Eh]
	 Total Energy              =    -244.6834751287105121 [Eh]

	 ================> DF-SCS-MP2 Energies <==================
	-----------------------------------------------------------
	 SCS Same-Spin Scale       =       0.3333333333333333 [-]
	 SCS Opposite-Spin Scale   =       1.2000000000000000 [-]
	 SCS Same-Spin Energy      =      -0.0818736447957255 [Eh]
	 SCS Opposite-Spin Energy  =      -0.9727464694028309 [Eh]
	 SCS Correlation Energy    =      -1.0546201141985565 [Eh]
	 SCS Total Energy          =    -244.6818522506862053 [Eh]
	-----------------------------------------------------------

  Dipole Moment: [D]
     X:    -0.7876      Y:    -0.0052      Z:    -0.1271     Total:     0.7978

*** Psi4 exiting successfully. Buy a developer a beer!
