                               Psi4 1.3.2 release

  ==> Input File <==

--------------------------------------------------------------------------
#psi4
#
memory 32 gb

molecule  {
1 1
  C        1.9603260    -0.0474630     0.0649610
  C       -0.5119490    -0.0070210    -0.0238890
  N        0.6418760    -0.6705780    -0.0750100
  N       -0.4296531     1.3276697    -0.0170917
  N       -1.6711500    -0.6772890     0.0386260
  H        0.6032940    -1.6549680    -0.3141340
  H        0.2902210     1.8677740    -0.2812470
  H       -1.3594750     1.8446160     0.2321210
  H       -1.6988330    -1.6603540     0.2762120
  H       -2.5540630    -0.2212690    -0.1512530
  H        1.9599500     0.6280700     0.9221430
  H        2.2491870     0.4866410    -0.8442620
  H        2.6839440    -0.8393840     0.2497200
units angstrom
no_reorient  #important for SAPT in psi4, default
symmetry c1  #important for SAPT in psi4, default
}

set PROPERTIES_ORIGIN ["COM"]
properties('MP2/aug-cc-pvtz', properties = ['dipole'])
--------------------------------------------------------------------------

    Molecular point group: c1
  Charge       = 1
  Multiplicity = 1
  Basis Set: AUG-CC-PVTZ
    Blend: AUG-CC-PVTZ
  Basis Set: (AUG-CC-PVTZ AUX)
    Blend: AUG-CC-PVTZ-JKFIT

    Orbital Energies [Eh]
    ---------------------

    Doubly Occupied:

       1A    -15.791491     2A    -15.790392     3A    -15.786430
       4A    -11.596378     5A    -11.434263     6A     -1.538993
       7A     -1.399646     8A     -1.392974     9A     -1.144067
      10A     -1.048659    11A     -0.973239    12A     -0.945468
      13A     -0.883347    14A     -0.843739    15A     -0.815411
      16A     -0.792233    17A     -0.741073    18A     -0.725442
      19A     -0.627554    20A     -0.591233

  @DF-RHF Final Energy:  -243.64351528296345

   => Energetics <=

    Nuclear Repulsion Energy =            193.1478501262352268
    One-Electron Energy =                -703.8586615260799135
    Two-Electron Energy =                 267.0672961168812662
    Total Energy =                       -243.6435152829634490
  Basis Set: (AUG-CC-PVTZ AUX)
    Blend: AUG-CC-PVTZ-RI
    Molecular point group: c1

    Geometry (in Angstrom), charge = 1, multiplicity = 1:

       Center              X                  Y                   Z               Mass
    ------------   -----------------  -----------------  -----------------  -----------------
         C            1.971905325867    -0.040956123345     0.067201547135    12.000000000000
         C           -0.500369674133    -0.000514123345    -0.021648452865    12.000000000000
         N            0.653455325867    -0.664071123345    -0.072769452865    14.003074004430
         N           -0.418073774133     1.334176576655    -0.014851152865    14.003074004430
         N           -1.659570674133    -0.670782123345     0.040866547135    14.003074004430
         H            0.614873325867    -1.648461123345    -0.311893452865     1.007825032230
         H            0.301800325867     1.874280876655    -0.279006452865     1.007825032230
         H           -1.347895674133     1.851122876655     0.234361547135     1.007825032230
         H           -1.687253674133    -1.653847123345     0.278452547135     1.007825032230
         H           -2.542483674133    -0.214762123345    -0.149012452865     1.007825032230
         H            1.971529325867     0.634576876655     0.924383547135     1.007825032230
         H            2.260766325867     0.493147876655    -0.842021452865     1.007825032230
         H            2.695523325867    -0.832877123345     0.251960547135     1.007825032230

  Basis Set: AUG-CC-PVTZ
    Blend: AUG-CC-PVTZ
  Basis Set: (AUG-CC-PVTZ AUX)
    Blend: AUG-CC-PVTZ-JKFIT
	 Reference Energy          =    -243.6435152829634490 [Eh]
	 Singles Energy            =      -0.0000000000000000 [Eh]
	 Same-Spin Energy          =      -0.2456380246094131 [Eh]
	 Opposite-Spin Energy      =      -0.8102072756600622 [Eh]
	 Correlation Energy        =      -1.0558453002694752 [Eh]
	 Total Energy              =    -244.6993605832329308 [Eh]

	 ================> DF-SCS-MP2 Energies <==================
	-----------------------------------------------------------
	 SCS Same-Spin Scale       =       0.3333333333333333 [-]
	 SCS Opposite-Spin Scale   =       1.2000000000000000 [-]
	 SCS Same-Spin Energy      =      -0.0818793415364710 [Eh]
	 SCS Opposite-Spin Energy  =      -0.9722487307920746 [Eh]
	 SCS Correlation Energy    =      -1.0541280723285458 [Eh]
	 SCS Total Energy          =    -244.6976433552920014 [Eh]
	-----------------------------------------------------------

  Dipole Moment: [D]
     X:    -1.4525      Y:     0.0024      Z:    -0.1680     Total:     1.4621

*** Psi4 exiting successfully. Buy a developer a beer!
