                               Psi4 1.3.2 release

  ==> Input File <==

--------------------------------------------------------------------------
#psi4
#
memory 32 gb

molecule  {
1 1
  C        1.9603260    -0.0474630     0.0649610
  C       -0.5119490    -0.0070210    -0.0238890
  N        0.6418760    -0.6705780    -0.0750100
  N       -0.5227960     1.3301210    -0.0115770
  N       -1.6711500    -0.6772890     0.0386260
  H        0.6032940    -1.6549680    -0.3141340
  H        0.2098302     1.8146111    -0.2545821
  H       -1.3594750     1.8446160     0.2321210
  H       -1.6988330    -1.6603540     0.2762120
  H       -2.5540630    -0.2212690    -0.1512530
  H        1.9599500     0.6280700     0.9221430
  H        2.2491870     0.4866410    -0.8442620
  H        2.6839440    -0.8393840     0.2497200
units angstrom
no_reorient  #important for SAPT in psi4, default
symmetry c1  #important for SAPT in psi4, default
}

set PROPERTIES_ORIGIN ["COM"]
properties('MP2/aug-cc-pvtz', properties = ['dipole'])
--------------------------------------------------------------------------

    Molecular point group: c1
  Charge       = 1
  Multiplicity = 1
  Basis Set: AUG-CC-PVTZ
    Blend: AUG-CC-PVTZ
  Basis Set: (AUG-CC-PVTZ AUX)
    Blend: AUG-CC-PVTZ-JKFIT

    Orbital Energies [Eh]
    ---------------------

    Doubly Occupied:

       1A    -15.791272     2A    -15.787871     3A    -15.782247
       4A    -11.596623     5A    -11.436277     6A     -1.542478
       7A     -1.408224     8A     -1.397210     9A     -1.145970
      10A     -1.053737    11A     -0.984216    12A     -0.942808
      13A     -0.887111    14A     -0.863966    15A     -0.821109
      16A     -0.794525    17A     -0.743049    18A     -0.727928
      19A     -0.627239    20A     -0.594324

  @DF-RHF Final Energy:  -243.65040769069310

   => Energetics <=

    Nuclear Repulsion Energy =            193.3593596209527448
    One-Electron Energy =                -704.1631693946408177
    Two-Electron Energy =                 267.1534020829949441
    Total Energy =                       -243.6504076906931004
  Basis Set: (AUG-CC-PVTZ AUX)
    Blend: AUG-CC-PVTZ-RI
    Molecular point group: c1

    Geometry (in Angstrom), charge = 1, multiplicity = 1:

       Center              X                  Y                   Z               Mass
    ------------   -----------------  -----------------  -----------------  -----------------
         C            1.990607535963    -0.040696197701     0.065796204283    12.000000000000
         C           -0.481667464037    -0.000254197701    -0.023053795717    12.000000000000
         N            0.672157535963    -0.663811197701    -0.074174795717    14.003074004430
         N           -0.492514464037     1.336887802299    -0.010741795717    14.003074004430
         N           -1.640868464037    -0.670522197701     0.039461204283    14.003074004430
         H            0.633575535963    -1.648201197701    -0.313298795717     1.007825032230
         H            0.240111735963     1.821377902299    -0.253746895717     1.007825032230
         H           -1.329193464037     1.851382802299     0.232956204283     1.007825032230
         H           -1.668551464037    -1.653587197701     0.277047204283     1.007825032230
         H           -2.523781464037    -0.214502197701    -0.150417795717     1.007825032230
         H            1.990231535963     0.634836802299     0.922978204283     1.007825032230
         H            2.279468535963     0.493407802299    -0.843426795717     1.007825032230
         H            2.714225535963    -0.832617197701     0.250555204283     1.007825032230

  Basis Set: AUG-CC-PVTZ
    Blend: AUG-CC-PVTZ
  Basis Set: (AUG-CC-PVTZ AUX)
    Blend: AUG-CC-PVTZ-JKFIT
	 Reference Energy          =    -243.6504076906931004 [Eh]
	 Singles Energy            =      -0.0000000000000000 [Eh]
	 Same-Spin Energy          =      -0.2446560437678535 [Eh]
	 Opposite-Spin Energy      =      -0.8078752063432347 [Eh]
	 Correlation Energy        =      -1.0525312501110884 [Eh]
	 Total Energy              =    -244.7029389408041880 [Eh]

	 ================> DF-SCS-MP2 Energies <==================
	-----------------------------------------------------------
	 SCS Same-Spin Scale       =       0.3333333333333333 [-]
	 SCS Opposite-Spin Scale   =       1.2000000000000000 [-]
	 SCS Same-Spin Energy      =      -0.0815520145892845 [Eh]
	 SCS Opposite-Spin Energy  =      -0.9694502476118816 [Eh]
	 SCS Correlation Energy    =      -1.0510022622011661 [Eh]
	 SCS Total Energy          =    -244.7014099528942666 [Eh]
	-----------------------------------------------------------

  Dipole Moment: [D]
     X:    -1.2807      Y:    -0.0892      Z:    -0.1207     Total:     1.2894

*** Psi4 exiting successfully. Buy a developer a beer!
