                               Psi4 1.3.2 release

  ==> Input File <==

--------------------------------------------------------------------------
#psi4
#
memory 32 gb

molecule  {
-1 1
  O        1.1476120    -0.2089480     0.0000010
  O       -1.1476100    -0.2089490     0.0000010
  C       -0.0000020     0.3144140    -0.0000020
  H        0.0000020     1.4566921    -0.0499960
units angstrom
no_reorient  #important for SAPT in psi4, default
symmetry c1  #important for SAPT in psi4, default
}

set PROPERTIES_ORIGIN ["COM"]
properties('MP2/aug-cc-pvtz', properties = ['dipole'])
--------------------------------------------------------------------------

    Molecular point group: c1
  Charge       = -1
  Multiplicity = 1
  Basis Set: AUG-CC-PVTZ
    Blend: AUG-CC-PVTZ
  Basis Set: (AUG-CC-PVTZ AUX)
    Blend: AUG-CC-PVTZ-JKFIT

    Orbital Energies [Eh]
    ---------------------

    Doubly Occupied:

       1A    -20.291328     2A    -20.291296     3A    -11.129502
       4A     -1.152577     5A     -1.059810     6A     -0.553250
       7A     -0.427253     8A     -0.387042     9A     -0.339522
      10A     -0.210854    11A     -0.188484    12A     -0.188127

  @DF-RHF Final Energy:  -188.27219943975274

   => Energetics <=

    Nuclear Repulsion Energy =             61.9932976318134408
    One-Electron Energy =                -388.0929008907113484
    Two-Electron Energy =                 137.8274038191451609
    Total Energy =                       -188.2721994397527396
  Basis Set: (AUG-CC-PVTZ AUX)
    Blend: AUG-CC-PVTZ-RI
    Molecular point group: c1

    Geometry (in Angstrom), charge = -1, multiplicity = 1:

       Center              X                  Y                   Z               Mass
    ------------   -----------------  -----------------  -----------------  -----------------
         O            1.147611777644    -0.176875926566     0.001120596817    15.994914619570
         O           -1.147610222356    -0.176876926566     0.001120596817    15.994914619570
         C           -0.000002222356     0.346486073434     0.001117596817    12.000000000000
         H            0.000001777644     1.488764173434    -0.048876403183     1.007825032230

  Basis Set: AUG-CC-PVTZ
    Blend: AUG-CC-PVTZ
  Basis Set: (AUG-CC-PVTZ AUX)
    Blend: AUG-CC-PVTZ-JKFIT
	 Reference Energy          =    -188.2721994397527396 [Eh]
	 Singles Energy            =      -0.0000000000000000 [Eh]
	 Same-Spin Energy          =      -0.1810886477133097 [Eh]
	 Opposite-Spin Energy      =      -0.5234992372433307 [Eh]
	 Correlation Energy        =      -0.7045878849566404 [Eh]
	 Total Energy              =    -188.9767873247093917 [Eh]

	 ================> DF-SCS-MP2 Energies <==================
	-----------------------------------------------------------
	 SCS Same-Spin Scale       =       0.3333333333333333 [-]
	 SCS Opposite-Spin Scale   =       1.2000000000000000 [-]
	 SCS Same-Spin Energy      =      -0.0603628825711032 [Eh]
	 SCS Opposite-Spin Energy  =      -0.6281990846919968 [Eh]
	 SCS Correlation Energy    =      -0.6885619672631000 [Eh]
	 SCS Total Energy          =    -188.9607614070158377 [Eh]
	-----------------------------------------------------------

  Dipole Moment: [D]
     X:    -0.0000      Y:     1.2512      Z:    -0.0195     Total:     1.2514

*** Psi4 exiting successfully. Buy a developer a beer!
