                               Psi4 1.3.2 release

  ==> Input File <==

--------------------------------------------------------------------------
#psi4
#
memory 32 gb

molecule  {
-1 1
  O        1.1476120    -0.2089480     0.0000010
  O       -1.1476100    -0.2089490     0.0000010
  C       -0.0000020     0.3144140    -0.0000020
  H        0.0000020     1.4566923    -0.1499960
units angstrom
no_reorient  #important for SAPT in psi4, default
symmetry c1  #important for SAPT in psi4, default
}

set PROPERTIES_ORIGIN ["COM"]
properties('MP2/aug-cc-pvtz', properties = ['dipole'])
--------------------------------------------------------------------------

    Molecular point group: c1
  Charge       = -1
  Multiplicity = 1
  Basis Set: AUG-CC-PVTZ
    Blend: AUG-CC-PVTZ
  Basis Set: (AUG-CC-PVTZ AUX)
    Blend: AUG-CC-PVTZ-JKFIT

    Orbital Energies [Eh]
    ---------------------

    Doubly Occupied:

       1A    -20.291892     2A    -20.291860     3A    -11.130794
       4A     -1.152964     5A     -1.060281     6A     -0.551270
       7A     -0.427021     8A     -0.387430     9A     -0.339963
      10A     -0.211336    11A     -0.188477    12A     -0.187861

  @DF-RHF Final Energy:  -188.27102222495611

   => Energetics <=

    Nuclear Repulsion Energy =             61.9621129590355935
    One-Electron Energy =                -388.0239687033513292
    Two-Electron Energy =                 137.7908335193596088
    Total Energy =                       -188.2710222249561127
  Basis Set: (AUG-CC-PVTZ AUX)
    Blend: AUG-CC-PVTZ-RI
    Molecular point group: c1

    Geometry (in Angstrom), charge = -1, multiplicity = 1:

       Center              X                  Y                   Z               Mass
    ------------   -----------------  -----------------  -----------------  -----------------
         O            1.147611777644    -0.176875931046     0.003360324750    15.994914619570
         O           -1.147610222356    -0.176876931046     0.003360324750    15.994914619570
         C           -0.000002222356     0.346486068954     0.003357324750    12.000000000000
         H            0.000001777644     1.488764368954    -0.146636675250     1.007825032230

  Basis Set: AUG-CC-PVTZ
    Blend: AUG-CC-PVTZ
  Basis Set: (AUG-CC-PVTZ AUX)
    Blend: AUG-CC-PVTZ-JKFIT
	 Reference Energy          =    -188.2710222249561127 [Eh]
	 Singles Energy            =      -0.0000000000000000 [Eh]
	 Same-Spin Energy          =      -0.1811670237948075 [Eh]
	 Opposite-Spin Energy      =      -0.5236778942101954 [Eh]
	 Correlation Energy        =      -0.7048449180050029 [Eh]
	 Total Energy              =    -188.9758671429611070 [Eh]

	 ================> DF-SCS-MP2 Energies <==================
	-----------------------------------------------------------
	 SCS Same-Spin Scale       =       0.3333333333333333 [-]
	 SCS Opposite-Spin Scale   =       1.2000000000000000 [-]
	 SCS Same-Spin Energy      =      -0.0603890079316025 [Eh]
	 SCS Opposite-Spin Energy  =      -0.6284134730522345 [Eh]
	 SCS Correlation Energy    =      -0.6888024809838370 [Eh]
	 SCS Total Energy          =    -188.9598247059399512 [Eh]
	-----------------------------------------------------------

  Dipole Moment: [D]
     X:    -0.0000      Y:     1.2171      Z:    -0.0556     Total:     1.2183

*** Psi4 exiting successfully. Buy a developer a beer!
