                               Psi4 1.3.2 release

  ==> Input File <==

--------------------------------------------------------------------------
#psi4
#
memory 32 gb

molecule  {
-1 1
  O        1.1476120    -0.2089480     0.0000010
  O       -1.1476100    -0.2089490     0.0000010
  C       -0.0000020     0.3144140    -0.0000020
  H        0.0000020     1.4566920     0.0000040
units angstrom
no_reorient  #important for SAPT in psi4, default
symmetry c1  #important for SAPT in psi4, default
}

set PROPERTIES_ORIGIN ["COM"]
properties('MP2/aug-cc-pvtz', properties = ['dipole'])
--------------------------------------------------------------------------

    Molecular point group: c1
  Charge       = -1
  Multiplicity = 1
  Basis Set: AUG-CC-PVTZ
    Blend: AUG-CC-PVTZ
  Basis Set: (AUG-CC-PVTZ AUX)
    Blend: AUG-CC-PVTZ-JKFIT

    Orbital Energies [Eh]
    ---------------------

    Doubly Occupied:

       1A    -20.291258     2A    -20.291226     3A    -11.129340
       4A     -1.152529     5A     -1.059752     6A     -0.553504
       7A     -0.427282     8A     -0.386994     9A     -0.339468
      10A     -0.210794    11A     -0.188562    12A     -0.188084

  @DF-RHF Final Energy:  -188.27234381409193

   => Energetics <=

    Nuclear Repulsion Energy =             61.9972345745177549
    One-Electron Energy =                -388.1015745650614122
    Two-Electron Energy =                 137.8319961764517529
    Total Energy =                       -188.2723438140919257
  Basis Set: (AUG-CC-PVTZ AUX)
    Blend: AUG-CC-PVTZ-RI
    Molecular point group: c1

    Geometry (in Angstrom), charge = -1, multiplicity = 1:

       Center              X                  Y                   Z               Mass
    ------------   -----------------  -----------------  -----------------  -----------------
         O            1.147611777644    -0.176875924326     0.000000732850    15.994914619570
         O           -1.147610222356    -0.176876924326     0.000000732850    15.994914619570
         C           -0.000002222356     0.346486075674    -0.000002267150    12.000000000000
         H            0.000001777644     1.488764075674     0.000003732850     1.007825032230

  Basis Set: AUG-CC-PVTZ
    Blend: AUG-CC-PVTZ
  Basis Set: (AUG-CC-PVTZ AUX)
    Blend: AUG-CC-PVTZ-JKFIT
	 Reference Energy          =    -188.2723438140919257 [Eh]
	 Singles Energy            =      -0.0000000000000000 [Eh]
	 Same-Spin Energy          =      -0.1810788204493148 [Eh]
	 Opposite-Spin Energy      =      -0.5234769402271870 [Eh]
	 Correlation Energy        =      -0.7045557606765018 [Eh]
	 Total Energy              =    -188.9768995747684244 [Eh]

	 ================> DF-SCS-MP2 Energies <==================
	-----------------------------------------------------------
	 SCS Same-Spin Scale       =       0.3333333333333333 [-]
	 SCS Opposite-Spin Scale   =       1.2000000000000000 [-]
	 SCS Same-Spin Energy      =      -0.0603596068164383 [Eh]
	 SCS Opposite-Spin Energy  =      -0.6281723282726245 [Eh]
	 SCS Correlation Energy    =      -0.6885319350890627 [Eh]
	 SCS Total Energy          =    -188.9608757491809854 [Eh]
	-----------------------------------------------------------

  Dipole Moment: [D]
     X:    -0.0000      Y:     1.2555      Z:    -0.0000     Total:     1.2555

*** Psi4 exiting successfully. Buy a developer a beer!
