                               Psi4 1.3.2 release

  ==> Input File <==

--------------------------------------------------------------------------
#psi4
#
memory 32 gb

molecule  {
-1 1
  O        1.1476120    -0.2089480     0.0000010
  O       -1.1476100    -0.2089490     0.0000010
  C       -0.0000020     0.3144140    -0.0000020
  H        0.0000020     1.4566924    -0.1999960
units angstrom
no_reorient  #important for SAPT in psi4, default
symmetry c1  #important for SAPT in psi4, default
}

set PROPERTIES_ORIGIN ["COM"]
properties('MP2/aug-cc-pvtz', properties = ['dipole'])
--------------------------------------------------------------------------

    Molecular point group: c1
  Charge       = -1
  Multiplicity = 1
  Basis Set: AUG-CC-PVTZ
    Blend: AUG-CC-PVTZ
  Basis Set: (AUG-CC-PVTZ AUX)
    Blend: AUG-CC-PVTZ-JKFIT

    Orbital Energies [Eh]
    ---------------------

    Doubly Occupied:

       1A    -20.292390     2A    -20.292357     3A    -11.131917
       4A     -1.153308     5A     -1.060696     6A     -0.549607
       7A     -0.426812     8A     -0.387773     9A     -0.340352
      10A     -0.211758    11A     -0.188789    12A     -0.187319

  @DF-RHF Final Energy:  -188.26996249203594

   => Energetics <=

    Nuclear Repulsion Energy =             61.9352724392510154
    One-Electron Energy =                -387.9643146711451891
    Two-Electron Energy =                 137.7590797398582083
    Total Energy =                       -188.2699624920359440
  Basis Set: (AUG-CC-PVTZ AUX)
    Blend: AUG-CC-PVTZ-RI
    Molecular point group: c1

    Geometry (in Angstrom), charge = -1, multiplicity = 1:

       Center              X                  Y                   Z               Mass
    ------------   -----------------  -----------------  -----------------  -----------------
         O            1.147611777644    -0.176875933285     0.004480188717    15.994914619570
         O           -1.147610222356    -0.176876933285     0.004480188717    15.994914619570
         C           -0.000002222356     0.346486066715     0.004477188717    12.000000000000
         H            0.000001777644     1.488764466715    -0.195516811283     1.007825032230

  Basis Set: AUG-CC-PVTZ
    Blend: AUG-CC-PVTZ
  Basis Set: (AUG-CC-PVTZ AUX)
    Blend: AUG-CC-PVTZ-JKFIT
	 Reference Energy          =    -188.2699624920359440 [Eh]
	 Singles Energy            =      -0.0000000000000000 [Eh]
	 Same-Spin Energy          =      -0.1812352100543930 [Eh]
	 Opposite-Spin Energy      =      -0.5238345371592285 [Eh]
	 Correlation Energy        =      -0.7050697472136214 [Eh]
	 Total Energy              =    -188.9750322392495718 [Eh]

	 ================> DF-SCS-MP2 Energies <==================
	-----------------------------------------------------------
	 SCS Same-Spin Scale       =       0.3333333333333333 [-]
	 SCS Opposite-Spin Scale   =       1.2000000000000000 [-]
	 SCS Same-Spin Energy      =      -0.0604117366847977 [Eh]
	 SCS Opposite-Spin Energy  =      -0.6286014445910741 [Eh]
	 SCS Correlation Energy    =      -0.6890131812758717 [Eh]
	 SCS Total Energy          =    -188.9589756733118122 [Eh]
	-----------------------------------------------------------

  Dipole Moment: [D]
     X:    -0.0000      Y:     1.1872      Z:    -0.0707     Total:     1.1893

*** Psi4 exiting successfully. Buy a developer a beer!
