                               Psi4 1.3.2 release

  ==> Input File <==

--------------------------------------------------------------------------
#psi4
#
memory 32 gb

molecule  {
-1 1
  O        1.1476120    -0.2089480     0.0000010
  O       -1.1476100    -0.2089490     0.0000010
  C       -0.0000020     0.3144140    -0.0000020
  H        0.0000020     1.4566925    -0.2999960
units angstrom
no_reorient  #important for SAPT in psi4, default
symmetry c1  #important for SAPT in psi4, default
}

set PROPERTIES_ORIGIN ["COM"]
properties('MP2/aug-cc-pvtz', properties = ['dipole'])
--------------------------------------------------------------------------

    Molecular point group: c1
  Charge       = -1
  Multiplicity = 1
  Basis Set: AUG-CC-PVTZ
    Blend: AUG-CC-PVTZ
  Basis Set: (AUG-CC-PVTZ AUX)
    Blend: AUG-CC-PVTZ-JKFIT

    Orbital Energies [Eh]
    ---------------------

    Doubly Occupied:

       1A    -20.293831     2A    -20.293798     3A    -11.135083
       4A     -1.154311     5A     -1.061897     6A     -0.545196
       7A     -0.426186     8A     -0.388771     9A     -0.341482
      10A     -0.212963    11A     -0.189709    12A     -0.185780

  @DF-RHF Final Energy:  -188.26680540237251

   => Energetics <=

    Nuclear Repulsion Energy =             61.8607710799427579
    One-Electron Energy =                -387.7971417487279382
    Two-Electron Energy =                 137.6695652664126612
    Total Energy =                       -188.2668054023725119
  Basis Set: (AUG-CC-PVTZ AUX)
    Blend: AUG-CC-PVTZ-RI
    Molecular point group: c1

    Geometry (in Angstrom), charge = -1, multiplicity = 1:

       Center              X                  Y                   Z               Mass
    ------------   -----------------  -----------------  -----------------  -----------------
         O            1.147611777644    -0.176875935525     0.006719916651    15.994914619570
         O           -1.147610222356    -0.176876935525     0.006719916651    15.994914619570
         C           -0.000002222356     0.346486064475     0.006716916651    12.000000000000
         H            0.000001777644     1.488764564475    -0.293277083349     1.007825032230

  Basis Set: AUG-CC-PVTZ
    Blend: AUG-CC-PVTZ
  Basis Set: (AUG-CC-PVTZ AUX)
    Blend: AUG-CC-PVTZ-JKFIT
	 Reference Energy          =    -188.2668054023725119 [Eh]
	 Singles Energy            =      -0.0000000000000000 [Eh]
	 Same-Spin Energy          =      -0.1814279024438742 [Eh]
	 Opposite-Spin Energy      =      -0.5242834448611995 [Eh]
	 Correlation Energy        =      -0.7057113473050737 [Eh]
	 Total Energy              =    -188.9725167496775953 [Eh]

	 ================> DF-SCS-MP2 Energies <==================
	-----------------------------------------------------------
	 SCS Same-Spin Scale       =       0.3333333333333333 [-]
	 SCS Opposite-Spin Scale   =       1.2000000000000000 [-]
	 SCS Same-Spin Energy      =      -0.0604759674812914 [Eh]
	 SCS Opposite-Spin Energy  =      -0.6291401338334394 [Eh]
	 SCS Correlation Energy    =      -0.6896161013147307 [Eh]
	 SCS Total Energy          =    -188.9564215036872383 [Eh]
	-----------------------------------------------------------

  Dipole Moment: [D]
     X:    -0.0000      Y:     1.1017      Z:    -0.0910     Total:     1.1055

*** Psi4 exiting successfully. Buy a developer a beer!
