                               Psi4 1.3.2 release

  ==> Input File <==

--------------------------------------------------------------------------
#psi4
#
memory 32 gb

molecule  {
-1 1
  O        1.1476120    -0.2089480     0.0000010
  O       -1.1476100    -0.2089490     0.0000010
  C       -0.0000020     0.3144140    -0.0000020
  H        0.0000020     1.4566925    -0.2499960
units angstrom
no_reorient  #important for SAPT in psi4, default
symmetry c1  #important for SAPT in psi4, default
}

set PROPERTIES_ORIGIN ["COM"]
properties('MP2/aug-cc-pvtz', properties = ['dipole'])
--------------------------------------------------------------------------

    Molecular point group: c1
  Charge       = -1
  Multiplicity = 1
  Basis Set: AUG-CC-PVTZ
    Blend: AUG-CC-PVTZ
  Basis Set: (AUG-CC-PVTZ AUX)
    Blend: AUG-CC-PVTZ-JKFIT

    Orbital Energies [Eh]
    ---------------------

    Doubly Occupied:

       1A    -20.293035     2A    -20.293002     3A    -11.133349
       4A     -1.153755     5A     -1.061233     6A     -0.547560
       7A     -0.426536     8A     -0.388219     9A     -0.340857
      10A     -0.212300    11A     -0.189198    12A     -0.186625

  @DF-RHF Final Energy:  -188.26856367556562

   => Energetics <=

    Nuclear Repulsion Energy =             61.9013548232637447
    One-Electron Energy =                -387.8884988797533993
    Two-Electron Energy =                 137.7185803809240667
    Total Energy =                       -188.2685636755656162
  Basis Set: (AUG-CC-PVTZ AUX)
    Blend: AUG-CC-PVTZ-RI
    Molecular point group: c1

    Geometry (in Angstrom), charge = -1, multiplicity = 1:

       Center              X                  Y                   Z               Mass
    ------------   -----------------  -----------------  -----------------  -----------------
         O            1.147611777644    -0.176875935525     0.005600052684    15.994914619570
         O           -1.147610222356    -0.176876935525     0.005600052684    15.994914619570
         C           -0.000002222356     0.346486064475     0.005597052684    12.000000000000
         H            0.000001777644     1.488764564475    -0.244396947316     1.007825032230

  Basis Set: AUG-CC-PVTZ
    Blend: AUG-CC-PVTZ
  Basis Set: (AUG-CC-PVTZ AUX)
    Blend: AUG-CC-PVTZ-JKFIT
	 Reference Energy          =    -188.2685636755656162 [Eh]
	 Singles Energy            =      -0.0000000000000000 [Eh]
	 Same-Spin Energy          =      -0.1813223189942850 [Eh]
	 Opposite-Spin Energy      =      -0.5240363193784019 [Eh]
	 Correlation Energy        =      -0.7053586383726869 [Eh]
	 Total Energy              =    -188.9739223139383171 [Eh]

	 ================> DF-SCS-MP2 Energies <==================
	-----------------------------------------------------------
	 SCS Same-Spin Scale       =       0.3333333333333333 [-]
	 SCS Opposite-Spin Scale   =       1.2000000000000000 [-]
	 SCS Same-Spin Energy      =      -0.0604407729980950 [Eh]
	 SCS Opposite-Spin Energy  =      -0.6288435832540823 [Eh]
	 SCS Correlation Energy    =      -0.6892843562521773 [Eh]
	 SCS Total Energy          =    -188.9578480318178038 [Eh]
	-----------------------------------------------------------

  Dipole Moment: [D]
     X:    -0.0000      Y:     1.1487      Z:    -0.0827     Total:     1.1517

*** Psi4 exiting successfully. Buy a developer a beer!
