                               Psi4 1.3.2 release

  ==> Input File <==

--------------------------------------------------------------------------
#psi4
#
memory 32 gb

molecule  {
-1 1
  O        1.1476120    -0.2089480     0.0000010
  O       -1.1476100    -0.2089490     0.0000010
  C       -0.0000020     0.3144140    -0.0000020
  H        0.0000020     1.4566922    -0.0999960
units angstrom
no_reorient  #important for SAPT in psi4, default
symmetry c1  #important for SAPT in psi4, default
}

set PROPERTIES_ORIGIN ["COM"]
properties('MP2/aug-cc-pvtz', properties = ['dipole'])
--------------------------------------------------------------------------

    Molecular point group: c1
  Charge       = -1
  Multiplicity = 1
  Basis Set: AUG-CC-PVTZ
    Blend: AUG-CC-PVTZ
  Basis Set: (AUG-CC-PVTZ AUX)
    Blend: AUG-CC-PVTZ-JKFIT

    Orbital Energies [Eh]
    ---------------------

    Doubly Occupied:

       1A    -20.291539     2A    -20.291507     3A    -11.129988
       4A     -1.152721     5A     -1.059986     6A     -0.552498
       7A     -0.427167     8A     -0.387187     9A     -0.339687
      10A     -0.211035    11A     -0.188258    12A     -0.188250

  @DF-RHF Final Energy:  -188.27176246969395

   => Energetics <=

    Nuclear Repulsion Energy =             61.9815386111298992
    One-Electron Energy =                -388.0669555515921729
    Two-Electron Energy =                 137.8136544707683129
    Total Energy =                       -188.2717624696939538
  Basis Set: (AUG-CC-PVTZ AUX)
    Blend: AUG-CC-PVTZ-RI
    Molecular point group: c1

    Geometry (in Angstrom), charge = -1, multiplicity = 1:

       Center              X                  Y                   Z               Mass
    ------------   -----------------  -----------------  -----------------  -----------------
         O            1.147611777644    -0.176875928806     0.002240460784    15.994914619570
         O           -1.147610222356    -0.176876928806     0.002240460784    15.994914619570
         C           -0.000002222356     0.346486071194     0.002237460784    12.000000000000
         H            0.000001777644     1.488764271194    -0.097756539216     1.007825032230

  Basis Set: AUG-CC-PVTZ
    Blend: AUG-CC-PVTZ
  Basis Set: (AUG-CC-PVTZ AUX)
    Blend: AUG-CC-PVTZ-JKFIT
	 Reference Energy          =    -188.2717624696939538 [Eh]
	 Singles Energy            =      -0.0000000000000000 [Eh]
	 Same-Spin Energy          =      -0.1811180933598528 [Eh]
	 Opposite-Spin Energy      =      -0.5235661846463288 [Eh]
	 Correlation Energy        =      -0.7046842780061816 [Eh]
	 Total Energy              =    -188.9764467477001233 [Eh]

	 ================> DF-SCS-MP2 Energies <==================
	-----------------------------------------------------------
	 SCS Same-Spin Scale       =       0.3333333333333333 [-]
	 SCS Opposite-Spin Scale   =       1.2000000000000000 [-]
	 SCS Same-Spin Energy      =      -0.0603726977866176 [Eh]
	 SCS Opposite-Spin Energy  =      -0.6282794215755945 [Eh]
	 SCS Correlation Energy    =      -0.6886521193622120 [Eh]
	 SCS Total Energy          =    -188.9604145890561711 [Eh]
	-----------------------------------------------------------

  Dipole Moment: [D]
     X:    -0.0000      Y:     1.2384      Z:    -0.0383     Total:     1.2390

*** Psi4 exiting successfully. Buy a developer a beer!
