                               Psi4 1.4a3.dev225

  ==> Input File <==

--------------------------------------------------------------------------
#psi4
#
memory 32 gb

molecule  {
0 1
  S        1.2258560    -1.1625810    -0.0000180
  N        0.3264180     1.2510610     0.0000150
  C       -1.5198050    -0.4073720    -0.0000100
  C       -0.0728400    -0.0059560    -0.0000040
  C       -2.2053760     0.1167870    -1.2644160
  C       -2.2053680     0.1167230     1.2644280
  C        2.3605110     0.1219000     0.0000040
  C        1.6961240     1.3252530     0.0000200
  H       -1.5697880    -1.5042720    -0.0000380
  H       -2.1392250     1.2073760    -1.2930360
  H       -3.4534680    -0.2274214    -1.2783942
  H       -1.7266260    -0.2804090    -2.1642060
  H       -1.7266100    -0.2805170     2.1641940
  H       -3.2606680    -0.1743180     1.2762400
  H       -2.1392170     1.2073110     1.2931010
  H        3.4272510    -0.0583780     0.0000030
  H        2.1774630     2.2973190     0.0000360
units angstrom
no_reorient  #important for SAPT in psi4, default
symmetry c1  #important for SAPT in psi4, default
}

set PROPERTIES_ORIGIN ["COM"]
properties('MP2/aug-cc-pvtz', properties = ['dipole'])
--------------------------------------------------------------------------

    Molecular point group: c1
  Charge       = 0
  Multiplicity = 1
  Basis Set: AUG-CC-PVTZ
    Blend: AUG-CC-PVTZ
  Basis Set: (AUG-CC-PVTZ AUX)
    Blend: AUG-CC-PVTZ-JKFIT

    Orbital Energies [Eh]
    ---------------------

    Doubly Occupied:

       1A    -91.995577     2A    -15.565850     3A    -11.311857
       4A    -11.270228     5A    -11.262053     6A    -11.251684
       7A    -11.242455     8A    -11.219331     9A     -8.996194
      10A     -6.677088    11A     -6.676581    12A     -6.675866
      13A     -1.276428    14A     -1.094333    15A     -1.062744
      16A     -0.980595    17A     -0.928984    18A     -0.835275
      19A     -0.794211    20A     -0.717786    21A     -0.684128
      22A     -0.625947    23A     -0.599755    24A     -0.579937
      25A     -0.568208    26A     -0.547131    27A     -0.520031
      28A     -0.505691    29A     -0.490444    30A     -0.485256
      31A     -0.480149    32A     -0.423319    33A     -0.388236
      34A     -0.329259

  @DF-RHF Final Energy:  -684.51365810122525

   => Energetics <=

    Nuclear Repulsion Energy =            436.6894304051764379
    One-Electron Energy =               -1804.2809556623076332
    Two-Electron Energy =                 683.0778671559060058
    Total Energy =                       -684.5136581012252464
  Basis Set: (AUG-CC-PVTZ AUX)
    Blend: AUG-CC-PVTZ-RI
    Molecular point group: c1

    Geometry (in Angstrom), charge = 0, multiplicity = 1:

       Center              X                  Y                   Z               Mass
    ------------   -----------------  -----------------  -----------------  -----------------
         S            1.147847698560    -1.144952670431    -0.000000541026    31.972071174400
         N            0.248409698560     1.268689329569     0.000032458974    14.003074004430
         C           -1.597813301440    -0.389743670431     0.000007458974    12.000000000000
         C           -0.150848301440     0.011672329569     0.000013458974    12.000000000000
         C           -2.283384301440     0.134415329569    -1.264398541026    12.000000000000
         C           -2.283376301440     0.134351329569     1.264445458974    12.000000000000
         C            2.282502698560     0.139528329569     0.000021458974    12.000000000000
         C            1.618115698560     1.342881329569     0.000037458974    12.000000000000
         H           -1.647796301440    -1.486643670431    -0.000020541026     1.007825032230
         H           -2.217233301440     1.225004329569    -1.293018541026     1.007825032230
         H           -3.531476301440    -0.209793070431    -1.278376741026     1.007825032230
         H           -1.804634301440    -0.262780670431    -2.164188541026     1.007825032230
         H           -1.804618301440    -0.262888670431     2.164211458974     1.007825032230
         H           -3.338676301440    -0.156689670431     1.276257458974     1.007825032230
         H           -2.217225301440     1.224939329569     1.293118458974     1.007825032230
         H            3.349242698560    -0.040749670431     0.000020458974     1.007825032230
         H            2.099454698560     2.314947329569     0.000053458974     1.007825032230

  Basis Set: AUG-CC-PVTZ
    Blend: AUG-CC-PVTZ
  Basis Set: (AUG-CC-PVTZ AUX)
    Blend: AUG-CC-PVTZ-JKFIT
	 Reference Energy          =    -684.5136581012252464 [Eh]
	 Singles Energy            =      -0.0000000000000000 [Eh]
	 Same-Spin Energy          =      -0.3769185798219016 [Eh]
	 Opposite-Spin Energy      =      -1.1984103652898945 [Eh]
	 Correlation Energy        =      -1.5753289451117962 [Eh]
	 Total Energy              =    -686.0889870463370244 [Eh]

	 ================> DF-SCS-MP2 Energies <==================
	-----------------------------------------------------------
	 SCS Same-Spin Scale       =       0.3333333333333333 [-]
	 SCS Opposite-Spin Scale   =       1.2000000000000000 [-]
	 SCS Same-Spin Energy      =      -0.1256395266073005 [Eh]
	 SCS Opposite-Spin Energy  =      -1.4380924383478735 [Eh]
	 SCS Correlation Energy    =      -1.5637319649551740 [Eh]
	 SCS Total Energy          =    -686.0773900661804419 [Eh]
	-----------------------------------------------------------

  Dipole Moment: [D]
     X:     0.7026      Y:    -1.1150      Z:     0.0416     Total:     1.3185

*** Psi4 exiting successfully. Buy a developer a beer!
