                               Psi4 1.4a3.dev225

  ==> Input File <==

--------------------------------------------------------------------------
#psi4
#
memory 32 gb

molecule  {
0 1
  S        1.2258560    -1.1625810    -0.0000180
  N        0.3264180     1.2510610     0.0000150
  C       -1.5899494    -0.3504829     0.0570913
  C       -0.0728400    -0.0059560    -0.0000040
  C       -2.2053760     0.1167870    -1.2644160
  C       -2.2053680     0.1167230     1.2644280
  C        2.3605110     0.1219000     0.0000040
  C        1.6961240     1.3252530     0.0000200
  H       -1.5697880    -1.5042720    -0.0000380
  H       -2.1392250     1.2073760    -1.2930360
  H       -3.2606770    -0.1742520    -1.2762350
  H       -1.7266260    -0.2804090    -2.1642060
  H       -1.7266100    -0.2805170     2.1641940
  H       -3.2606680    -0.1743180     1.2762400
  H       -2.1392170     1.2073110     1.2931010
  H        3.4272510    -0.0583780     0.0000030
  H        2.1774630     2.2973190     0.0000360
units angstrom
no_reorient  #important for SAPT in psi4, default
symmetry c1  #important for SAPT in psi4, default
}

set PROPERTIES_ORIGIN ["COM"]
properties('MP2/aug-cc-pvtz', properties = ['dipole'])
--------------------------------------------------------------------------

    Molecular point group: c1
  Charge       = 0
  Multiplicity = 1
  Basis Set: AUG-CC-PVTZ
    Blend: AUG-CC-PVTZ
  Basis Set: (AUG-CC-PVTZ AUX)
    Blend: AUG-CC-PVTZ-JKFIT

    Orbital Energies [Eh]
    ---------------------

    Doubly Occupied:

       1A    -91.994814     2A    -15.562734     3A    -11.309790
       4A    -11.268147     5A    -11.260306     6A    -11.254182
       7A    -11.219852     8A    -11.215426     9A     -8.995263
      10A     -6.676154    11A     -6.675678    12A     -6.674945
      13A     -1.273194    14A     -1.101336    15A     -1.060548
      16A     -0.982790    17A     -0.944794    18A     -0.828072
      19A     -0.790232    20A     -0.714801    21A     -0.680446
      22A     -0.632804    23A     -0.605492    24A     -0.587624
      25A     -0.566741    26A     -0.548031    27A     -0.532729
      28A     -0.514459    29A     -0.502033    30A     -0.484732
      31A     -0.463030    32A     -0.420505    33A     -0.386631
      34A     -0.328744

  @DF-RHF Final Energy:  -684.52109386719883

   => Energetics <=

    Nuclear Repulsion Energy =            437.2608878219348867
    One-Electron Energy =               -1805.4498434150898447
    Two-Electron Energy =                 683.6678617259561861
    Total Energy =                       -684.5210938671988288
  Basis Set: (AUG-CC-PVTZ AUX)
    Blend: AUG-CC-PVTZ-RI
    Molecular point group: c1

    Geometry (in Angstrom), charge = 0, multiplicity = 1:

       Center              X                  Y                   Z               Mass
    ------------   -----------------  -----------------  -----------------  -----------------
         S            1.152943769220    -1.150747871708    -0.005411132621    31.972071174400
         N            0.253505769220     1.262894128292    -0.005378132621    14.003074004430
         C           -1.662861630780    -0.338649771708     0.051698167379    12.000000000000
         C           -0.145752230780     0.005877128292    -0.005397132621    12.000000000000
         C           -2.278288230780     0.128620128292    -1.269809132621    12.000000000000
         C           -2.278280230780     0.128556128292     1.259034867379    12.000000000000
         C            2.287598769220     0.133733128292    -0.005389132621    12.000000000000
         C            1.623211769220     1.337086128292    -0.005373132621    12.000000000000
         H           -1.642700230780    -1.492438871708    -0.005431132621     1.007825032230
         H           -2.212137230780     1.219209128292    -1.298429132621     1.007825032230
         H           -3.333589230780    -0.162418871708    -1.281628132621     1.007825032230
         H           -1.799538230780    -0.268575871708    -2.169599132621     1.007825032230
         H           -1.799522230780    -0.268683871708     2.158800867379     1.007825032230
         H           -3.333580230780    -0.162484871708     1.270846867379     1.007825032230
         H           -2.212129230780     1.219144128292     1.287707867379     1.007825032230
         H            3.354338769220    -0.046544871708    -0.005390132621     1.007825032230
         H            2.104550769220     2.309152128292    -0.005357132621     1.007825032230

  Basis Set: AUG-CC-PVTZ
    Blend: AUG-CC-PVTZ
  Basis Set: (AUG-CC-PVTZ AUX)
    Blend: AUG-CC-PVTZ-JKFIT
	 Reference Energy          =    -684.5210938671988288 [Eh]
	 Singles Energy            =      -0.0000000000000000 [Eh]
	 Same-Spin Energy          =      -0.3773842176832090 [Eh]
	 Opposite-Spin Energy      =      -1.1976523598892745 [Eh]
	 Correlation Energy        =      -1.5750365775724835 [Eh]
	 Total Energy              =    -686.0961304447713474 [Eh]

	 ================> DF-SCS-MP2 Energies <==================
	-----------------------------------------------------------
	 SCS Same-Spin Scale       =       0.3333333333333333 [-]
	 SCS Opposite-Spin Scale   =       1.2000000000000000 [-]
	 SCS Same-Spin Energy      =      -0.1257947392277363 [Eh]
	 SCS Opposite-Spin Energy  =      -1.4371828318671294 [Eh]
	 SCS Correlation Energy    =      -1.5629775710948657 [Eh]
	 SCS Total Energy          =    -686.0840714382936767 [Eh]
	-----------------------------------------------------------

  Dipole Moment: [D]
     X:     0.4923      Y:    -1.0992      Z:     0.0489     Total:     1.2054

*** Psi4 exiting successfully. Buy a developer a beer!
