                               Psi4 1.4a3.dev225

  ==> Input File <==

--------------------------------------------------------------------------
#psi4
#
memory 32 gb

molecule  {
0 1
  S        1.0978414    -1.2919956    -0.0000201
  N        0.3264180     1.2510610     0.0000150
  C       -1.5198050    -0.4073720    -0.0000100
  C       -0.0728400    -0.0059560    -0.0000040
  C       -2.2053760     0.1167870    -1.2644160
  C       -2.2053680     0.1167230     1.2644280
  C        2.3605110     0.1219000     0.0000040
  C        1.6961240     1.3252530     0.0000200
  H       -1.5697880    -1.5042720    -0.0000380
  H       -2.1392250     1.2073760    -1.2930360
  H       -3.2606770    -0.1742520    -1.2762350
  H       -1.7266260    -0.2804090    -2.1642060
  H       -1.7266100    -0.2805170     2.1641940
  H       -3.2606680    -0.1743180     1.2762400
  H       -2.1392170     1.2073110     1.2931010
  H        3.4272510    -0.0583780     0.0000030
  H        2.1774630     2.2973190     0.0000360
units angstrom
no_reorient  #important for SAPT in psi4, default
symmetry c1  #important for SAPT in psi4, default
}

set PROPERTIES_ORIGIN ["COM"]
properties('MP2/aug-cc-pvtz', properties = ['dipole'])
--------------------------------------------------------------------------

    Molecular point group: c1
  Charge       = 0
  Multiplicity = 1
  Basis Set: AUG-CC-PVTZ
    Blend: AUG-CC-PVTZ
  Basis Set: (AUG-CC-PVTZ AUX)
    Blend: AUG-CC-PVTZ-JKFIT

    Orbital Energies [Eh]
    ---------------------

    Doubly Occupied:

       1A    -91.998924     2A    -15.563559     3A    -11.316652
       4A    -11.276132     5A    -11.273559     6A    -11.247758
       7A    -11.219377     8A    -11.219361     9A     -8.996827
      10A     -6.677674    11A     -6.676736    12A     -6.676308
      13A     -1.269086    14A     -1.096165    15A     -1.033075
      16A     -0.986158    17A     -0.935861    18A     -0.838711
      19A     -0.799043    20A     -0.704713    21A     -0.680561
      22A     -0.623748    23A     -0.600892    24A     -0.585037
      25A     -0.568355    26A     -0.544455    27A     -0.526144
      28A     -0.506590    29A     -0.492299    30A     -0.485870
      31A     -0.470617    32A     -0.422532    33A     -0.383538
      34A     -0.333255

  @DF-RHF Final Energy:  -684.51732724632734

   => Energetics <=

    Nuclear Repulsion Energy =            433.8493142301460352
    One-Electron Energy =               -1798.6741343063711156
    Two-Electron Energy =                 680.3074928298976829
    Total Energy =                       -684.5173272463273406
  Basis Set: (AUG-CC-PVTZ AUX)
    Blend: AUG-CC-PVTZ-RI
    Molecular point group: c1

    Geometry (in Angstrom), charge = 0, multiplicity = 1:

       Center              X                  Y                   Z               Mass
    ------------   -----------------  -----------------  -----------------  -----------------
         S            1.050519664745    -1.242220794683    -0.000019241010    31.972071174400
         N            0.279096264745     1.300835805317     0.000015858990    14.003074004430
         C           -1.567126735255    -0.357597194683    -0.000009141010    12.000000000000
         C           -0.120161735255     0.043818805317    -0.000003141010    12.000000000000
         C           -2.252697735255     0.166561805317    -1.264415141010    12.000000000000
         C           -2.252689735255     0.166497805317     1.264428858990    12.000000000000
         C            2.313189264745     0.171674805317     0.000004858990    12.000000000000
         C            1.648802264745     1.375027805317     0.000020858990    12.000000000000
         H           -1.617109735255    -1.454497194683    -0.000037141010     1.007825032230
         H           -2.186546735255     1.257150805317    -1.293035141010     1.007825032230
         H           -3.307998735255    -0.124477194683    -1.276234141010     1.007825032230
         H           -1.773947735255    -0.230634194683    -2.164205141010     1.007825032230
         H           -1.773931735255    -0.230742194683     2.164194858990     1.007825032230
         H           -3.307989735255    -0.124543194683     1.276240858990     1.007825032230
         H           -2.186538735255     1.257085805317     1.293101858990     1.007825032230
         H            3.379929264745    -0.008603194683     0.000003858990     1.007825032230
         H            2.130141264745     2.347093805317     0.000036858990     1.007825032230

  Basis Set: AUG-CC-PVTZ
    Blend: AUG-CC-PVTZ
  Basis Set: (AUG-CC-PVTZ AUX)
    Blend: AUG-CC-PVTZ-JKFIT
	 Reference Energy          =    -684.5173272463273406 [Eh]
	 Singles Energy            =      -0.0000000000000000 [Eh]
	 Same-Spin Energy          =      -0.3753342644509733 [Eh]
	 Opposite-Spin Energy      =      -1.1986737764389366 [Eh]
	 Correlation Energy        =      -1.5740080408899098 [Eh]
	 Total Energy              =    -686.0913352872172482 [Eh]

	 ================> DF-SCS-MP2 Energies <==================
	-----------------------------------------------------------
	 SCS Same-Spin Scale       =       0.3333333333333333 [-]
	 SCS Opposite-Spin Scale   =       1.2000000000000000 [-]
	 SCS Same-Spin Energy      =      -0.1251114214836578 [Eh]
	 SCS Opposite-Spin Energy  =      -1.4384085317267239 [Eh]
	 SCS Correlation Energy    =      -1.5635199532103816 [Eh]
	 SCS Total Energy          =    -686.0808471995377431 [Eh]
	-----------------------------------------------------------

  Dipole Moment: [D]
     X:     0.4468      Y:    -1.0331      Z:    -0.0000     Total:     1.1256

*** Psi4 exiting successfully. Buy a developer a beer!
