                               Psi4 1.4a3.dev225

  ==> Input File <==

--------------------------------------------------------------------------
#psi4
#
memory 32 gb

molecule  {
0 1
  S        1.2258560    -1.1625810    -0.0000180
  N        0.3264180     1.2510610     0.0000150
  C       -1.5198050    -0.4073720    -0.0000100
  C       -0.0728400    -0.0059560    -0.0000040
  C       -2.1158081     0.0483071    -1.0992249
  C       -2.2053680     0.1167230     1.2644280
  C        2.3605110     0.1219000     0.0000040
  C        1.6961240     1.3252530     0.0000200
  H       -1.5697880    -1.5042720    -0.0000380
  H       -2.1392250     1.2073760    -1.2930360
  H       -3.2606770    -0.1742520    -1.2762350
  H       -1.7266260    -0.2804090    -2.1642060
  H       -1.7266100    -0.2805170     2.1641940
  H       -3.2606680    -0.1743180     1.2762400
  H       -2.1392170     1.2073110     1.2931010
  H        3.4272510    -0.0583780     0.0000030
  H        2.1774630     2.2973190     0.0000360
units angstrom
no_reorient  #important for SAPT in psi4, default
symmetry c1  #important for SAPT in psi4, default
}

set PROPERTIES_ORIGIN ["COM"]
properties('MP2/aug-cc-pvtz', properties = ['dipole'])
--------------------------------------------------------------------------

    Molecular point group: c1
  Charge       = 0
  Multiplicity = 1
  Basis Set: AUG-CC-PVTZ
    Blend: AUG-CC-PVTZ
  Basis Set: (AUG-CC-PVTZ AUX)
    Blend: AUG-CC-PVTZ-JKFIT

    Orbital Energies [Eh]
    ---------------------

    Doubly Occupied:

       1A    -91.995296     2A    -15.565418     3A    -11.311651
       4A    -11.269802     5A    -11.261602     6A    -11.240510
       7A    -11.230712     8A    -11.220604     9A     -8.995879
      10A     -6.676777    11A     -6.676273    12A     -6.675555
      13A     -1.277118    14A     -1.129862    15A     -1.062516
      16A     -0.985631    17A     -0.937334    18A     -0.831909
      19A     -0.794910    20A     -0.722680    21A     -0.688261
      22A     -0.644106    23A     -0.606236    24A     -0.597001
      25A     -0.566704    26A     -0.544591    27A     -0.524898
      28A     -0.519783    29A     -0.502327    30A     -0.464100
      31A     -0.453712    32A     -0.420616    33A     -0.387465
      34A     -0.329912

  @DF-RHF Final Energy:  -684.48394932029294

   => Energetics <=

    Nuclear Repulsion Energy =            441.1830879739173952
    One-Electron Energy =               -1813.1105753047108919
    Two-Electron Energy =                 687.4435380105006743
    Total Energy =                       -684.4839493202929361
  Basis Set: (AUG-CC-PVTZ AUX)
    Blend: AUG-CC-PVTZ-RI
    Molecular point group: c1

    Geometry (in Angstrom), charge = 0, multiplicity = 1:

       Center              X                  Y                   Z               Mass
    ------------   -----------------  -----------------  -----------------  -----------------
         S            1.137858256259    -1.138906230993    -0.015620678655    31.972071174400
         N            0.238420256259     1.274735769007    -0.015587678655    14.003074004430
         C           -1.607802743741    -0.383697230993    -0.015612678655    12.000000000000
         C           -0.160837743741     0.017718769007    -0.015606678655    12.000000000000
         C           -2.203805843741     0.071981869007    -1.114827578655    12.000000000000
         C           -2.293365743741     0.140397769007     1.248825321345    12.000000000000
         C            2.272513256259     0.145574769007    -0.015598678655    12.000000000000
         C            1.608126256259     1.348927769007    -0.015582678655    12.000000000000
         H           -1.657785743741    -1.480597230993    -0.015640678655     1.007825032230
         H           -2.227222743741     1.231050769007    -1.308638678655     1.007825032230
         H           -3.348674743741    -0.150577230993    -1.291837678655     1.007825032230
         H           -1.814623743741    -0.256734230993    -2.179808678655     1.007825032230
         H           -1.814607743741    -0.256842230993     2.148591321345     1.007825032230
         H           -3.348665743741    -0.150643230993     1.260637321345     1.007825032230
         H           -2.227214743741     1.230985769007     1.277498321345     1.007825032230
         H            3.339253256259    -0.034703230993    -0.015599678655     1.007825032230
         H            2.089465256259     2.320993769007    -0.015566678655     1.007825032230

  Basis Set: AUG-CC-PVTZ
    Blend: AUG-CC-PVTZ
  Basis Set: (AUG-CC-PVTZ AUX)
    Blend: AUG-CC-PVTZ-JKFIT
	 Reference Energy          =    -684.4839493202929361 [Eh]
	 Singles Energy            =      -0.0000000000000000 [Eh]
	 Same-Spin Energy          =      -0.3800054203242774 [Eh]
	 Opposite-Spin Energy      =      -1.2010993939110448 [Eh]
	 Correlation Energy        =      -1.5811048142353221 [Eh]
	 Total Energy              =    -686.0650541345282818 [Eh]

	 ================> DF-SCS-MP2 Energies <==================
	-----------------------------------------------------------
	 SCS Same-Spin Scale       =       0.3333333333333333 [-]
	 SCS Opposite-Spin Scale   =       1.2000000000000000 [-]
	 SCS Same-Spin Energy      =      -0.1266684734414258 [Eh]
	 SCS Opposite-Spin Energy  =      -1.4413192726932538 [Eh]
	 SCS Correlation Energy    =      -1.5679877461346796 [Eh]
	 SCS Total Energy          =    -686.0519370664276266 [Eh]
	-----------------------------------------------------------

  Dipole Moment: [D]
     X:     0.5931      Y:    -1.1326      Z:     0.0547     Total:     1.2797

*** Psi4 exiting successfully. Buy a developer a beer!
