                               Psi4 1.4a3.dev225

  ==> Input File <==

--------------------------------------------------------------------------
#psi4
#
memory 32 gb

molecule  {
0 1
  S        1.2258560    -1.1625810    -0.0000180
  N        0.3264180     1.2510610     0.0000150
  C       -1.5544807    -0.3792296     0.0293288
  C       -0.0728400    -0.0059560    -0.0000040
  C       -2.2053760     0.1167870    -1.2644160
  C       -2.2053680     0.1167230     1.2644280
  C        2.3605110     0.1219000     0.0000040
  C        1.6961240     1.3252530     0.0000200
  H       -1.5697880    -1.5042720    -0.0000380
  H       -2.1392250     1.2073760    -1.2930360
  H       -3.2606770    -0.1742520    -1.2762350
  H       -1.7266260    -0.2804090    -2.1642060
  H       -1.7266100    -0.2805170     2.1641940
  H       -3.2606680    -0.1743180     1.2762400
  H       -2.1392170     1.2073110     1.2931010
  H        3.4272510    -0.0583780     0.0000030
  H        2.1774630     2.2973190     0.0000360
units angstrom
no_reorient  #important for SAPT in psi4, default
symmetry c1  #important for SAPT in psi4, default
}

set PROPERTIES_ORIGIN ["COM"]
properties('MP2/aug-cc-pvtz', properties = ['dipole'])
--------------------------------------------------------------------------

    Molecular point group: c1
  Charge       = 0
  Multiplicity = 1
  Basis Set: AUG-CC-PVTZ
    Blend: AUG-CC-PVTZ
  Basis Set: (AUG-CC-PVTZ AUX)
    Blend: AUG-CC-PVTZ-JKFIT

    Orbital Energies [Eh]
    ---------------------

    Doubly Occupied:

       1A    -91.994464     2A    -15.563370     3A    -11.309915
       4A    -11.268546     5A    -11.260422     6A    -11.251457
       7A    -11.219382     8A    -11.217306     9A     -8.995001
      10A     -6.675897    11A     -6.675406    12A     -6.674683
      13A     -1.273980    14A     -1.097166    15A     -1.060887
      16A     -0.981776    17A     -0.940191    18A     -0.834228
      19A     -0.791523    20A     -0.715476    21A     -0.681583
      22A     -0.628873    23A     -0.603222    24A     -0.587004
      25A     -0.566892    26A     -0.546608    27A     -0.531908
      28A     -0.504528    29A     -0.500615    30A     -0.490869
      31A     -0.474356    32A     -0.421589    33A     -0.386800
      34A     -0.328459

  @DF-RHF Final Energy:  -684.53051207643875

   => Energetics <=

    Nuclear Repulsion Energy =            437.3938115387074390
    One-Electron Energy =               -1805.7398825523225696
    Two-Electron Energy =                 683.8155589371763199
    Total Energy =                       -684.5305120764387539
  Basis Set: (AUG-CC-PVTZ AUX)
    Blend: AUG-CC-PVTZ-RI
    Molecular point group: c1

    Geometry (in Angstrom), charge = 0, multiplicity = 1:

       Center              X                  Y                   Z               Mass
    ------------   -----------------  -----------------  -----------------  -----------------
         S            1.149593598109    -1.148032622379    -0.002788845211    31.972071174400
         N            0.250155598109     1.265609377621    -0.002755845211    14.003074004430
         C           -1.630743101891    -0.364681222379     0.026557954789    12.000000000000
         C           -0.149102401891     0.008592377621    -0.002774845211    12.000000000000
         C           -2.281638401891     0.131335377621    -1.267186845211    12.000000000000
         C           -2.281630401891     0.131271377621     1.261657154789    12.000000000000
         C            2.284248598109     0.136448377621    -0.002766845211    12.000000000000
         C            1.619861598109     1.339801377621    -0.002750845211    12.000000000000
         H           -1.646050401891    -1.489723622379    -0.002808845211     1.007825032230
         H           -2.215487401891     1.221924377621    -1.295806845211     1.007825032230
         H           -3.336939401891    -0.159703622379    -1.279005845211     1.007825032230
         H           -1.802888401891    -0.265860622379    -2.166976845211     1.007825032230
         H           -1.802872401891    -0.265968622379     2.161423154789     1.007825032230
         H           -3.336930401891    -0.159769622379     1.273469154789     1.007825032230
         H           -2.215479401891     1.221859377621     1.290330154789     1.007825032230
         H            3.350988598109    -0.043829622379    -0.002767845211     1.007825032230
         H            2.101200598109     2.311867377621    -0.002734845211     1.007825032230

  Basis Set: AUG-CC-PVTZ
    Blend: AUG-CC-PVTZ
  Basis Set: (AUG-CC-PVTZ AUX)
    Blend: AUG-CC-PVTZ-JKFIT
	 Reference Energy          =    -684.5305120764387539 [Eh]
	 Singles Energy            =      -0.0000000000000000 [Eh]
	 Same-Spin Energy          =      -0.3770154214630888 [Eh]
	 Opposite-Spin Energy      =      -1.1970124270214146 [Eh]
	 Correlation Energy        =      -1.5740278484845034 [Eh]
	 Total Energy              =    -686.1045399249233014 [Eh]

	 ================> DF-SCS-MP2 Energies <==================
	-----------------------------------------------------------
	 SCS Same-Spin Scale       =       0.3333333333333333 [-]
	 SCS Opposite-Spin Scale   =       1.2000000000000000 [-]
	 SCS Same-Spin Energy      =      -0.1256718071543629 [Eh]
	 SCS Opposite-Spin Energy  =      -1.4364149124256975 [Eh]
	 SCS Correlation Energy    =      -1.5620867195800605 [Eh]
	 SCS Total Energy          =    -686.0925987960188195 [Eh]
	-----------------------------------------------------------

  Dipole Moment: [D]
     X:     0.4985      Y:    -1.1251      Z:     0.0228     Total:     1.2308

*** Psi4 exiting successfully. Buy a developer a beer!
