                               Psi4 1.4a3.dev225

  ==> Input File <==

--------------------------------------------------------------------------
#psi4
#
memory 32 gb

molecule  {
0 1
  S        1.2258560    -1.1625810    -0.0000180
  N        0.3264180     1.2510610     0.0000150
  C       -1.5198050    -0.4073720    -0.0000100
  C       -0.0670235    -0.0303437    -0.0460321
  C       -2.2053760     0.1167870    -1.2644160
  C       -2.2053680     0.1167230     1.2644280
  C        2.3605110     0.1219000     0.0000040
  C        1.6961240     1.3252530     0.0000200
  H       -1.5697880    -1.5042720    -0.0000380
  H       -2.1392250     1.2073760    -1.2930360
  H       -3.2606770    -0.1742520    -1.2762350
  H       -1.7266260    -0.2804090    -2.1642060
  H       -1.7266100    -0.2805170     2.1641940
  H       -3.2606680    -0.1743180     1.2762400
  H       -2.1392170     1.2073110     1.2931010
  H        3.4272510    -0.0583780     0.0000030
  H        2.1774630     2.2973190     0.0000360
units angstrom
no_reorient  #important for SAPT in psi4, default
symmetry c1  #important for SAPT in psi4, default
}

set PROPERTIES_ORIGIN ["COM"]
properties('MP2/aug-cc-pvtz', properties = ['dipole'])
--------------------------------------------------------------------------

    Molecular point group: c1
  Charge       = 0
  Multiplicity = 1
  Basis Set: AUG-CC-PVTZ
    Blend: AUG-CC-PVTZ
  Basis Set: (AUG-CC-PVTZ AUX)
    Blend: AUG-CC-PVTZ-JKFIT

    Orbital Energies [Eh]
    ---------------------

    Doubly Occupied:

       1A    -91.996520     2A    -15.564492     3A    -11.310448
       4A    -11.268934     5A    -11.259552     6A    -11.249293
       7A    -11.219454     8A    -11.218670     9A     -8.997301
      10A     -6.678213    11A     -6.677710    12A     -6.677001
      13A     -1.269371    14A     -1.094069    15A     -1.061504
      16A     -0.981591    17A     -0.935385    18A     -0.840399
      19A     -0.790075    20A     -0.717873    21A     -0.681974
      22A     -0.625231    23A     -0.599902    24A     -0.585799
      25A     -0.566341    26A     -0.544841    27A     -0.531035
      28A     -0.504972    29A     -0.498403    30A     -0.486693
      31A     -0.482557    32A     -0.424567    33A     -0.385084
      34A     -0.327700

  @DF-RHF Final Energy:  -684.53082132569466

   => Energetics <=

    Nuclear Repulsion Energy =            437.5098999248228324
    One-Electron Energy =               -1805.9755295108543578
    Two-Electron Energy =                 683.9348082603369221
    Total Energy =                       -684.5308213256946601
  Basis Set: (AUG-CC-PVTZ AUX)
    Blend: AUG-CC-PVTZ-RI
    Molecular point group: c1

    Geometry (in Angstrom), charge = 0, multiplicity = 1:

       Center              X                  Y                   Z               Mass
    ------------   -----------------  -----------------  -----------------  -----------------
         S            1.145768935838    -1.143070928731     0.004329882319    31.972071174400
         N            0.246330935838     1.270571071269     0.004362882319    14.003074004430
         C           -1.599892064162    -0.387861928731     0.004337882319    12.000000000000
         C           -0.147110564162    -0.010833628731    -0.041684217681    12.000000000000
         C           -2.285463064162     0.136297071269    -1.260068117681    12.000000000000
         C           -2.285455064162     0.136233071269     1.268775882319    12.000000000000
         C            2.280423935838     0.141410071269     0.004351882319    12.000000000000
         C            1.616036935838     1.344763071269     0.004367882319    12.000000000000
         H           -1.649875064162    -1.484761928731     0.004309882319     1.007825032230
         H           -2.219312064162     1.226886071269    -1.288688117681     1.007825032230
         H           -3.340764064162    -0.154741928731    -1.271887117681     1.007825032230
         H           -1.806713064162    -0.260898928731    -2.159858117681     1.007825032230
         H           -1.806697064162    -0.261006928731     2.168541882319     1.007825032230
         H           -3.340755064162    -0.154807928731     1.280587882319     1.007825032230
         H           -2.219304064162     1.226821071269     1.297448882319     1.007825032230
         H            3.347163935838    -0.038867928731     0.004350882319     1.007825032230
         H            2.097375935838     2.316829071269     0.004383882319     1.007825032230

  Basis Set: AUG-CC-PVTZ
    Blend: AUG-CC-PVTZ
  Basis Set: (AUG-CC-PVTZ AUX)
    Blend: AUG-CC-PVTZ-JKFIT
	 Reference Energy          =    -684.5308213256946601 [Eh]
	 Singles Energy            =      -0.0000000000000000 [Eh]
	 Same-Spin Energy          =      -0.3775511343484044 [Eh]
	 Opposite-Spin Energy      =      -1.1976857968693890 [Eh]
	 Correlation Energy        =      -1.5752369312177934 [Eh]
	 Total Energy              =    -686.1060582569124335 [Eh]

	 ================> DF-SCS-MP2 Energies <==================
	-----------------------------------------------------------
	 SCS Same-Spin Scale       =       0.3333333333333333 [-]
	 SCS Opposite-Spin Scale   =       1.2000000000000000 [-]
	 SCS Same-Spin Energy      =      -0.1258503781161348 [Eh]
	 SCS Opposite-Spin Energy  =      -1.4372229562432668 [Eh]
	 SCS Correlation Energy    =      -1.5630733343594017 [Eh]
	 SCS Total Energy          =    -686.0938946600540476 [Eh]
	-----------------------------------------------------------

  Dipole Moment: [D]
     X:     0.5633      Y:    -1.2030      Z:     0.0305     Total:     1.3287

*** Psi4 exiting successfully. Buy a developer a beer!
