                               Psi4 1.4a3.dev225

  ==> Input File <==

--------------------------------------------------------------------------
#psi4
#
memory 32 gb

molecule  {
0 1
  S        1.2258560    -1.1625810    -0.0000180
  N        0.3264180     1.2510610     0.0000150
  C       -1.5198050    -0.4073720    -0.0000100
  C       -0.0728400    -0.0059560    -0.0000040
  C       -2.2156542     0.0663163    -1.2786366
  C       -2.2053680     0.1167230     1.2644280
  C        2.3605110     0.1219000     0.0000040
  C        1.6961240     1.3252530     0.0000200
  H       -1.5697880    -1.5042720    -0.0000380
  H       -2.1392250     1.2073760    -1.2930360
  H       -3.2606770    -0.1742520    -1.2762350
  H       -1.7266260    -0.2804090    -2.1642060
  H       -1.7266100    -0.2805170     2.1641940
  H       -3.2606680    -0.1743180     1.2762400
  H       -2.1392170     1.2073110     1.2931010
  H        3.4272510    -0.0583780     0.0000030
  H        2.1774630     2.2973190     0.0000360
units angstrom
no_reorient  #important for SAPT in psi4, default
symmetry c1  #important for SAPT in psi4, default
}

set PROPERTIES_ORIGIN ["COM"]
properties('MP2/aug-cc-pvtz', properties = ['dipole'])
--------------------------------------------------------------------------

    Molecular point group: c1
  Charge       = 0
  Multiplicity = 1
  Basis Set: AUG-CC-PVTZ
    Blend: AUG-CC-PVTZ
  Basis Set: (AUG-CC-PVTZ AUX)
    Blend: AUG-CC-PVTZ-JKFIT

    Orbital Energies [Eh]
    ---------------------

    Doubly Occupied:

       1A    -91.994148     2A    -15.564158     3A    -11.310147
       4A    -11.268909     5A    -11.260643     6A    -11.249423
       7A    -11.219653     8A    -11.219590     9A     -8.994770
      10A     -6.675668    11A     -6.675160    12A     -6.674446
      13A     -1.274731    14A     -1.094129    15A     -1.061314
      16A     -0.981025    17A     -0.936701    18A     -0.840006
      19A     -0.792627    20A     -0.716577    21A     -0.682737
      22A     -0.625195    23A     -0.605315    24A     -0.588782
      25A     -0.567599    26A     -0.540734    27A     -0.531189
      28A     -0.503597    29A     -0.501698    30A     -0.492447
      31A     -0.474434    32A     -0.421897    33A     -0.386901
      34A     -0.328209

  @DF-RHF Final Energy:  -684.53066903586239

   => Energetics <=

    Nuclear Repulsion Energy =            437.3249854095375895
    One-Electron Energy =               -1805.6021949060011593
    Two-Electron Energy =                 683.7465404606010679
    Total Energy =                       -684.5306690358623882
  Basis Set: (AUG-CC-PVTZ AUX)
    Blend: AUG-CC-PVTZ-RI
    Molecular point group: c1

    Geometry (in Angstrom), charge = 0, multiplicity = 1:

       Center              X                  Y                   Z               Mass
    ------------   -----------------  -----------------  -----------------  -----------------
         S            1.147289149407    -1.140607277312     0.001325527278    31.972071174400
         N            0.247851149407     1.273034722688     0.001358527278    14.003074004430
         C           -1.598371850593    -0.385398277312     0.001333527278    12.000000000000
         C           -0.151406850593     0.016017722688     0.001339527278    12.000000000000
         C           -2.294221050593     0.088290022688    -1.277293072722    12.000000000000
         C           -2.283934850593     0.138696722688     1.265771527278    12.000000000000
         C            2.281944149407     0.143873722688     0.001347527278    12.000000000000
         C            1.617557149407     1.347226722688     0.001363527278    12.000000000000
         H           -1.648354850593    -1.482298277312     0.001305527278     1.007825032230
         H           -2.217791850593     1.229349722688    -1.291692472722     1.007825032230
         H           -3.339243850593    -0.152278277312    -1.274891472722     1.007825032230
         H           -1.805192850593    -0.258435277312    -2.162862472722     1.007825032230
         H           -1.805176850593    -0.258543277312     2.165537527278     1.007825032230
         H           -3.339234850593    -0.152344277312     1.277583527278     1.007825032230
         H           -2.217783850593     1.229284722688     1.294444527278     1.007825032230
         H            3.348684149407    -0.036404277312     0.001346527278     1.007825032230
         H            2.098896149407     2.319292722688     0.001379527278     1.007825032230

  Basis Set: AUG-CC-PVTZ
    Blend: AUG-CC-PVTZ
  Basis Set: (AUG-CC-PVTZ AUX)
    Blend: AUG-CC-PVTZ-JKFIT
	 Reference Energy          =    -684.5306690358623882 [Eh]
	 Singles Energy            =      -0.0000000000000000 [Eh]
	 Same-Spin Energy          =      -0.3769521240305880 [Eh]
	 Opposite-Spin Energy      =      -1.1969363899414507 [Eh]
	 Correlation Energy        =      -1.5738885139720387 [Eh]
	 Total Energy              =    -686.1045575498344533 [Eh]

	 ================> DF-SCS-MP2 Energies <==================
	-----------------------------------------------------------
	 SCS Same-Spin Scale       =       0.3333333333333333 [-]
	 SCS Opposite-Spin Scale   =       1.2000000000000000 [-]
	 SCS Same-Spin Energy      =      -0.1256507080101960 [Eh]
	 SCS Opposite-Spin Energy  =      -1.4363236679297409 [Eh]
	 SCS Correlation Energy    =      -1.5619743759399369 [Eh]
	 SCS Total Energy          =    -686.0926434118023280 [Eh]
	-----------------------------------------------------------

  Dipole Moment: [D]
     X:     0.5034      Y:    -1.1605      Z:     0.0006     Total:     1.2649

*** Psi4 exiting successfully. Buy a developer a beer!
