                               Psi4 1.4a3.dev225

  ==> Input File <==

--------------------------------------------------------------------------
#psi4
#
memory 32 gb

molecule  {
0 1
  S        1.2258560    -1.1625810    -0.0000180
  N        0.3264180     1.2510610     0.0000150
  C       -1.5198050    -0.4073720    -0.0000100
  C       -0.0607053    -0.0804669    -0.1378641
  C       -2.2053760     0.1167870    -1.2644160
  C       -2.2053680     0.1167230     1.2644280
  C        2.3605110     0.1219000     0.0000040
  C        1.6961240     1.3252530     0.0000200
  H       -1.5697880    -1.5042720    -0.0000380
  H       -2.1392250     1.2073760    -1.2930360
  H       -3.2606770    -0.1742520    -1.2762350
  H       -1.7266260    -0.2804090    -2.1642060
  H       -1.7266100    -0.2805170     2.1641940
  H       -3.2606680    -0.1743180     1.2762400
  H       -2.1392170     1.2073110     1.2931010
  H        3.4272510    -0.0583780     0.0000030
  H        2.1774630     2.2973190     0.0000360
units angstrom
no_reorient  #important for SAPT in psi4, default
symmetry c1  #important for SAPT in psi4, default
}

set PROPERTIES_ORIGIN ["COM"]
properties('MP2/aug-cc-pvtz', properties = ['dipole'])
--------------------------------------------------------------------------

    Molecular point group: c1
  Charge       = 0
  Multiplicity = 1
  Basis Set: AUG-CC-PVTZ
    Blend: AUG-CC-PVTZ
  Basis Set: (AUG-CC-PVTZ AUX)
    Blend: AUG-CC-PVTZ-JKFIT

    Orbital Energies [Eh]
    ---------------------

    Doubly Occupied:

       1A    -92.001456     2A    -15.566760     3A    -11.312021
       4A    -11.269325     5A    -11.258524     6A    -11.249248
       7A    -11.219919     8A    -11.217337     9A     -9.002421
      10A     -6.683367    11A     -6.682823    12A     -6.682161
      13A     -1.258272    14A     -1.093514    15A     -1.061754
      16A     -0.982002    17A     -0.934810    18A     -0.840915
      19A     -0.783993    20A     -0.720405    21A     -0.679682
      22A     -0.625085    23A     -0.597939    24A     -0.583929
      25A     -0.562977    26A     -0.543626    27A     -0.531202
      28A     -0.506030    29A     -0.497999    30A     -0.484565
      31A     -0.479202    32A     -0.427596    33A     -0.381376
      34A     -0.326536

  @DF-RHF Final Energy:  -684.51680224241863

   => Energetics <=

    Nuclear Repulsion Energy =            437.2663969691757302
    One-Electron Energy =               -1805.4688618093773584
    Two-Electron Energy =                 683.6856625977829935
    Total Energy =                       -684.5168022424186347
  Basis Set: (AUG-CC-PVTZ AUX)
    Blend: AUG-CC-PVTZ-RI
    Molecular point group: c1

    Geometry (in Angstrom), charge = 0, multiplicity = 1:

       Center              X                  Y                   Z               Mass
    ------------   -----------------  -----------------  -----------------  -----------------
         S            1.145172154701    -1.138336577130     0.013003809288    31.972071174400
         N            0.245734154701     1.275305422870     0.013036809288    14.003074004430
         C           -1.600488845299    -0.383127577130     0.013011809288    12.000000000000
         C           -0.141389145299    -0.056222477130    -0.124842290712    12.000000000000
         C           -2.286059845299     0.141031422870    -1.251394190712    12.000000000000
         C           -2.286051845299     0.140967422870     1.277449809288    12.000000000000
         C            2.279827154701     0.146144422870     0.013025809288    12.000000000000
         C            1.615440154701     1.349497422870     0.013041809288    12.000000000000
         H           -1.650471845299    -1.480027577130     0.012983809288     1.007825032230
         H           -2.219908845299     1.231620422870    -1.280014190712     1.007825032230
         H           -3.341360845299    -0.150007577130    -1.263213190712     1.007825032230
         H           -1.807309845299    -0.256164577130    -2.151184190712     1.007825032230
         H           -1.807293845299    -0.256272577130     2.177215809288     1.007825032230
         H           -3.341351845299    -0.150073577130     1.289261809288     1.007825032230
         H           -2.219900845299     1.231555422870     1.306122809288     1.007825032230
         H            3.346567154701    -0.034133577130     0.013024809288     1.007825032230
         H            2.096779154701     2.321563422870     0.013057809288     1.007825032230

  Basis Set: AUG-CC-PVTZ
    Blend: AUG-CC-PVTZ
  Basis Set: (AUG-CC-PVTZ AUX)
    Blend: AUG-CC-PVTZ-JKFIT
	 Reference Energy          =    -684.5168022424186347 [Eh]
	 Singles Energy            =      -0.0000000000000000 [Eh]
	 Same-Spin Energy          =      -0.3794069780507371 [Eh]
	 Opposite-Spin Energy      =      -1.2006189145332875 [Eh]
	 Correlation Energy        =      -1.5800258925840245 [Eh]
	 Total Energy              =    -686.0968281350026245 [Eh]

	 ================> DF-SCS-MP2 Energies <==================
	-----------------------------------------------------------
	 SCS Same-Spin Scale       =       0.3333333333333333 [-]
	 SCS Opposite-Spin Scale   =       1.2000000000000000 [-]
	 SCS Same-Spin Energy      =      -0.1264689926835790 [Eh]
	 SCS Opposite-Spin Energy  =      -1.4407426974399449 [Eh]
	 SCS Correlation Energy    =      -1.5672116901235238 [Eh]
	 SCS Total Energy          =    -686.0840139325421205 [Eh]
	-----------------------------------------------------------

  Dipole Moment: [D]
     X:     0.7077      Y:    -1.2706      Z:     0.1031     Total:     1.4580

*** Psi4 exiting successfully. Buy a developer a beer!
