                               Psi4 1.4a3.dev225

  ==> Input File <==

--------------------------------------------------------------------------
#psi4
#
memory 32 gb

molecule  {
0 1
  S        1.2258560    -1.1625810    -0.0000180
  N        0.3264180     1.2510610     0.0000150
  C       -1.5198050    -0.4073720    -0.0000100
  C       -0.0897531     0.0413278    -0.0920016
  C       -2.2053760     0.1167870    -1.2644160
  C       -2.2053680     0.1167230     1.2644280
  C        2.3605110     0.1219000     0.0000040
  C        1.6961240     1.3252530     0.0000200
  H       -1.5697880    -1.5042720    -0.0000380
  H       -2.1392250     1.2073760    -1.2930360
  H       -3.2606770    -0.1742520    -1.2762350
  H       -1.7266260    -0.2804090    -2.1642060
  H       -1.7266100    -0.2805170     2.1641940
  H       -3.2606680    -0.1743180     1.2762400
  H       -2.1392170     1.2073110     1.2931010
  H        3.4272510    -0.0583780     0.0000030
  H        2.1774630     2.2973190     0.0000360
units angstrom
no_reorient  #important for SAPT in psi4, default
symmetry c1  #important for SAPT in psi4, default
}

set PROPERTIES_ORIGIN ["COM"]
properties('MP2/aug-cc-pvtz', properties = ['dipole'])
--------------------------------------------------------------------------

    Molecular point group: c1
  Charge       = 0
  Multiplicity = 1
  Basis Set: AUG-CC-PVTZ
    Blend: AUG-CC-PVTZ
  Basis Set: (AUG-CC-PVTZ AUX)
    Blend: AUG-CC-PVTZ-JKFIT

    Orbital Energies [Eh]
    ---------------------

    Doubly Occupied:

       1A    -91.988592     2A    -15.564110     3A    -11.310092
       4A    -11.268967     5A    -11.262623     6A    -11.249911
       7A    -11.220557     8A    -11.219261     9A     -8.988909
      10A     -6.669795    11A     -6.669225    12A     -6.668529
      13A     -1.284158    14A     -1.095956    15A     -1.060203
      16A     -0.978335    17A     -0.936829    18A     -0.839563
      19A     -0.796692    20A     -0.713897    21A     -0.685167
      22A     -0.626365    23A     -0.606020    24A     -0.588770
      25A     -0.566957    26A     -0.547199    27A     -0.532404
      28A     -0.503990    29A     -0.500361    30A     -0.486633
      31A     -0.483644    32A     -0.415358    33A     -0.389775
      34A     -0.327214

  @DF-RHF Final Energy:  -684.53100997344700

   => Energetics <=

    Nuclear Repulsion Energy =            437.3658181348263270
    One-Electron Energy =               -1805.7015364806659363
    Two-Electron Energy =                 683.8047083723927244
    Total Energy =                       -684.5310099734469986
  Basis Set: (AUG-CC-PVTZ AUX)
    Blend: AUG-CC-PVTZ-RI
    Molecular point group: c1

    Geometry (in Angstrom), charge = 0, multiplicity = 1:

       Center              X                  Y                   Z               Mass
    ------------   -----------------  -----------------  -----------------  -----------------
         S            1.147915844219    -1.149840609853     0.008671899108    31.972071174400
         N            0.248477844219     1.263801390147     0.008704899108    14.003074004430
         C           -1.597745155781    -0.394631609853     0.008679899108    12.000000000000
         C           -0.167693255781     0.054068190147    -0.083311700892    12.000000000000
         C           -2.283316155781     0.129527390147    -1.255726100892    12.000000000000
         C           -2.283308155781     0.129463390147     1.273117899108    12.000000000000
         C            2.282570844219     0.134640390147     0.008693899108    12.000000000000
         C            1.618183844219     1.337993390147     0.008709899108    12.000000000000
         H           -1.647728155781    -1.491531609853     0.008651899108     1.007825032230
         H           -2.217165155781     1.220116390147    -1.284346100892     1.007825032230
         H           -3.338617155781    -0.161511609853    -1.267545100892     1.007825032230
         H           -1.804566155781    -0.267668609853    -2.155516100892     1.007825032230
         H           -1.804550155781    -0.267776609853     2.172883899108     1.007825032230
         H           -3.338608155781    -0.161577609853     1.284929899108     1.007825032230
         H           -2.217157155781     1.220051390147     1.301790899108     1.007825032230
         H            3.349310844219    -0.045637609853     0.008692899108     1.007825032230
         H            2.099522844219     2.310059390147     0.008725899108     1.007825032230

  Basis Set: AUG-CC-PVTZ
    Blend: AUG-CC-PVTZ
  Basis Set: (AUG-CC-PVTZ AUX)
    Blend: AUG-CC-PVTZ-JKFIT
	 Reference Energy          =    -684.5310099734469986 [Eh]
	 Singles Energy            =      -0.0000000000000000 [Eh]
	 Same-Spin Energy          =      -0.3761554651770058 [Eh]
	 Opposite-Spin Energy      =      -1.1962042629754404 [Eh]
	 Correlation Energy        =      -1.5723597281524462 [Eh]
	 Total Energy              =    -686.1033697015994903 [Eh]

	 ================> DF-SCS-MP2 Energies <==================
	-----------------------------------------------------------
	 SCS Same-Spin Scale       =       0.3333333333333333 [-]
	 SCS Opposite-Spin Scale   =       1.2000000000000000 [-]
	 SCS Same-Spin Energy      =      -0.1253851550590019 [Eh]
	 SCS Opposite-Spin Energy  =      -1.4354451155705283 [Eh]
	 SCS Correlation Energy    =      -1.5608302706295303 [Eh]
	 SCS Total Energy          =    -686.0918402440764794 [Eh]
	-----------------------------------------------------------

  Dipole Moment: [D]
     X:     0.3556      Y:    -0.9839      Z:     0.0496     Total:     1.0473

*** Psi4 exiting successfully. Buy a developer a beer!
