                               Psi4 1.4a3.dev225

  ==> Input File <==

--------------------------------------------------------------------------
#psi4
#
memory 32 gb

molecule  {
0 1
  S        1.2054723    -1.1850702    -0.0000184
  N        0.3264180     1.2510610     0.0000150
  C       -1.5198050    -0.4073720    -0.0000100
  C       -0.0728400    -0.0059560    -0.0000040
  C       -2.2053760     0.1167870    -1.2644160
  C       -2.2053680     0.1167230     1.2644280
  C        2.3605110     0.1219000     0.0000040
  C        1.6961240     1.3252530     0.0000200
  H       -1.5697880    -1.5042720    -0.0000380
  H       -2.1392250     1.2073760    -1.2930360
  H       -3.2606770    -0.1742520    -1.2762350
  H       -1.7266260    -0.2804090    -2.1642060
  H       -1.7266100    -0.2805170     2.1641940
  H       -3.2606680    -0.1743180     1.2762400
  H       -2.1392170     1.2073110     1.2931010
  H        3.4272510    -0.0583780     0.0000030
  H        2.1774630     2.2973190     0.0000360
units angstrom
no_reorient  #important for SAPT in psi4, default
symmetry c1  #important for SAPT in psi4, default
}

set PROPERTIES_ORIGIN ["COM"]
properties('MP2/aug-cc-pvtz', properties = ['dipole'])
--------------------------------------------------------------------------

    Molecular point group: c1
  Charge       = 0
  Multiplicity = 1
  Basis Set: AUG-CC-PVTZ
    Blend: AUG-CC-PVTZ
  Basis Set: (AUG-CC-PVTZ AUX)
    Blend: AUG-CC-PVTZ-JKFIT

    Orbital Energies [Eh]
    ---------------------

    Doubly Occupied:

       1A    -91.995049     2A    -15.563808     3A    -11.311242
       4A    -11.270026     5A    -11.262678     6A    -11.249176
       7A    -11.219370     8A    -11.219355     9A     -8.995074
      10A     -6.675961    11A     -6.675389    12A     -6.674737
      13A     -1.273443    14A     -1.094589    15A     -1.055767
      16A     -0.981797    17A     -0.935832    18A     -0.839972
      19A     -0.793670    20A     -0.714192    21A     -0.682629
      22A     -0.625023    23A     -0.601340    24A     -0.586388
      25A     -0.567058    26A     -0.545289    27A     -0.530295
      28A     -0.504541    29A     -0.498021    30A     -0.487129
      31A     -0.482261    32A     -0.422292    33A     -0.385819
      34A     -0.329077

  @DF-RHF Final Energy:  -684.53302064935201

   => Energetics <=

    Nuclear Repulsion Energy =            436.8373881870522837
    One-Electron Energy =               -1804.6442457310483860
    Two-Electron Energy =                 683.2738368946440914
    Total Energy =                       -684.5330206493520109
  Basis Set: (AUG-CC-PVTZ AUX)
    Blend: AUG-CC-PVTZ-RI
    Molecular point group: c1

    Geometry (in Angstrom), charge = 0, multiplicity = 1:

       Center              X                  Y                   Z               Mass
    ------------   -----------------  -----------------  -----------------  -----------------
         S            1.131064356366    -1.162204058138    -0.000017968829    31.972071174400
         N            0.252010056366     1.273927141862     0.000015431171    14.003074004430
         C           -1.594212943634    -0.384505858138    -0.000009568829    12.000000000000
         C           -0.147247943634     0.016910141862    -0.000003568829    12.000000000000
         C           -2.279783943634     0.139653141862    -1.264415568829    12.000000000000
         C           -2.279775943634     0.139589141862     1.264428431171    12.000000000000
         C            2.286103056366     0.144766141862     0.000004431171    12.000000000000
         C            1.621716056366     1.348119141862     0.000020431171    12.000000000000
         H           -1.644195943634    -1.481405858138    -0.000037568829     1.007825032230
         H           -2.213632943634     1.230242141862    -1.293035568829     1.007825032230
         H           -3.335084943634    -0.151385858138    -1.276234568829     1.007825032230
         H           -1.801033943634    -0.257542858138    -2.164205568829     1.007825032230
         H           -1.801017943634    -0.257650858138     2.164194431171     1.007825032230
         H           -3.335075943634    -0.151451858138     1.276240431171     1.007825032230
         H           -2.213624943634     1.230177141862     1.293101431171     1.007825032230
         H            3.352843056366    -0.035511858138     0.000003431171     1.007825032230
         H            2.103055056366     2.320185141862     0.000036431171     1.007825032230

  Basis Set: AUG-CC-PVTZ
    Blend: AUG-CC-PVTZ
  Basis Set: (AUG-CC-PVTZ AUX)
    Blend: AUG-CC-PVTZ-JKFIT
	 Reference Energy          =    -684.5330206493520109 [Eh]
	 Singles Energy            =      -0.0000000000000000 [Eh]
	 Same-Spin Energy          =      -0.3765356114887400 [Eh]
	 Opposite-Spin Energy      =      -1.1969842226732552 [Eh]
	 Correlation Energy        =      -1.5735198341619951 [Eh]
	 Total Energy              =    -686.1065404835139816 [Eh]

	 ================> DF-SCS-MP2 Energies <==================
	-----------------------------------------------------------
	 SCS Same-Spin Scale       =       0.3333333333333333 [-]
	 SCS Opposite-Spin Scale   =       1.2000000000000000 [-]
	 SCS Same-Spin Energy      =      -0.1255118704962467 [Eh]
	 SCS Opposite-Spin Energy  =      -1.4363810672079063 [Eh]
	 SCS Correlation Energy    =      -1.5618929377041528 [Eh]
	 SCS Total Energy          =    -686.0949135870561122 [Eh]
	-----------------------------------------------------------

  Dipole Moment: [D]
     X:     0.4809      Y:    -1.1290      Z:    -0.0000     Total:     1.2271

*** Psi4 exiting successfully. Buy a developer a beer!
