                               Psi4 1.4a3.dev225

  ==> Input File <==

--------------------------------------------------------------------------
#psi4
#
memory 32 gb

molecule  {
0 1
  S        1.2258560    -1.1625810    -0.0000180
  N        0.3264180     1.2510610     0.0000150
  C       -1.5198050    -0.4073720    -0.0000100
  C       -0.1008279     0.0641569     0.1378560
  C       -2.2053760     0.1167870    -1.2644160
  C       -2.2053680     0.1167230     1.2644280
  C        2.3605110     0.1219000     0.0000040
  C        1.6961240     1.3252530     0.0000200
  H       -1.5697880    -1.5042720    -0.0000380
  H       -2.1392250     1.2073760    -1.2930360
  H       -3.2606770    -0.1742520    -1.2762350
  H       -1.7266260    -0.2804090    -2.1642060
  H       -1.7266100    -0.2805170     2.1641940
  H       -3.2606680    -0.1743180     1.2762400
  H       -2.1392170     1.2073110     1.2931010
  H        3.4272510    -0.0583780     0.0000030
  H        2.1774630     2.2973190     0.0000360
units angstrom
no_reorient  #important for SAPT in psi4, default
symmetry c1  #important for SAPT in psi4, default
}

set PROPERTIES_ORIGIN ["COM"]
properties('MP2/aug-cc-pvtz', properties = ['dipole'])
--------------------------------------------------------------------------

    Molecular point group: c1
  Charge       = 0
  Multiplicity = 1
  Basis Set: AUG-CC-PVTZ
    Blend: AUG-CC-PVTZ
  Basis Set: (AUG-CC-PVTZ AUX)
    Blend: AUG-CC-PVTZ-JKFIT

    Orbital Energies [Eh]
    ---------------------

    Doubly Occupied:

       1A    -91.985790     2A    -15.565043     3A    -11.310751
       4A    -11.269109     5A    -11.263900     6A    -11.250331
       7A    -11.221176     8A    -11.219382     9A     -8.985948
      10A     -6.666828    11A     -6.666213    12A     -6.665532
      13A     -1.288016    14A     -1.096898    15A     -1.059604
      16A     -0.976651    17A     -0.937498    18A     -0.839253
      19A     -0.798154    20A     -0.712638    21A     -0.686065
      22A     -0.627112    23A     -0.608484    24A     -0.589686
      25A     -0.566212    26A     -0.548121    27A     -0.533220
      28A     -0.505092    29A     -0.499719    30A     -0.485450
      31A     -0.483716    32A     -0.411369    33A     -0.390676
      34A     -0.326534

  @DF-RHF Final Energy:  -684.52581034103241

   => Energetics <=

    Nuclear Repulsion Energy =            437.1800736703545454
    One-Electron Energy =               -1805.3314340739075305
    Two-Electron Energy =                 683.6255500625206878
    Total Energy =                       -684.5258103410324111
  Basis Set: (AUG-CC-PVTZ AUX)
    Blend: AUG-CC-PVTZ-RI
    Molecular point group: c1

    Geometry (in Angstrom), charge = 0, multiplicity = 1:

       Center              X                  Y                   Z               Mass
    ------------   -----------------  -----------------  -----------------  -----------------
         S            1.148961906664    -1.151996916436    -0.013039138828    31.972071174400
         N            0.249523906664     1.261645083564    -0.013006138828    14.003074004430
         C           -1.596699093336    -0.396787916436    -0.013031138828    12.000000000000
         C           -0.177721993336     0.074740983564     0.124834861172    12.000000000000
         C           -2.282270093336     0.127371083564    -1.277437138828    12.000000000000
         C           -2.282262093336     0.127307083564     1.251406861172    12.000000000000
         C            2.283616906664     0.132484083564    -0.013017138828    12.000000000000
         C            1.619229906664     1.335837083564    -0.013001138828    12.000000000000
         H           -1.646682093336    -1.493687916436    -0.013059138828     1.007825032230
         H           -2.216119093336     1.217960083564    -1.306057138828     1.007825032230
         H           -3.337571093336    -0.163667916436    -1.289256138828     1.007825032230
         H           -1.803520093336    -0.269824916436    -2.177227138828     1.007825032230
         H           -1.803504093336    -0.269932916436     2.151172861172     1.007825032230
         H           -3.337562093336    -0.163733916436     1.263218861172     1.007825032230
         H           -2.216111093336     1.217895083564     1.280079861172     1.007825032230
         H            3.350356906664    -0.047793916436    -0.013018138828     1.007825032230
         H            2.100568906664     2.307903083564    -0.012985138828     1.007825032230

  Basis Set: AUG-CC-PVTZ
    Blend: AUG-CC-PVTZ
  Basis Set: (AUG-CC-PVTZ AUX)
    Blend: AUG-CC-PVTZ-JKFIT
	 Reference Energy          =    -684.5258103410324111 [Eh]
	 Singles Energy            =      -0.0000000000000000 [Eh]
	 Same-Spin Energy          =      -0.3760974040093688 [Eh]
	 Opposite-Spin Energy      =      -1.1964983459097511 [Eh]
	 Correlation Energy        =      -1.5725957499191199 [Eh]
	 Total Energy              =    -686.0984060909515847 [Eh]

	 ================> DF-SCS-MP2 Energies <==================
	-----------------------------------------------------------
	 SCS Same-Spin Scale       =       0.3333333333333333 [-]
	 SCS Opposite-Spin Scale   =       1.2000000000000000 [-]
	 SCS Same-Spin Energy      =      -0.1253658013364563 [Eh]
	 SCS Opposite-Spin Energy  =      -1.4357980150917014 [Eh]
	 SCS Correlation Energy    =      -1.5611638164281576 [Eh]
	 SCS Total Energy          =    -686.0869741574605314 [Eh]
	-----------------------------------------------------------

  Dipole Moment: [D]
     X:     0.2863      Y:    -0.8841      Z:    -0.0691     Total:     0.9319

*** Psi4 exiting successfully. Buy a developer a beer!
