                               Psi4 1.4a3.dev225

  ==> Input File <==

--------------------------------------------------------------------------
#psi4
#
memory 32 gb

molecule  {
0 1
  S        1.2258560    -1.1625810    -0.0000180
  N        0.3264180     1.2510610     0.0000150
  C       -1.5198050    -0.4073720    -0.0000100
  C       -0.0728400    -0.0059560    -0.0000040
  C       -2.2053760     0.1167870    -1.2644160
  C       -2.2053680     0.1167230     1.2644280
  C        2.3605110     0.1219000     0.0000040
  C        1.6961240     1.3252530     0.0000200
  H       -1.5697880    -1.5042720    -0.0000380
  H       -2.1392250     1.2073760    -1.2930360
  H       -3.2124793    -0.1609597    -1.2756952
  H       -1.7266260    -0.2804090    -2.1642060
  H       -1.7266100    -0.2805170     2.1641940
  H       -3.2606680    -0.1743180     1.2762400
  H       -2.1392170     1.2073110     1.2931010
  H        3.4272510    -0.0583780     0.0000030
  H        2.1774630     2.2973190     0.0000360
units angstrom
no_reorient  #important for SAPT in psi4, default
symmetry c1  #important for SAPT in psi4, default
}

set PROPERTIES_ORIGIN ["COM"]
properties('MP2/aug-cc-pvtz', properties = ['dipole'])
--------------------------------------------------------------------------

    Molecular point group: c1
  Charge       = 0
  Multiplicity = 1
  Basis Set: AUG-CC-PVTZ
    Blend: AUG-CC-PVTZ
  Basis Set: (AUG-CC-PVTZ AUX)
    Blend: AUG-CC-PVTZ-JKFIT

    Orbital Energies [Eh]
    ---------------------

    Doubly Occupied:

       1A    -91.993647     2A    -15.563517     3A    -11.309651
       4A    -11.268617     5A    -11.260100     6A    -11.248984
       7A    -11.219341     8A    -11.213094     9A     -8.994289
      10A     -6.675190    11A     -6.674681    12A     -6.673967
      13A     -1.274356    14A     -1.095020    15A     -1.060880
      16A     -0.981331    17A     -0.938646    18A     -0.841900
      19A     -0.792350    20A     -0.716380    21A     -0.682969
      22A     -0.625961    23A     -0.603214    24A     -0.589056
      25A     -0.566957    26A     -0.545460    27A     -0.534664
      28A     -0.503913    29A     -0.501224    30A     -0.487020
      31A     -0.482842    32A     -0.421792    33A     -0.386603
      34A     -0.327550

  @DF-RHF Final Energy:  -684.53269806787694

   => Energetics <=

    Nuclear Repulsion Energy =            437.7716971587027501
    One-Electron Energy =               -1806.4984553902465905
    Two-Electron Energy =                 684.1940601636670181
    Total Energy =                       -684.5326980678769360
  Basis Set: (AUG-CC-PVTZ AUX)
    Blend: AUG-CC-PVTZ-RI
    Molecular point group: c1

    Geometry (in Angstrom), charge = 0, multiplicity = 1:

       Center              X                  Y                   Z               Mass
    ------------   -----------------  -----------------  -----------------  -----------------
         S            1.145935987325    -1.145479896722    -0.000021951609    31.972071174400
         N            0.246497987325     1.268162103278     0.000011048391    14.003074004430
         C           -1.599725012675    -0.390270896722    -0.000013951609    12.000000000000
         C           -0.152760012675     0.011145103278    -0.000007951609    12.000000000000
         C           -2.285296012675     0.133888103278    -1.264419951609    12.000000000000
         C           -2.285288012675     0.133824103278     1.264424048391    12.000000000000
         C            2.280590987325     0.139001103278     0.000000048391    12.000000000000
         C            1.616203987325     1.342354103278     0.000016048391    12.000000000000
         H           -1.649708012675    -1.487170896722    -0.000041951609     1.007825032230
         H           -2.219145012675     1.224477103278    -1.293039951609     1.007825032230
         H           -3.292399312675    -0.143858596722    -1.275699151609     1.007825032230
         H           -1.806546012675    -0.263307896722    -2.164209951609     1.007825032230
         H           -1.806530012675    -0.263415896722     2.164190048391     1.007825032230
         H           -3.340588012675    -0.157216896722     1.276236048391     1.007825032230
         H           -2.219137012675     1.224412103278     1.293097048391     1.007825032230
         H            3.347330987325    -0.041276896722    -0.000000951609     1.007825032230
         H            2.097542987325     2.314420103278     0.000032048391     1.007825032230

  Basis Set: AUG-CC-PVTZ
    Blend: AUG-CC-PVTZ
  Basis Set: (AUG-CC-PVTZ AUX)
    Blend: AUG-CC-PVTZ-JKFIT
	 Reference Energy          =    -684.5326980678769360 [Eh]
	 Singles Energy            =      -0.0000000000000000 [Eh]
	 Same-Spin Energy          =      -0.3768907009529474 [Eh]
	 Opposite-Spin Energy      =      -1.1965130565731785 [Eh]
	 Correlation Energy        =      -1.5734037575261259 [Eh]
	 Total Energy              =    -686.1061018254030159 [Eh]

	 ================> DF-SCS-MP2 Energies <==================
	-----------------------------------------------------------
	 SCS Same-Spin Scale       =       0.3333333333333333 [-]
	 SCS Opposite-Spin Scale   =       1.2000000000000000 [-]
	 SCS Same-Spin Energy      =      -0.1256302336509824 [Eh]
	 SCS Opposite-Spin Energy  =      -1.4358156678878142 [Eh]
	 SCS Correlation Energy    =      -1.5614459015387967 [Eh]
	 SCS Total Energy          =    -686.0941439694157680 [Eh]
	-----------------------------------------------------------

  Dipole Moment: [D]
     X:     0.4534      Y:    -1.1501      Z:    -0.0080     Total:     1.2362

*** Psi4 exiting successfully. Buy a developer a beer!
