                               Psi4 1.4a3.dev225

  ==> Input File <==

--------------------------------------------------------------------------
#psi4
#
memory 32 gb

molecule  {
0 1
  S        1.2258560    -1.1625810    -0.0000180
  N        0.3264180     1.2510610     0.0000150
  C       -1.5594233    -0.5544812     0.0496375
  C       -0.0728400    -0.0059560    -0.0000040
  C       -2.2053760     0.1167870    -1.2644160
  C       -2.2053680     0.1167230     1.2644280
  C        2.3605110     0.1219000     0.0000040
  C        1.6961240     1.3252530     0.0000200
  H       -1.5697880    -1.5042720    -0.0000380
  H       -2.1392250     1.2073760    -1.2930360
  H       -3.2606770    -0.1742520    -1.2762350
  H       -1.7266260    -0.2804090    -2.1642060
  H       -1.7266100    -0.2805170     2.1641940
  H       -3.2606680    -0.1743180     1.2762400
  H       -2.1392170     1.2073110     1.2931010
  H        3.4272510    -0.0583780     0.0000030
  H        2.1774630     2.2973190     0.0000360
units angstrom
no_reorient  #important for SAPT in psi4, default
symmetry c1  #important for SAPT in psi4, default
}

set PROPERTIES_ORIGIN ["COM"]
properties('MP2/aug-cc-pvtz', properties = ['dipole'])
--------------------------------------------------------------------------

    Molecular point group: c1
  Charge       = 0
  Multiplicity = 1
  Basis Set: AUG-CC-PVTZ
    Blend: AUG-CC-PVTZ
  Basis Set: (AUG-CC-PVTZ AUX)
    Blend: AUG-CC-PVTZ-JKFIT

    Orbital Energies [Eh]
    ---------------------

    Doubly Occupied:

       1A    -91.989517     2A    -15.563680     3A    -11.313456
       4A    -11.268197     5A    -11.258060     6A    -11.250375
       7A    -11.223334     8A    -11.221155     9A     -8.990518
      10A     -6.671446    11A     -6.670863    12A     -6.670194
      13A     -1.271517    14A     -1.086700    15A     -1.059089
      16A     -0.977557    17A     -0.930137    18A     -0.847440
      19A     -0.791035    20A     -0.727799    21A     -0.684814
      22A     -0.622419    23A     -0.598292    24A     -0.579628
      25A     -0.567501    26A     -0.550960    27A     -0.530437
      28A     -0.528976    29A     -0.498400    30A     -0.483204
      31A     -0.465838    32A     -0.413897    33A     -0.385260
      34A     -0.325341

  @DF-RHF Final Energy:  -684.50306710424366

   => Energetics <=

    Nuclear Repulsion Energy =            435.8444435162255104
    One-Electron Energy =               -1802.6609469754998827
    Two-Electron Energy =                 682.3134363550307171
    Total Energy =                       -684.5030671042436552
  Basis Set: (AUG-CC-PVTZ AUX)
    Blend: AUG-CC-PVTZ-RI
    Molecular point group: c1

    Geometry (in Angstrom), charge = 0, multiplicity = 1:

       Center              X                  Y                   Z               Mass
    ------------   -----------------  -----------------  -----------------  -----------------
         S            1.150060447915    -1.131479355766    -0.004707089185    31.972071174400
         N            0.250622447915     1.282162644234    -0.004674089185    14.003074004430
         C           -1.635218852085    -0.523379555766     0.044948410815    12.000000000000
         C           -0.148635552085     0.025145644234    -0.004693089185    12.000000000000
         C           -2.281171552085     0.147888644234    -1.269105089185    12.000000000000
         C           -2.281163552085     0.147824644234     1.259738910815    12.000000000000
         C            2.284715447915     0.153001644234    -0.004685089185    12.000000000000
         C            1.620328447915     1.356354644234    -0.004669089185    12.000000000000
         H           -1.645583552085    -1.473170355766    -0.004727089185     1.007825032230
         H           -2.215020552085     1.238477644234    -1.297725089185     1.007825032230
         H           -3.336472552085    -0.143150355766    -1.280924089185     1.007825032230
         H           -1.802421552085    -0.249307355766    -2.168895089185     1.007825032230
         H           -1.802405552085    -0.249415355766     2.159504910815     1.007825032230
         H           -3.336463552085    -0.143216355766     1.271550910815     1.007825032230
         H           -2.215012552085     1.238412644234     1.288411910815     1.007825032230
         H            3.351455447915    -0.027276355766    -0.004686089185     1.007825032230
         H            2.101667447915     2.328420644234    -0.004653089185     1.007825032230

  Basis Set: AUG-CC-PVTZ
    Blend: AUG-CC-PVTZ
  Basis Set: (AUG-CC-PVTZ AUX)
    Blend: AUG-CC-PVTZ-JKFIT
	 Reference Energy          =    -684.5030671042436552 [Eh]
	 Singles Energy            =      -0.0000000000000000 [Eh]
	 Same-Spin Energy          =      -0.3766019558047786 [Eh]
	 Opposite-Spin Energy      =      -1.1973115816936384 [Eh]
	 Correlation Energy        =      -1.5739135374984170 [Eh]
	 Total Energy              =    -686.0769806417421250 [Eh]

	 ================> DF-SCS-MP2 Energies <==================
	-----------------------------------------------------------
	 SCS Same-Spin Scale       =       0.3333333333333333 [-]
	 SCS Opposite-Spin Scale   =       1.2000000000000000 [-]
	 SCS Same-Spin Energy      =      -0.1255339852682595 [Eh]
	 SCS Opposite-Spin Energy  =      -1.4367738980323661 [Eh]
	 SCS Correlation Energy    =      -1.5623078833006256 [Eh]
	 SCS Total Energy          =    -686.0653749875442600 [Eh]
	-----------------------------------------------------------

  Dipole Moment: [D]
     X:     0.3634      Y:    -1.1762      Z:     0.0378     Total:     1.2316

*** Psi4 exiting successfully. Buy a developer a beer!
