                               Psi4 1.4a3.dev225

  ==> Input File <==

--------------------------------------------------------------------------
#psi4
#
memory 32 gb

molecule  {
0 1
  S        1.2258560    -1.1625810    -0.0000180
  N        0.3264180     1.2510610     0.0000150
  C       -1.5198050    -0.4073720    -0.0000100
  C       -0.0728400    -0.0059560    -0.0000040
  C       -2.2053760     0.1167870    -1.2644160
  C       -2.2053680     0.1167230     1.2644280
  C        2.3605110     0.1219000     0.0000040
  C        1.6761533     1.3241713     0.0000199
  H       -1.5697880    -1.5042720    -0.0000380
  H       -2.1392250     1.2073760    -1.2930360
  H       -3.2606770    -0.1742520    -1.2762350
  H       -1.7266260    -0.2804090    -2.1642060
  H       -1.7266100    -0.2805170     2.1641940
  H       -3.2606680    -0.1743180     1.2762400
  H       -2.1392170     1.2073110     1.2931010
  H        3.4272510    -0.0583780     0.0000030
  H        2.1774630     2.2973190     0.0000360
units angstrom
no_reorient  #important for SAPT in psi4, default
symmetry c1  #important for SAPT in psi4, default
}

set PROPERTIES_ORIGIN ["COM"]
properties('MP2/aug-cc-pvtz', properties = ['dipole'])
--------------------------------------------------------------------------

    Molecular point group: c1
  Charge       = 0
  Multiplicity = 1
  Basis Set: AUG-CC-PVTZ
    Blend: AUG-CC-PVTZ
  Basis Set: (AUG-CC-PVTZ AUX)
    Blend: AUG-CC-PVTZ-JKFIT

    Orbital Energies [Eh]
    ---------------------

    Doubly Occupied:

       1A    -91.994577     2A    -15.563400     3A    -11.310230
       4A    -11.269375     5A    -11.260279     6A    -11.249410
       7A    -11.219401     8A    -11.219385     9A     -8.995111
      10A     -6.675991    11A     -6.675507    12A     -6.674811
      13A     -1.279654    14A     -1.094927    15A     -1.062341
      16A     -0.979354    17A     -0.935885    18A     -0.839478
      19A     -0.794083    20A     -0.717321    21A     -0.682249
      22A     -0.625472    23A     -0.601678    24A     -0.587661
      25A     -0.569044    26A     -0.546093    27A     -0.532063
      28A     -0.501408    29A     -0.498794    30A     -0.487502
      31A     -0.483149    32A     -0.423333    33A     -0.388917
      34A     -0.324963

  @DF-RHF Final Energy:  -684.53273544536557

   => Energetics <=

    Nuclear Repulsion Energy =            437.8322697106297596
    One-Electron Energy =               -1806.6043158501586277
    Two-Electron Energy =                 684.2393106941632368
    Total Energy =                       -684.5327354453655744
  Basis Set: (AUG-CC-PVTZ AUX)
    Blend: AUG-CC-PVTZ-RI
    Molecular point group: c1

    Geometry (in Angstrom), charge = 0, multiplicity = 1:

       Center              X                  Y                   Z               Mass
    ------------   -----------------  -----------------  -----------------  -----------------
         S            1.148204647677    -1.145272280569    -0.000017660047    31.972071174400
         N            0.248766647677     1.268369719431     0.000015339953    14.003074004430
         C           -1.597456352323    -0.390063280569    -0.000009660047    12.000000000000
         C           -0.150491352323     0.011352719431    -0.000003660047    12.000000000000
         C           -2.283027352323     0.134095719431    -1.264415660047    12.000000000000
         C           -2.283019352323     0.134031719431     1.264428339953    12.000000000000
         C            2.282859647677     0.139208719431     0.000004339953    12.000000000000
         C            1.598501947677     1.341480019431     0.000020239953    12.000000000000
         H           -1.647439352323    -1.486963280569    -0.000037660047     1.007825032230
         H           -2.216876352323     1.224684719431    -1.293035660047     1.007825032230
         H           -3.338328352323    -0.156943280569    -1.276234660047     1.007825032230
         H           -1.804277352323    -0.263100280569    -2.164205660047     1.007825032230
         H           -1.804261352323    -0.263208280569     2.164194339953     1.007825032230
         H           -3.338319352323    -0.157009280569     1.276240339953     1.007825032230
         H           -2.216868352323     1.224619719431     1.293101339953     1.007825032230
         H            3.349599647677    -0.041069280569     0.000003339953     1.007825032230
         H            2.099811647677     2.314627719431     0.000036339953     1.007825032230

  Basis Set: AUG-CC-PVTZ
    Blend: AUG-CC-PVTZ
  Basis Set: (AUG-CC-PVTZ AUX)
    Blend: AUG-CC-PVTZ-JKFIT
	 Reference Energy          =    -684.5327354453655744 [Eh]
	 Singles Energy            =      -0.0000000000000000 [Eh]
	 Same-Spin Energy          =      -0.3773592535408626 [Eh]
	 Opposite-Spin Energy      =      -1.1970097145191021 [Eh]
	 Correlation Energy        =      -1.5743689680599646 [Eh]
	 Total Energy              =    -686.1071044134255317 [Eh]

	 ================> DF-SCS-MP2 Energies <==================
	-----------------------------------------------------------
	 SCS Same-Spin Scale       =       0.3333333333333333 [-]
	 SCS Opposite-Spin Scale   =       1.2000000000000000 [-]
	 SCS Same-Spin Energy      =      -0.1257864178469542 [Eh]
	 SCS Opposite-Spin Energy  =      -1.4364116574229224 [Eh]
	 SCS Correlation Energy    =      -1.5621980752698765 [Eh]
	 SCS Total Energy          =    -686.0949335206354363 [Eh]
	-----------------------------------------------------------

  Dipole Moment: [D]
     X:     0.4895      Y:    -1.1570      Z:    -0.0000     Total:     1.2563

*** Psi4 exiting successfully. Buy a developer a beer!
