                               Psi4 1.4a3.dev225

  ==> Input File <==

--------------------------------------------------------------------------
#psi4
#
memory 32 gb

molecule  {
0 1
  S        1.2258560    -1.1625810    -0.0000180
  N        0.3264180     1.2510610     0.0000150
  C       -1.4209534    -0.4878343    -0.0971170
  C       -0.0728400    -0.0059560    -0.0000040
  C       -2.2053760     0.1167870    -1.2644160
  C       -2.2053680     0.1167230     1.2644280
  C        2.3605110     0.1219000     0.0000040
  C        1.6961240     1.3252530     0.0000200
  H       -1.5697880    -1.5042720    -0.0000380
  H       -2.1392250     1.2073760    -1.2930360
  H       -3.2606770    -0.1742520    -1.2762350
  H       -1.7266260    -0.2804090    -2.1642060
  H       -1.7266100    -0.2805170     2.1641940
  H       -3.2606680    -0.1743180     1.2762400
  H       -2.1392170     1.2073110     1.2931010
  H        3.4272510    -0.0583780     0.0000030
  H        2.1774630     2.2973190     0.0000360
units angstrom
no_reorient  #important for SAPT in psi4, default
symmetry c1  #important for SAPT in psi4, default
}

set PROPERTIES_ORIGIN ["COM"]
properties('MP2/aug-cc-pvtz', properties = ['dipole'])
--------------------------------------------------------------------------

    Molecular point group: c1
  Charge       = 0
  Multiplicity = 1
  Basis Set: AUG-CC-PVTZ
    Blend: AUG-CC-PVTZ
  Basis Set: (AUG-CC-PVTZ AUX)
    Blend: AUG-CC-PVTZ-JKFIT

    Orbital Energies [Eh]
    ---------------------

    Doubly Occupied:

       1A    -91.991598     2A    -15.564642     3A    -11.310540
       4A    -11.269460     5A    -11.259674     6A    -11.247692
       7A    -11.225642     8A    -11.221143     9A     -8.992602
      10A     -6.673518    11A     -6.672934    12A     -6.672247
      13A     -1.276305    14A     -1.093378    15A     -1.061544
      16A     -0.978994    17A     -0.924947    18A     -0.855429
      19A     -0.795199    20A     -0.722799    21A     -0.688157
      22A     -0.619742    23A     -0.599462    24A     -0.587847
      25A     -0.567920    26A     -0.544465    27A     -0.530726
      28A     -0.520224    29A     -0.506185    30A     -0.495755
      31A     -0.450102    32A     -0.419715    33A     -0.386443
      34A     -0.322836

  @DF-RHF Final Energy:  -684.51201747954315

   => Energetics <=

    Nuclear Repulsion Energy =            437.9137668978368652
    One-Electron Energy =               -1806.7518368132155047
    Two-Electron Energy =                 684.3260524358354360
    Total Energy =                       -684.5120174795431467
  Basis Set: (AUG-CC-PVTZ AUX)
    Blend: AUG-CC-PVTZ-RI
    Molecular point group: c1

    Geometry (in Angstrom), charge = 0, multiplicity = 1:

       Center              X                  Y                   Z               Mass
    ------------   -----------------  -----------------  -----------------  -----------------
         S            1.136981370905    -1.137774441829     0.009154503891    31.972071174400
         N            0.237543370905     1.275867558171     0.009187503891    14.003074004430
         C           -1.509828029095    -0.463027741829    -0.087944496109    12.000000000000
         C           -0.161714629095     0.018850558171     0.009168503891    12.000000000000
         C           -2.294250629095     0.141593558171    -1.255243496109    12.000000000000
         C           -2.294242629095     0.141529558171     1.273600503891    12.000000000000
         C            2.271636370905     0.146706558171     0.009176503891    12.000000000000
         C            1.607249370905     1.350059558171     0.009192503891    12.000000000000
         H           -1.658662629095    -1.479465441829     0.009134503891     1.007825032230
         H           -2.228099629095     1.232182558171    -1.283863496109     1.007825032230
         H           -3.349551629095    -0.149445441829    -1.267062496109     1.007825032230
         H           -1.815500629095    -0.255602441829    -2.155033496109     1.007825032230
         H           -1.815484629095    -0.255710441829     2.173366503891     1.007825032230
         H           -3.349542629095    -0.149511441829     1.285412503891     1.007825032230
         H           -2.228091629095     1.232117558171     1.302273503891     1.007825032230
         H            3.338376370905    -0.033571441829     0.009175503891     1.007825032230
         H            2.088588370905     2.322125558171     0.009208503891     1.007825032230

  Basis Set: AUG-CC-PVTZ
    Blend: AUG-CC-PVTZ
  Basis Set: (AUG-CC-PVTZ AUX)
    Blend: AUG-CC-PVTZ-JKFIT
	 Reference Energy          =    -684.5120174795431467 [Eh]
	 Singles Energy            =      -0.0000000000000000 [Eh]
	 Same-Spin Energy          =      -0.3778584941601411 [Eh]
	 Opposite-Spin Energy      =      -1.1986138600749949 [Eh]
	 Correlation Energy        =      -1.5764723542351360 [Eh]
	 Total Energy              =    -686.0884898337782261 [Eh]

	 ================> DF-SCS-MP2 Energies <==================
	-----------------------------------------------------------
	 SCS Same-Spin Scale       =       0.3333333333333333 [-]
	 SCS Opposite-Spin Scale   =       1.2000000000000000 [-]
	 SCS Same-Spin Energy      =      -0.1259528313867137 [Eh]
	 SCS Opposite-Spin Energy  =      -1.4383366320899940 [Eh]
	 SCS Correlation Energy    =      -1.5642894634767077 [Eh]
	 SCS Total Energy          =    -686.0763069430198584 [Eh]
	-----------------------------------------------------------

  Dipole Moment: [D]
     X:     0.4208      Y:    -1.1754      Z:    -0.0545     Total:     1.2496

*** Psi4 exiting successfully. Buy a developer a beer!
