                               Psi4 1.4a3.dev225

  ==> Input File <==

--------------------------------------------------------------------------
#psi4
#
memory 32 gb

molecule  {
0 1
  S        1.2258560    -1.1625810    -0.0000180
  N        0.3264180     1.2510610     0.0000150
  C       -1.5198050    -0.4073720    -0.0000100
  C       -0.0667856     0.0131056    -0.0000037
  C       -2.2053760     0.1167870    -1.2644160
  C       -2.2053680     0.1167230     1.2644280
  C        2.3605110     0.1219000     0.0000040
  C        1.6961240     1.3252530     0.0000200
  H       -1.5697880    -1.5042720    -0.0000380
  H       -2.1392250     1.2073760    -1.2930360
  H       -3.2606770    -0.1742520    -1.2762350
  H       -1.7266260    -0.2804090    -2.1642060
  H       -1.7266100    -0.2805170     2.1641940
  H       -3.2606680    -0.1743180     1.2762400
  H       -2.1392170     1.2073110     1.2931010
  H        3.4272510    -0.0583780     0.0000030
  H        2.1774630     2.2973190     0.0000360
units angstrom
no_reorient  #important for SAPT in psi4, default
symmetry c1  #important for SAPT in psi4, default
}

set PROPERTIES_ORIGIN ["COM"]
properties('MP2/aug-cc-pvtz', properties = ['dipole'])
--------------------------------------------------------------------------

    Molecular point group: c1
  Charge       = 0
  Multiplicity = 1
  Basis Set: AUG-CC-PVTZ
    Blend: AUG-CC-PVTZ
  Basis Set: (AUG-CC-PVTZ AUX)
    Blend: AUG-CC-PVTZ-JKFIT

    Orbital Energies [Eh]
    ---------------------

    Doubly Occupied:

       1A    -91.992249     2A    -15.563256     3A    -11.308769
       4A    -11.268928     5A    -11.261036     6A    -11.249717
       7A    -11.219088     8A    -11.219073     9A     -8.992936
      10A     -6.673837    11A     -6.673302    12A     -6.672582
      13A     -1.280660    14A     -1.093055    15A     -1.062294
      16A     -0.980583    17A     -0.935588    18A     -0.837885
      19A     -0.794963    20A     -0.715927    21A     -0.684043
      22A     -0.624977    23A     -0.602021    24A     -0.587317
      25A     -0.567899    26A     -0.546052    27A     -0.531879
      28A     -0.504207    29A     -0.498739    30A     -0.487112
      31A     -0.482970    32A     -0.420944    33A     -0.388839
      34A     -0.328464

  @DF-RHF Final Energy:  -684.53473023942536

   => Energetics <=

    Nuclear Repulsion Energy =            437.6084945907088013
    One-Electron Energy =               -1806.1840712135149261
    Two-Electron Energy =                 684.0408463833808810
    Total Energy =                       -684.5347302394253575
  Basis Set: (AUG-CC-PVTZ AUX)
    Blend: AUG-CC-PVTZ-RI
    Molecular point group: c1

    Geometry (in Angstrom), charge = 0, multiplicity = 1:

       Center              X                  Y                   Z               Mass
    ------------   -----------------  -----------------  -----------------  -----------------
         S            1.145746465161    -1.147174901802    -0.000017697829    31.972071174400
         N            0.246308465161     1.266467098198     0.000015302171    14.003074004430
         C           -1.599914534839    -0.391965901802    -0.000009697829    12.000000000000
         C           -0.146895134839     0.028511698198    -0.000003397829    12.000000000000
         C           -2.285485534839     0.132193098198    -1.264415697829    12.000000000000
         C           -2.285477534839     0.132129098198     1.264428302171    12.000000000000
         C            2.280401465161     0.137306098198     0.000004302171    12.000000000000
         C            1.616014465161     1.340659098198     0.000020302171    12.000000000000
         H           -1.649897534839    -1.488865901802    -0.000037697829     1.007825032230
         H           -2.219334534839     1.222782098198    -1.293035697829     1.007825032230
         H           -3.340786534839    -0.158845901802    -1.276234697829     1.007825032230
         H           -1.806735534839    -0.265002901802    -2.164205697829     1.007825032230
         H           -1.806719534839    -0.265110901802     2.164194302171     1.007825032230
         H           -3.340777534839    -0.158911901802     1.276240302171     1.007825032230
         H           -2.219326534839     1.222717098198     1.293101302171     1.007825032230
         H            3.347141465161    -0.042971901802     0.000003302171     1.007825032230
         H            2.097353465161     2.312725098198     0.000036302171     1.007825032230

  Basis Set: AUG-CC-PVTZ
    Blend: AUG-CC-PVTZ
  Basis Set: (AUG-CC-PVTZ AUX)
    Blend: AUG-CC-PVTZ-JKFIT
	 Reference Energy          =    -684.5347302394253575 [Eh]
	 Singles Energy            =      -0.0000000000000000 [Eh]
	 Same-Spin Energy          =      -0.3762804906185837 [Eh]
	 Opposite-Spin Energy      =      -1.1960032088155166 [Eh]
	 Correlation Energy        =      -1.5722836994341003 [Eh]
	 Total Energy              =    -686.1070139388594953 [Eh]

	 ================> DF-SCS-MP2 Energies <==================
	-----------------------------------------------------------
	 SCS Same-Spin Scale       =       0.3333333333333333 [-]
	 SCS Opposite-Spin Scale   =       1.2000000000000000 [-]
	 SCS Same-Spin Energy      =      -0.1254268302061946 [Eh]
	 SCS Opposite-Spin Energy  =      -1.4352038505786198 [Eh]
	 SCS Correlation Energy    =      -1.5606306807848143 [Eh]
	 SCS Total Energy          =    -686.0953609202101688 [Eh]
	-----------------------------------------------------------

  Dipole Moment: [D]
     X:     0.4700      Y:    -1.1055      Z:    -0.0000     Total:     1.2013

*** Psi4 exiting successfully. Buy a developer a beer!
