                               Psi4 1.4a3.dev225

  ==> Input File <==

--------------------------------------------------------------------------
#psi4
#
memory 32 gb

molecule  {
0 1
  S        1.2258560    -1.1625810    -0.0000180
  N        0.3264180     1.2510610     0.0000150
  C       -1.5198050    -0.4073720    -0.0000100
  C       -0.0897525     0.0413231     0.0919961
  C       -2.2053760     0.1167870    -1.2644160
  C       -2.2053680     0.1167230     1.2644280
  C        2.3605110     0.1219000     0.0000040
  C        1.6961240     1.3252530     0.0000200
  H       -1.5697880    -1.5042720    -0.0000380
  H       -2.1392250     1.2073760    -1.2930360
  H       -3.2606770    -0.1742520    -1.2762350
  H       -1.7266260    -0.2804090    -2.1642060
  H       -1.7266100    -0.2805170     2.1641940
  H       -3.2606680    -0.1743180     1.2762400
  H       -2.1392170     1.2073110     1.2931010
  H        3.4272510    -0.0583780     0.0000030
  H        2.1774630     2.2973190     0.0000360
units angstrom
no_reorient  #important for SAPT in psi4, default
symmetry c1  #important for SAPT in psi4, default
}

set PROPERTIES_ORIGIN ["COM"]
properties('MP2/aug-cc-pvtz', properties = ['dipole'])
--------------------------------------------------------------------------

    Molecular point group: c1
  Charge       = 0
  Multiplicity = 1
  Basis Set: AUG-CC-PVTZ
    Blend: AUG-CC-PVTZ
  Basis Set: (AUG-CC-PVTZ AUX)
    Blend: AUG-CC-PVTZ-JKFIT

    Orbital Energies [Eh]
    ---------------------

    Doubly Occupied:

       1A    -91.988593     2A    -15.564110     3A    -11.310092
       4A    -11.268967     5A    -11.262623     6A    -11.249911
       7A    -11.220557     8A    -11.219261     9A     -8.988909
      10A     -6.669795    11A     -6.669225    12A     -6.668529
      13A     -1.284158    14A     -1.095956    15A     -1.060203
      16A     -0.978335    17A     -0.936829    18A     -0.839562
      19A     -0.796691    20A     -0.713897    21A     -0.685167
      22A     -0.626365    23A     -0.606019    24A     -0.588770
      25A     -0.566957    26A     -0.547199    27A     -0.532404
      28A     -0.503990    29A     -0.500361    30A     -0.486633
      31A     -0.483644    32A     -0.415359    33A     -0.389775
      34A     -0.327214

  @DF-RHF Final Energy:  -684.53100999792184

   => Energetics <=

    Nuclear Repulsion Energy =            437.3658289342965304
    One-Electron Energy =               -1805.7015578472633024
    Two-Electron Energy =                 683.8047189150448730
    Total Energy =                       -684.5310099979218421
  Basis Set: (AUG-CC-PVTZ AUX)
    Blend: AUG-CC-PVTZ-RI
    Molecular point group: c1

    Geometry (in Angstrom), charge = 0, multiplicity = 1:

       Center              X                  Y                   Z               Mass
    ------------   -----------------  -----------------  -----------------  -----------------
         S            1.147915787547    -1.149840165918    -0.008707474229    31.972071174400
         N            0.248477787547     1.263801834082    -0.008674474229    14.003074004430
         C           -1.597745212453    -0.394631165918    -0.008699474229    12.000000000000
         C           -0.167692712453     0.054063934082     0.083306625771    12.000000000000
         C           -2.283316212453     0.129527834082    -1.273105474229    12.000000000000
         C           -2.283308212453     0.129463834082     1.255738525771    12.000000000000
         C            2.282570787547     0.134640834082    -0.008685474229    12.000000000000
         C            1.618183787547     1.337993834082    -0.008669474229    12.000000000000
         H           -1.647728212453    -1.491531165918    -0.008727474229     1.007825032230
         H           -2.217165212453     1.220116834082    -1.301725474229     1.007825032230
         H           -3.338617212453    -0.161511165918    -1.284924474229     1.007825032230
         H           -1.804566212453    -0.267668165918    -2.172895474229     1.007825032230
         H           -1.804550212453    -0.267776165918     2.155504525771     1.007825032230
         H           -3.338608212453    -0.161577165918     1.267550525771     1.007825032230
         H           -2.217157212453     1.220051834082     1.284411525771     1.007825032230
         H            3.349310787547    -0.045637165918    -0.008686474229     1.007825032230
         H            2.099522787547     2.310059834082    -0.008653474229     1.007825032230

  Basis Set: AUG-CC-PVTZ
    Blend: AUG-CC-PVTZ
  Basis Set: (AUG-CC-PVTZ AUX)
    Blend: AUG-CC-PVTZ-JKFIT
	 Reference Energy          =    -684.5310099979218421 [Eh]
	 Singles Energy            =      -0.0000000000000000 [Eh]
	 Same-Spin Energy          =      -0.3761554992344610 [Eh]
	 Opposite-Spin Energy      =      -1.1962043047171849 [Eh]
	 Correlation Energy        =      -1.5723598039516458 [Eh]
	 Total Energy              =    -686.1033698018734412 [Eh]

	 ================> DF-SCS-MP2 Energies <==================
	-----------------------------------------------------------
	 SCS Same-Spin Scale       =       0.3333333333333333 [-]
	 SCS Opposite-Spin Scale   =       1.2000000000000000 [-]
	 SCS Same-Spin Energy      =      -0.1253851664114870 [Eh]
	 SCS Opposite-Spin Energy  =      -1.4354451656606217 [Eh]
	 SCS Correlation Energy    =      -1.5608303320721086 [Eh]
	 SCS Total Energy          =    -686.0918403299939428 [Eh]
	-----------------------------------------------------------

  Dipole Moment: [D]
     X:     0.3556      Y:    -0.9839      Z:    -0.0496     Total:     1.0473

*** Psi4 exiting successfully. Buy a developer a beer!
