                               Psi4 1.4a3.dev225

  ==> Input File <==

--------------------------------------------------------------------------
#psi4
#
memory 32 gb

molecule  {
0 1
  S        1.2258560    -1.1625810    -0.0000180
  N        0.3264180     1.2510610     0.0000150
  C       -1.5198050    -0.4073720    -0.0000100
  C       -0.0629770    -0.0551908    -0.0920041
  C       -2.2053760     0.1167870    -1.2644160
  C       -2.2053680     0.1167230     1.2644280
  C        2.3605110     0.1219000     0.0000040
  C        1.6961240     1.3252530     0.0000200
  H       -1.5697880    -1.5042720    -0.0000380
  H       -2.1392250     1.2073760    -1.2930360
  H       -3.2606770    -0.1742520    -1.2762350
  H       -1.7266260    -0.2804090    -2.1642060
  H       -1.7266100    -0.2805170     2.1641940
  H       -3.2606680    -0.1743180     1.2762400
  H       -2.1392170     1.2073110     1.2931010
  H        3.4272510    -0.0583780     0.0000030
  H        2.1774630     2.2973190     0.0000360
units angstrom
no_reorient  #important for SAPT in psi4, default
symmetry c1  #important for SAPT in psi4, default
}

set PROPERTIES_ORIGIN ["COM"]
properties('MP2/aug-cc-pvtz', properties = ['dipole'])
--------------------------------------------------------------------------

    Molecular point group: c1
  Charge       = 0
  Multiplicity = 1
  Basis Set: AUG-CC-PVTZ
    Blend: AUG-CC-PVTZ
  Basis Set: (AUG-CC-PVTZ AUX)
    Blend: AUG-CC-PVTZ-JKFIT

    Orbital Energies [Eh]
    ---------------------

    Doubly Occupied:

       1A    -91.999018     2A    -15.565469     3A    -11.311148
       4A    -11.269080     5A    -11.258904     6A    -11.249250
       7A    -11.219663     8A    -11.218016     9A     -8.999912
      10A     -6.680840    11A     -6.680324    12A     -6.679633
      13A     -1.263857    14A     -1.093728    15A     -1.061701
      16A     -0.981973    17A     -0.935066    18A     -0.840661
      19A     -0.787173    20A     -0.719169    21A     -0.680825
      22A     -0.625115    23A     -0.598670    24A     -0.584845
      25A     -0.564955    26A     -0.544202    27A     -0.531016
      28A     -0.505636    29A     -0.497990    30A     -0.485541
      31A     -0.481399    32A     -0.426433    33A     -0.383224
      34A     -0.327268

  @DF-RHF Final Energy:  -684.52518017740772

   => Energetics <=

    Nuclear Repulsion Energy =            437.4214806469495329
    One-Electron Energy =               -1805.7899084145901725
    Two-Electron Energy =                 683.8432475902329770
    Total Energy =                       -684.5251801774077194
  Basis Set: (AUG-CC-PVTZ AUX)
    Blend: AUG-CC-PVTZ-RI
    Molecular point group: c1

    Geometry (in Angstrom), charge = 0, multiplicity = 1:

       Center              X                  Y                   Z               Mass
    ------------   -----------------  -----------------  -----------------  -----------------
         S            1.145386726527    -1.140724013377     0.008672135244    31.972071174400
         N            0.245948726527     1.272917986623     0.008705135244    14.003074004430
         C           -1.600274273473    -0.385515013377     0.008680135244    12.000000000000
         C           -0.143446273473    -0.033333813377    -0.083313964756    12.000000000000
         C           -2.285845273473     0.138643986623    -1.255725864756    12.000000000000
         C           -2.285837273473     0.138579986623     1.273118135244    12.000000000000
         C            2.280041726527     0.143756986623     0.008694135244    12.000000000000
         C            1.615654726527     1.347109986623     0.008710135244    12.000000000000
         H           -1.650257273473    -1.482415013377     0.008652135244     1.007825032230
         H           -2.219694273473     1.229232986623    -1.284345864756     1.007825032230
         H           -3.341146273473    -0.152395013377    -1.267544864756     1.007825032230
         H           -1.807095273473    -0.258552013377    -2.155515864756     1.007825032230
         H           -1.807079273473    -0.258660013377     2.172884135244     1.007825032230
         H           -3.341137273473    -0.152461013377     1.284930135244     1.007825032230
         H           -2.219686273473     1.229167986623     1.301791135244     1.007825032230
         H            3.346781726527    -0.036521013377     0.008693135244     1.007825032230
         H            2.096993726527     2.319175986623     0.008726135244     1.007825032230

  Basis Set: AUG-CC-PVTZ
    Blend: AUG-CC-PVTZ
  Basis Set: (AUG-CC-PVTZ AUX)
    Blend: AUG-CC-PVTZ-JKFIT
	 Reference Energy          =    -684.5251801774077194 [Eh]
	 Singles Energy            =      -0.0000000000000000 [Eh]
	 Same-Spin Energy          =      -0.3783928538438304 [Eh]
	 Opposite-Spin Energy      =      -1.1989574858810625 [Eh]
	 Correlation Energy        =      -1.5773503397248929 [Eh]
	 Total Energy              =    -686.1025305171326636 [Eh]

	 ================> DF-SCS-MP2 Energies <==================
	-----------------------------------------------------------
	 SCS Same-Spin Scale       =       0.3333333333333333 [-]
	 SCS Opposite-Spin Scale   =       1.2000000000000000 [-]
	 SCS Same-Spin Energy      =      -0.1261309512812768 [Eh]
	 SCS Opposite-Spin Energy  =      -1.4387489830572751 [Eh]
	 SCS Correlation Energy    =      -1.5648799343385518 [Eh]
	 SCS Total Energy          =    -686.0900601117463111 [Eh]
	-----------------------------------------------------------

  Dipole Moment: [D]
     X:     0.6344      Y:    -1.2451      Z:     0.0649     Total:     1.3989

*** Psi4 exiting successfully. Buy a developer a beer!
