                               Psi4 1.4a3.dev225

  ==> Input File <==

--------------------------------------------------------------------------
#psi4
#
memory 32 gb

molecule  {
0 1
  S        1.2258560    -1.1625810    -0.0000180
  N        0.3264180     1.2510610     0.0000150
  C       -1.5258972    -0.4323334     0.0073154
  C       -0.0728400    -0.0059560    -0.0000040
  C       -2.2053760     0.1167870    -1.2644160
  C       -2.2053680     0.1167230     1.2644280
  C        2.3605110     0.1219000     0.0000040
  C        1.6961240     1.3252530     0.0000200
  H       -1.5697880    -1.5042720    -0.0000380
  H       -2.1392250     1.2073760    -1.2930360
  H       -3.2606770    -0.1742520    -1.2762350
  H       -1.7266260    -0.2804090    -2.1642060
  H       -1.7266100    -0.2805170     2.1641940
  H       -3.2606680    -0.1743180     1.2762400
  H       -2.1392170     1.2073110     1.2931010
  H        3.4272510    -0.0583780     0.0000030
  H        2.1774630     2.2973190     0.0000360
units angstrom
no_reorient  #important for SAPT in psi4, default
symmetry c1  #important for SAPT in psi4, default
}

set PROPERTIES_ORIGIN ["COM"]
properties('MP2/aug-cc-pvtz', properties = ['dipole'])
--------------------------------------------------------------------------

    Molecular point group: c1
  Charge       = 0
  Multiplicity = 1
  Basis Set: AUG-CC-PVTZ
    Blend: AUG-CC-PVTZ
  Basis Set: (AUG-CC-PVTZ AUX)
    Blend: AUG-CC-PVTZ-JKFIT

    Orbital Energies [Eh]
    ---------------------

    Doubly Occupied:

       1A    -91.993202     2A    -15.563855     3A    -11.310525
       4A    -11.268777     5A    -11.260021     6A    -11.249137
       7A    -11.219800     8A    -11.219353     9A     -8.993906
      10A     -6.674812    11A     -6.674291    12A     -6.673585
      13A     -1.274099    14A     -1.092982    15A     -1.060846
      16A     -0.980198    17A     -0.934758    18A     -0.840098
      19A     -0.792595    20A     -0.718123    21A     -0.683711
      22A     -0.624767    23A     -0.601019    24A     -0.585383
      25A     -0.567134    26A     -0.546321    27A     -0.530849
      28A     -0.505475    29A     -0.496705    30A     -0.489326
      31A     -0.484394    32A     -0.421022    33A     -0.386599
      34A     -0.327439

  @DF-RHF Final Energy:  -684.53323075395133

   => Energetics <=

    Nuclear Repulsion Energy =            437.2605564414071182
    One-Electron Energy =               -1805.4973578073122553
    Two-Electron Energy =                 683.7035706119538645
    Total Energy =                       -684.5332307539513295
  Basis Set: (AUG-CC-PVTZ AUX)
    Blend: AUG-CC-PVTZ-RI
    Molecular point group: c1

    Geometry (in Angstrom), charge = 0, multiplicity = 1:

       Center              X                  Y                   Z               Mass
    ------------   -----------------  -----------------  -----------------  -----------------
         S            1.146893763721    -1.143016740301    -0.000709584997    31.972071174400
         N            0.247455763721     1.270625259699    -0.000676584997    14.003074004430
         C           -1.604859436279    -0.412769140301     0.006623815003    12.000000000000
         C           -0.151802236279     0.013608259699    -0.000695584997    12.000000000000
         C           -2.284338236279     0.136351259699    -1.265107584997    12.000000000000
         C           -2.284330236279     0.136287259699     1.263736415003    12.000000000000
         C            2.281548763721     0.141464259699    -0.000687584997    12.000000000000
         C            1.617161763721     1.344817259699    -0.000671584997    12.000000000000
         H           -1.648750236279    -1.484707740301    -0.000729584997     1.007825032230
         H           -2.218187236279     1.226940259699    -1.293727584997     1.007825032230
         H           -3.339639236279    -0.154687740301    -1.276926584997     1.007825032230
         H           -1.805588236279    -0.260844740301    -2.164897584997     1.007825032230
         H           -1.805572236279    -0.260952740301     2.163502415003     1.007825032230
         H           -3.339630236279    -0.154753740301     1.275548415003     1.007825032230
         H           -2.218179236279     1.226875259699     1.292409415003     1.007825032230
         H            3.348288763721    -0.038813740301    -0.000688584997     1.007825032230
         H            2.098500763721     2.316883259699    -0.000655584997     1.007825032230

  Basis Set: AUG-CC-PVTZ
    Blend: AUG-CC-PVTZ
  Basis Set: (AUG-CC-PVTZ AUX)
    Blend: AUG-CC-PVTZ-JKFIT
	 Reference Energy          =    -684.5332307539513295 [Eh]
	 Singles Energy            =      -0.0000000000000000 [Eh]
	 Same-Spin Energy          =      -0.3767503946546499 [Eh]
	 Opposite-Spin Energy      =      -1.1966192198167838 [Eh]
	 Correlation Energy        =      -1.5733696144714338 [Eh]
	 Total Energy              =    -686.1066003684227326 [Eh]

	 ================> DF-SCS-MP2 Energies <==================
	-----------------------------------------------------------
	 SCS Same-Spin Scale       =       0.3333333333333333 [-]
	 SCS Opposite-Spin Scale   =       1.2000000000000000 [-]
	 SCS Same-Spin Energy      =      -0.1255834648848833 [Eh]
	 SCS Opposite-Spin Energy  =      -1.4359430637801405 [Eh]
	 SCS Correlation Energy    =      -1.5615265286650237 [Eh]
	 SCS Total Energy          =    -686.0947572826163423 [Eh]
	-----------------------------------------------------------

  Dipole Moment: [D]
     X:     0.4718      Y:    -1.1544      Z:     0.0052     Total:     1.2471

*** Psi4 exiting successfully. Buy a developer a beer!
