                               Psi4 1.4a3.dev225

  ==> Input File <==

--------------------------------------------------------------------------
#psi4
#
memory 32 gb

molecule  {
0 1
  S        1.2258560    -1.1625810    -0.0000180
  N        0.3264180     1.2510610     0.0000150
  C       -1.5198050    -0.4073720    -0.0000100
  C       -0.0928281    -0.0287975    -0.0000044
  C       -2.2053760     0.1167870    -1.2644160
  C       -2.2053680     0.1167230     1.2644280
  C        2.3605110     0.1219000     0.0000040
  C        1.6961240     1.3252530     0.0000200
  H       -1.5697880    -1.5042720    -0.0000380
  H       -2.1392250     1.2073760    -1.2930360
  H       -3.2606770    -0.1742520    -1.2762350
  H       -1.7266260    -0.2804090    -2.1642060
  H       -1.7266100    -0.2805170     2.1641940
  H       -3.2606680    -0.1743180     1.2762400
  H       -2.1392170     1.2073110     1.2931010
  H        3.4272510    -0.0583780     0.0000030
  H        2.1774630     2.2973190     0.0000360
units angstrom
no_reorient  #important for SAPT in psi4, default
symmetry c1  #important for SAPT in psi4, default
}

set PROPERTIES_ORIGIN ["COM"]
properties('MP2/aug-cc-pvtz', properties = ['dipole'])
--------------------------------------------------------------------------

    Molecular point group: c1
  Charge       = 0
  Multiplicity = 1
  Basis Set: AUG-CC-PVTZ
    Blend: AUG-CC-PVTZ
  Basis Set: (AUG-CC-PVTZ AUX)
    Blend: AUG-CC-PVTZ-JKFIT

    Orbital Energies [Eh]
    ---------------------

    Doubly Occupied:

       1A    -91.995596     2A    -15.564843     3A    -11.312432
       4A    -11.268792     5A    -11.259840     6A    -11.248720
       7A    -11.220103     8A    -11.220087     9A     -8.995976
      10A     -6.676863    11A     -6.676399    12A     -6.675703
      13A     -1.266242    14A     -1.098690    15A     -1.058389
      16A     -0.980436    17A     -0.936618    18A     -0.845169
      19A     -0.789380    20A     -0.716752    21A     -0.681932
      22A     -0.626868    23A     -0.602593    24A     -0.586872
      25A     -0.565384    26A     -0.545232    27A     -0.530126
      28A     -0.503812    29A     -0.501708    30A     -0.488265
      31A     -0.483826    32A     -0.420965    33A     -0.384221
      34A     -0.325987

  @DF-RHF Final Energy:  -684.53005814530707

   => Energetics <=

    Nuclear Repulsion Energy =            437.3506996891567269
    One-Electron Energy =               -1805.6518666589811346
    Two-Electron Energy =                 683.7711088245173414
    Total Energy =                       -684.5300581453070663
  Basis Set: (AUG-CC-PVTZ AUX)
    Blend: AUG-CC-PVTZ-RI
    Molecular point group: c1

    Geometry (in Angstrom), charge = 0, multiplicity = 1:

       Center              X                  Y                   Z               Mass
    ------------   -----------------  -----------------  -----------------  -----------------
         S            1.148206291182    -1.143216973964    -0.000017631711    31.972071174400
         N            0.248768291182     1.270425026036     0.000015368289    14.003074004430
         C           -1.597454708818    -0.388007973964    -0.000009631711    12.000000000000
         C           -0.170477808818    -0.009433473964    -0.000004031711    12.000000000000
         C           -2.283025708818     0.136151026036    -1.264415631711    12.000000000000
         C           -2.283017708818     0.136087026036     1.264428368289    12.000000000000
         C            2.282861291182     0.141264026036     0.000004368289    12.000000000000
         C            1.618474291182     1.344617026036     0.000020368289    12.000000000000
         H           -1.647437708818    -1.484907973964    -0.000037631711     1.007825032230
         H           -2.216874708818     1.226740026036    -1.293035631711     1.007825032230
         H           -3.338326708818    -0.154887973964    -1.276234631711     1.007825032230
         H           -1.804275708818    -0.261044973964    -2.164205631711     1.007825032230
         H           -1.804259708818    -0.261152973964     2.164194368289     1.007825032230
         H           -3.338317708818    -0.154953973964     1.276240368289     1.007825032230
         H           -2.216866708818     1.226675026036     1.293101368289     1.007825032230
         H            3.349601291182    -0.039013973964     0.000003368289     1.007825032230
         H            2.099813291182     2.316683026036     0.000036368289     1.007825032230

  Basis Set: AUG-CC-PVTZ
    Blend: AUG-CC-PVTZ
  Basis Set: (AUG-CC-PVTZ AUX)
    Blend: AUG-CC-PVTZ-JKFIT
	 Reference Energy          =    -684.5300581453070663 [Eh]
	 Singles Energy            =      -0.0000000000000000 [Eh]
	 Same-Spin Energy          =      -0.3778725207792248 [Eh]
	 Opposite-Spin Energy      =      -1.1981816050710479 [Eh]
	 Correlation Energy        =      -1.5760541258502727 [Eh]
	 Total Energy              =    -686.1061122711573717 [Eh]

	 ================> DF-SCS-MP2 Energies <==================
	-----------------------------------------------------------
	 SCS Same-Spin Scale       =       0.3333333333333333 [-]
	 SCS Opposite-Spin Scale   =       1.2000000000000000 [-]
	 SCS Same-Spin Energy      =      -0.1259575069264083 [Eh]
	 SCS Opposite-Spin Energy  =      -1.4378179260852575 [Eh]
	 SCS Correlation Energy    =      -1.5637754330116658 [Eh]
	 SCS Total Energy          =    -686.0938335783187085 [Eh]
	-----------------------------------------------------------

  Dipole Moment: [D]
     X:     0.4866      Y:    -1.1696      Z:    -0.0000     Total:     1.2668

*** Psi4 exiting successfully. Buy a developer a beer!
