                               Psi4 1.4a3.dev225

  ==> Input File <==

--------------------------------------------------------------------------
#psi4
#
memory 32 gb

molecule  {
0 1
  S        1.2258560    -1.1625810    -0.0000180
  N        0.3264180     1.2510610     0.0000150
  C       -1.5198050    -0.4073720    -0.0000100
  C       -0.0524563     0.0165332    -0.0000036
  C       -2.2053760     0.1167870    -1.2644160
  C       -2.2053680     0.1167230     1.2644280
  C        2.3605110     0.1219000     0.0000040
  C        1.6961240     1.3252530     0.0000200
  H       -1.5697880    -1.5042720    -0.0000380
  H       -2.1392250     1.2073760    -1.2930360
  H       -3.2606770    -0.1742520    -1.2762350
  H       -1.7266260    -0.2804090    -2.1642060
  H       -1.7266100    -0.2805170     2.1641940
  H       -3.2606680    -0.1743180     1.2762400
  H       -2.1392170     1.2073110     1.2931010
  H        3.4272510    -0.0583780     0.0000030
  H        2.1774630     2.2973190     0.0000360
units angstrom
no_reorient  #important for SAPT in psi4, default
symmetry c1  #important for SAPT in psi4, default
}

set PROPERTIES_ORIGIN ["COM"]
properties('MP2/aug-cc-pvtz', properties = ['dipole'])
--------------------------------------------------------------------------

    Molecular point group: c1
  Charge       = 0
  Multiplicity = 1
  Basis Set: AUG-CC-PVTZ
    Blend: AUG-CC-PVTZ
  Basis Set: (AUG-CC-PVTZ AUX)
    Blend: AUG-CC-PVTZ-JKFIT

    Orbital Energies [Eh]
    ---------------------

    Doubly Occupied:

       1A    -91.992392     2A    -15.562757     3A    -11.307447
       4A    -11.269017     5A    -11.260987     6A    -11.249928
       7A    -11.218549     8A    -11.218534     9A     -8.993276
      10A     -6.674187    11A     -6.673633    12A     -6.672902
      13A     -1.283847    14A     -1.090622    15A     -1.064096
      16A     -0.981109    17A     -0.934938    18A     -0.835155
      19A     -0.795865    20A     -0.716338    21A     -0.684285
      22A     -0.624058    23A     -0.600751    24A     -0.587152
      25A     -0.568631    26A     -0.546058    27A     -0.532257
      28A     -0.505004    29A     -0.496951    30A     -0.486469
      31A     -0.482393    32A     -0.422057    33A     -0.389826
      34A     -0.329382

  @DF-RHF Final Energy:  -684.53475535545249

   => Energetics <=

    Nuclear Repulsion Energy =            437.7269701221867422
    One-Electron Energy =               -1806.4217504376028955
    Two-Electron Energy =                 684.1600249599637209
    Total Energy =                       -684.5347553554524893
  Basis Set: (AUG-CC-PVTZ AUX)
    Blend: AUG-CC-PVTZ-RI
    Molecular point group: c1

    Geometry (in Angstrom), charge = 0, multiplicity = 1:

       Center              X                  Y                   Z               Mass
    ------------   -----------------  -----------------  -----------------  -----------------
         S            1.144393001208    -1.147498653349    -0.000017707274    31.972071174400
         N            0.244955001208     1.266143346651     0.000015292726    14.003074004430
         C           -1.601267998792    -0.392289653349    -0.000009707274    12.000000000000
         C           -0.133919298792     0.031615546651    -0.000003307274    12.000000000000
         C           -2.286838998792     0.131869346651    -1.264415707274    12.000000000000
         C           -2.286830998792     0.131805346651     1.264428292726    12.000000000000
         C            2.279048001208     0.136982346651     0.000004292726    12.000000000000
         C            1.614661001208     1.340335346651     0.000020292726    12.000000000000
         H           -1.651250998792    -1.489189653349    -0.000037707274     1.007825032230
         H           -2.220687998792     1.222458346651    -1.293035707274     1.007825032230
         H           -3.342139998792    -0.159169653349    -1.276234707274     1.007825032230
         H           -1.808088998792    -0.265326653349    -2.164205707274     1.007825032230
         H           -1.808072998792    -0.265434653349     2.164194292726     1.007825032230
         H           -3.342130998792    -0.159235653349     1.276240292726     1.007825032230
         H           -2.220679998792     1.222393346651     1.293101292726     1.007825032230
         H            3.345788001208    -0.043295653349     0.000003292726     1.007825032230
         H            2.096000001208     2.312401346651     0.000036292726     1.007825032230

  Basis Set: AUG-CC-PVTZ
    Blend: AUG-CC-PVTZ
  Basis Set: (AUG-CC-PVTZ AUX)
    Blend: AUG-CC-PVTZ-JKFIT
	 Reference Energy          =    -684.5347553554524893 [Eh]
	 Singles Energy            =      -0.0000000000000000 [Eh]
	 Same-Spin Energy          =      -0.3759904507166495 [Eh]
	 Opposite-Spin Energy      =      -1.1955846330857687 [Eh]
	 Correlation Energy        =      -1.5715750838024181 [Eh]
	 Total Energy              =    -686.1063304392548616 [Eh]

	 ================> DF-SCS-MP2 Energies <==================
	-----------------------------------------------------------
	 SCS Same-Spin Scale       =       0.3333333333333333 [-]
	 SCS Opposite-Spin Scale   =       1.2000000000000000 [-]
	 SCS Same-Spin Energy      =      -0.1253301502388832 [Eh]
	 SCS Opposite-Spin Energy  =      -1.4347015597029225 [Eh]
	 SCS Correlation Energy    =      -1.5600317099418055 [Eh]
	 SCS Total Energy          =    -686.0947870653942573 [Eh]
	-----------------------------------------------------------

  Dipole Moment: [D]
     X:     0.5032      Y:    -1.1164      Z:    -0.0000     Total:     1.2245

*** Psi4 exiting successfully. Buy a developer a beer!
