                               Psi4 1.4a3.dev225

  ==> Input File <==

--------------------------------------------------------------------------
#psi4
#
memory 32 gb

molecule  {
0 1
  S        1.2258560    -1.1625810    -0.0000180
  N        0.3264180     1.2510610     0.0000150
  C       -1.5198050    -0.4073720    -0.0000100
  C       -0.0728400    -0.0059560    -0.0000040
  C       -2.2501600     0.1510269    -1.3470115
  C       -2.2053680     0.1167230     1.2644280
  C        2.3605110     0.1219000     0.0000040
  C        1.6961240     1.3252530     0.0000200
  H       -1.5697880    -1.5042720    -0.0000380
  H       -2.1392250     1.2073760    -1.2930360
  H       -3.2606770    -0.1742520    -1.2762350
  H       -1.7266260    -0.2804090    -2.1642060
  H       -1.7266100    -0.2805170     2.1641940
  H       -3.2606680    -0.1743180     1.2762400
  H       -2.1392170     1.2073110     1.2931010
  H        3.4272510    -0.0583780     0.0000030
  H        2.1774630     2.2973190     0.0000360
units angstrom
no_reorient  #important for SAPT in psi4, default
symmetry c1  #important for SAPT in psi4, default
}

set PROPERTIES_ORIGIN ["COM"]
properties('MP2/aug-cc-pvtz', properties = ['dipole'])
--------------------------------------------------------------------------

    Molecular point group: c1
  Charge       = 0
  Multiplicity = 1
  Basis Set: AUG-CC-PVTZ
    Blend: AUG-CC-PVTZ
  Basis Set: (AUG-CC-PVTZ AUX)
    Blend: AUG-CC-PVTZ-JKFIT

    Orbital Energies [Eh]
    ---------------------

    Doubly Occupied:

       1A    -91.993443     2A    -15.563238     3A    -11.309684
       4A    -11.268541     5A    -11.259923     6A    -11.252473
       7A    -11.219306     8A    -11.217888     9A     -8.994104
      10A     -6.675005    11A     -6.674494    12A     -6.673780
      13A     -1.273911    14A     -1.084204    15A     -1.060617
      16A     -0.979181    17A     -0.937571    18A     -0.842127
      19A     -0.791868    20A     -0.714521    21A     -0.681290
      22A     -0.621903    23A     -0.603118    24A     -0.583975
      25A     -0.569333    26A     -0.553221    27A     -0.538281
      28A     -0.504663    29A     -0.503711    30A     -0.490749
      31A     -0.465460    32A     -0.420591    33A     -0.386436
      34A     -0.326265

  @DF-RHF Final Energy:  -684.52678131911068

   => Energetics <=

    Nuclear Repulsion Energy =            435.8729598503434772
    One-Electron Energy =               -1802.7297263116336126
    Two-Electron Energy =                 682.3299851421794529
    Total Energy =                       -684.5267813191106825
  Basis Set: (AUG-CC-PVTZ AUX)
    Blend: AUG-CC-PVTZ-RI
    Molecular point group: c1

    Geometry (in Angstrom), charge = 0, multiplicity = 1:

       Center              X                  Y                   Z               Mass
    ------------   -----------------  -----------------  -----------------  -----------------
         S            1.150548370476    -1.148608557453     0.007783830366    31.972071174400
         N            0.251110370476     1.265033442547     0.007816830366    14.003074004430
         C           -1.595112629524    -0.393399557453     0.007791830366    12.000000000000
         C           -0.148147629524     0.008016442547     0.007797830366    12.000000000000
         C           -2.325467629524     0.164999342547    -1.339209669634    12.000000000000
         C           -2.280675629524     0.130695442547     1.272229830366    12.000000000000
         C            2.285203370476     0.135872442547     0.007805830366    12.000000000000
         C            1.620816370476     1.339225442547     0.007821830366    12.000000000000
         H           -1.645095629524    -1.490299557453     0.007763830366     1.007825032230
         H           -2.214532629524     1.221348442547    -1.285234169634     1.007825032230
         H           -3.335984629524    -0.160279557453    -1.268433169634     1.007825032230
         H           -1.801933629524    -0.266436557453    -2.156404169634     1.007825032230
         H           -1.801917629524    -0.266544557453     2.171995830366     1.007825032230
         H           -3.335975629524    -0.160345557453     1.284041830366     1.007825032230
         H           -2.214524629524     1.221283442547     1.300902830366     1.007825032230
         H            3.351943370476    -0.044405557453     0.007804830366     1.007825032230
         H            2.102155370476     2.311291442547     0.007837830366     1.007825032230

  Basis Set: AUG-CC-PVTZ
    Blend: AUG-CC-PVTZ
  Basis Set: (AUG-CC-PVTZ AUX)
    Blend: AUG-CC-PVTZ-JKFIT
	 Reference Energy          =    -684.5267813191106825 [Eh]
	 Singles Energy            =      -0.0000000000000000 [Eh]
	 Same-Spin Energy          =      -0.3765614192947346 [Eh]
	 Opposite-Spin Energy      =      -1.1967531099605346 [Eh]
	 Correlation Energy        =      -1.5733145292552693 [Eh]
	 Total Energy              =    -686.1000958483659815 [Eh]

	 ================> DF-SCS-MP2 Energies <==================
	-----------------------------------------------------------
	 SCS Same-Spin Scale       =       0.3333333333333333 [-]
	 SCS Opposite-Spin Scale   =       1.2000000000000000 [-]
	 SCS Same-Spin Energy      =      -0.1255204730982449 [Eh]
	 SCS Opposite-Spin Energy  =      -1.4361037319526415 [Eh]
	 SCS Correlation Energy    =      -1.5616242050508864 [Eh]
	 SCS Total Energy          =    -686.0884055241615442 [Eh]
	-----------------------------------------------------------

  Dipole Moment: [D]
     X:     0.4701      Y:    -1.1576      Z:     0.0090     Total:     1.2494

*** Psi4 exiting successfully. Buy a developer a beer!
