                               Psi4 1.4a3.dev225

  ==> Input File <==

--------------------------------------------------------------------------
#psi4
#
memory 32 gb

molecule  {
0 1
  S        1.2258560    -1.1625810    -0.0000180
  N        0.3264180     1.2510610     0.0000150
  C       -1.5139216    -0.3822514     0.0069314
  C       -0.0728400    -0.0059560    -0.0000040
  C       -2.2053760     0.1167870    -1.2644160
  C       -2.2053680     0.1167230     1.2644280
  C        2.3605110     0.1219000     0.0000040
  C        1.6961240     1.3252530     0.0000200
  H       -1.5697880    -1.5042720    -0.0000380
  H       -2.1392250     1.2073760    -1.2930360
  H       -3.2606770    -0.1742520    -1.2762350
  H       -1.7266260    -0.2804090    -2.1642060
  H       -1.7266100    -0.2805170     2.1641940
  H       -3.2606680    -0.1743180     1.2762400
  H       -2.1392170     1.2073110     1.2931010
  H        3.4272510    -0.0583780     0.0000030
  H        2.1774630     2.2973190     0.0000360
units angstrom
no_reorient  #important for SAPT in psi4, default
symmetry c1  #important for SAPT in psi4, default
}

set PROPERTIES_ORIGIN ["COM"]
properties('MP2/aug-cc-pvtz', properties = ['dipole'])
--------------------------------------------------------------------------

    Molecular point group: c1
  Charge       = 0
  Multiplicity = 1
  Basis Set: AUG-CC-PVTZ
    Blend: AUG-CC-PVTZ
  Basis Set: (AUG-CC-PVTZ AUX)
    Blend: AUG-CC-PVTZ-JKFIT

    Orbital Energies [Eh]
    ---------------------

    Doubly Occupied:

       1A    -91.994711     2A    -15.563943     3A    -11.309500
       4A    -11.268967     5A    -11.260812     6A    -11.249850
       7A    -11.219364     8A    -11.218900     9A     -8.995282
      10A     -6.676176    11A     -6.675678    12A     -6.674957
      13A     -1.275307    14A     -1.096190    15A     -1.061499
      16A     -0.981538    17A     -0.936826    18A     -0.840523
      19A     -0.792636    20A     -0.715193    21A     -0.682371
      22A     -0.626208    23A     -0.602191    24A     -0.588258
      25A     -0.567093    26A     -0.544825    27A     -0.531781
      28A     -0.503763    29A     -0.502262    30A     -0.489696
      31A     -0.475860    32A     -0.422947    33A     -0.387137
      34A     -0.328206

  @DF-RHF Final Energy:  -684.53244682245759

   => Energetics <=

    Nuclear Repulsion Energy =            437.7944393131539300
    One-Electron Energy =               -1806.5328739208291609
    Two-Electron Energy =                 684.2059877852175305
    Total Energy =                       -684.5324468224575867
  Basis Set: (AUG-CC-PVTZ AUX)
    Blend: AUG-CC-PVTZ-RI
    Molecular point group: c1

    Geometry (in Angstrom), charge = 0, multiplicity = 1:

       Center              X                  Y                   Z               Mass
    ------------   -----------------  -----------------  -----------------  -----------------
         S            1.145762616846    -1.147747200385    -0.000673314547    31.972071174400
         N            0.246324616846     1.265894799615    -0.000640314547    14.003074004430
         C           -1.594014983154    -0.367417600385     0.006276085453    12.000000000000
         C           -0.152933383154     0.008877799615    -0.000659314547    12.000000000000
         C           -2.285469383154     0.131620799615    -1.265071314547    12.000000000000
         C           -2.285461383154     0.131556799615     1.263772685453    12.000000000000
         C            2.280417616846     0.136733799615    -0.000651314547    12.000000000000
         C            1.616030616846     1.340086799615    -0.000635314547    12.000000000000
         H           -1.649881383154    -1.489438200385    -0.000693314547     1.007825032230
         H           -2.219318383154     1.222209799615    -1.293691314547     1.007825032230
         H           -3.340770383154    -0.159418200385    -1.276890314547     1.007825032230
         H           -1.806719383154    -0.265575200385    -2.164861314547     1.007825032230
         H           -1.806703383154    -0.265683200385     2.163538685453     1.007825032230
         H           -3.340761383154    -0.159484200385     1.275584685453     1.007825032230
         H           -2.219310383154     1.222144799615     1.292445685453     1.007825032230
         H            3.347157616846    -0.043544200385    -0.000652314547     1.007825032230
         H            2.097369616846     2.312152799615    -0.000619314547     1.007825032230

  Basis Set: AUG-CC-PVTZ
    Blend: AUG-CC-PVTZ
  Basis Set: (AUG-CC-PVTZ AUX)
    Blend: AUG-CC-PVTZ-JKFIT
	 Reference Energy          =    -684.5324468224575867 [Eh]
	 Singles Energy            =      -0.0000000000000000 [Eh]
	 Same-Spin Energy          =      -0.3770667774956065 [Eh]
	 Opposite-Spin Energy      =      -1.1970802382915380 [Eh]
	 Correlation Energy        =      -1.5741470157871444 [Eh]
	 Total Energy              =    -686.1065938382447484 [Eh]

	 ================> DF-SCS-MP2 Energies <==================
	-----------------------------------------------------------
	 SCS Same-Spin Scale       =       0.3333333333333333 [-]
	 SCS Opposite-Spin Scale   =       1.2000000000000000 [-]
	 SCS Same-Spin Energy      =      -0.1256889258318688 [Eh]
	 SCS Opposite-Spin Energy  =      -1.4364962859498456 [Eh]
	 SCS Correlation Energy    =      -1.5621852117817143 [Eh]
	 SCS Total Energy          =    -686.0946320342393392 [Eh]
	-----------------------------------------------------------

  Dipole Moment: [D]
     X:     0.5157      Y:    -1.1328      Z:     0.0049     Total:     1.2447

*** Psi4 exiting successfully. Buy a developer a beer!
