                               Psi4 1.4a3.dev225

  ==> Input File <==

--------------------------------------------------------------------------
#psi4
#
memory 32 gb

molecule  {
0 1
  S        1.2258560    -1.1625810    -0.0000180
  N        0.3264180     1.2510610     0.0000150
  C       -1.5454081    -0.5061821    -0.0316043
  C       -0.0728400    -0.0059560    -0.0000040
  C       -2.2053760     0.1167870    -1.2644160
  C       -2.2053680     0.1167230     1.2644280
  C        2.3605110     0.1219000     0.0000040
  C        1.6961240     1.3252530     0.0000200
  H       -1.5697880    -1.5042720    -0.0000380
  H       -2.1392250     1.2073760    -1.2930360
  H       -3.2606770    -0.1742520    -1.2762350
  H       -1.7266260    -0.2804090    -2.1642060
  H       -1.7266100    -0.2805170     2.1641940
  H       -3.2606680    -0.1743180     1.2762400
  H       -2.1392170     1.2073110     1.2931010
  H        3.4272510    -0.0583780     0.0000030
  H        2.1774630     2.2973190     0.0000360
units angstrom
no_reorient  #important for SAPT in psi4, default
symmetry c1  #important for SAPT in psi4, default
}

set PROPERTIES_ORIGIN ["COM"]
properties('MP2/aug-cc-pvtz', properties = ['dipole'])
--------------------------------------------------------------------------

    Molecular point group: c1
  Charge       = 0
  Multiplicity = 1
  Basis Set: AUG-CC-PVTZ
    Blend: AUG-CC-PVTZ
  Basis Set: (AUG-CC-PVTZ AUX)
    Blend: AUG-CC-PVTZ-JKFIT

    Orbital Energies [Eh]
    ---------------------

    Doubly Occupied:

       1A    -91.990970     2A    -15.563755     3A    -11.312262
       4A    -11.268452     5A    -11.258844     6A    -11.249373
       7A    -11.221730     8A    -11.220110     9A     -8.991859
      10A     -6.672780    11A     -6.672222    12A     -6.671539
      13A     -1.272489    14A     -1.088857    15A     -1.059818
      16A     -0.978503    17A     -0.931878    18A     -0.842796
      19A     -0.791941    20A     -0.723826    21A     -0.684756
      22A     -0.623103    23A     -0.599330    24A     -0.581641
      25A     -0.567307    26A     -0.548871    27A     -0.529926
      28A     -0.518796    29A     -0.498110    30A     -0.487800
      31A     -0.473831    32A     -0.417161    33A     -0.385801
      34A     -0.326220

  @DF-RHF Final Energy:  -684.52117021568608

   => Energetics <=

    Nuclear Repulsion Energy =            436.4212909943573777
    One-Electron Energy =               -1803.8316078700665912
    Two-Electron Energy =                 682.8891466600231297
    Total Energy =                       -684.5211702156860838
  Basis Set: (AUG-CC-PVTZ AUX)
    Blend: AUG-CC-PVTZ-RI
    Molecular point group: c1

    Geometry (in Angstrom), charge = 0, multiplicity = 1:

       Center              X                  Y                   Z               Mass
    ------------   -----------------  -----------------  -----------------  -----------------
         S            1.148736652057    -1.136041413285     0.002966547892    31.972071174400
         N            0.249298652057     1.277600586715     0.002999547892    14.003074004430
         C           -1.622527447943    -0.479642513285    -0.028619752108    12.000000000000
         C           -0.149959347943     0.020583586715     0.002980547892    12.000000000000
         C           -2.282495347943     0.143326586715    -1.261431452108    12.000000000000
         C           -2.282487347943     0.143262586715     1.267412547892    12.000000000000
         C            2.283391652057     0.148439586715     0.002988547892    12.000000000000
         C            1.619004652057     1.351792586715     0.003004547892    12.000000000000
         H           -1.646907347943    -1.477732413285     0.002946547892     1.007825032230
         H           -2.216344347943     1.233915586715    -1.290051452108     1.007825032230
         H           -3.337796347943    -0.147712413285    -1.273250452108     1.007825032230
         H           -1.803745347943    -0.253869413285    -2.161221452108     1.007825032230
         H           -1.803729347943    -0.253977413285     2.167178547892     1.007825032230
         H           -3.337787347943    -0.147778413285     1.279224547892     1.007825032230
         H           -2.216336347943     1.233850586715     1.296085547892     1.007825032230
         H            3.350131652057    -0.031838413285     0.002987547892     1.007825032230
         H            2.100343652057     2.323858586715     0.003020547892     1.007825032230

  Basis Set: AUG-CC-PVTZ
    Blend: AUG-CC-PVTZ
  Basis Set: (AUG-CC-PVTZ AUX)
    Blend: AUG-CC-PVTZ-JKFIT
	 Reference Energy          =    -684.5211702156860838 [Eh]
	 Singles Energy            =      -0.0000000000000000 [Eh]
	 Same-Spin Energy          =      -0.3765453162188735 [Eh]
	 Opposite-Spin Energy      =      -1.1966944443154877 [Eh]
	 Correlation Energy        =      -1.5732397605343611 [Eh]
	 Total Energy              =    -686.0944099762203905 [Eh]

	 ================> DF-SCS-MP2 Energies <==================
	-----------------------------------------------------------
	 SCS Same-Spin Scale       =       0.3333333333333333 [-]
	 SCS Opposite-Spin Scale   =       1.2000000000000000 [-]
	 SCS Same-Spin Energy      =      -0.1255151054062912 [Eh]
	 SCS Opposite-Spin Energy  =      -1.4360333331785851 [Eh]
	 SCS Correlation Energy    =      -1.5615484385848761 [Eh]
	 SCS Total Energy          =    -686.0827186542709342 [Eh]
	-----------------------------------------------------------

  Dipole Moment: [D]
     X:     0.4064      Y:    -1.1725      Z:    -0.0233     Total:     1.2411

*** Psi4 exiting successfully. Buy a developer a beer!
