                               Psi4 1.4a3.dev225

  ==> Input File <==

--------------------------------------------------------------------------
#psi4
#
memory 32 gb

molecule  {
0 1
  S        1.2258560    -1.1625810    -0.0000180
  N        0.3264180     1.2510610     0.0000150
  C       -1.5198050    -0.4073720    -0.0000100
  C       -0.0728400    -0.0059560    -0.0000040
  C       -2.2250846     0.0152685    -1.2912995
  C       -2.2053680     0.1167230     1.2644280
  C        2.3605110     0.1219000     0.0000040
  C        1.6961240     1.3252530     0.0000200
  H       -1.5697880    -1.5042720    -0.0000380
  H       -2.1392250     1.2073760    -1.2930360
  H       -3.2606770    -0.1742520    -1.2762350
  H       -1.7266260    -0.2804090    -2.1642060
  H       -1.7266100    -0.2805170     2.1641940
  H       -3.2606680    -0.1743180     1.2762400
  H       -2.1392170     1.2073110     1.2931010
  H        3.4272510    -0.0583780     0.0000030
  H        2.1774630     2.2973190     0.0000360
units angstrom
no_reorient  #important for SAPT in psi4, default
symmetry c1  #important for SAPT in psi4, default
}

set PROPERTIES_ORIGIN ["COM"]
properties('MP2/aug-cc-pvtz', properties = ['dipole'])
--------------------------------------------------------------------------

    Molecular point group: c1
  Charge       = 0
  Multiplicity = 1
  Basis Set: AUG-CC-PVTZ
    Blend: AUG-CC-PVTZ
  Basis Set: (AUG-CC-PVTZ AUX)
    Blend: AUG-CC-PVTZ-JKFIT

    Orbital Energies [Eh]
    ---------------------

    Doubly Occupied:

       1A    -91.994398     2A    -15.564478     3A    -11.310387
       4A    -11.268994     5A    -11.260918     6A    -11.249870
       7A    -11.220839     8A    -11.220098     9A     -8.995004
      10A     -6.675899    11A     -6.675392    12A     -6.674678
      13A     -1.274843    14A     -1.094000    15A     -1.061509
      16A     -0.981333    17A     -0.938007    18A     -0.840324
      19A     -0.792687    20A     -0.717001    21A     -0.682734
      22A     -0.625067    23A     -0.610527    24A     -0.590769
      25A     -0.568291    26A     -0.542119    27A     -0.526634
      28A     -0.504555    29A     -0.502085    30A     -0.496626
      31A     -0.463150    32A     -0.421508    33A     -0.386956
      34A     -0.328626

  @DF-RHF Final Energy:  -684.52245404453504

   => Energetics <=

    Nuclear Repulsion Energy =            437.1304337701395184
    One-Electron Energy =               -1805.1851656412718512
    Two-Electron Energy =                 683.5322778265973511
    Total Energy =                       -684.5224540445350385
  Basis Set: (AUG-CC-PVTZ AUX)
    Blend: AUG-CC-PVTZ-RI
    Molecular point group: c1

    Geometry (in Angstrom), charge = 0, multiplicity = 1:

       Center              X                  Y                   Z               Mass
    ------------   -----------------  -----------------  -----------------  -----------------
         S            1.148179891206    -1.135785593268     0.002521592591    31.972071174400
         N            0.248741891206     1.277856406732     0.002554592591    14.003074004430
         C           -1.597481108794    -0.380576593268     0.002529592591    12.000000000000
         C           -0.150516108794     0.020839406732     0.002535592591    12.000000000000
         C           -2.302760708794     0.042063906732    -1.288759907409    12.000000000000
         C           -2.283044108794     0.143518406732     1.266967592591    12.000000000000
         C            2.282834891206     0.148695406732     0.002543592591    12.000000000000
         C            1.618447891206     1.352048406732     0.002559592591    12.000000000000
         H           -1.647464108794    -1.477476593268     0.002501592591     1.007825032230
         H           -2.216901108794     1.234171406732    -1.290496407409     1.007825032230
         H           -3.338353108794    -0.147456593268    -1.273695407409     1.007825032230
         H           -1.804302108794    -0.253613593268    -2.161666407409     1.007825032230
         H           -1.804286108794    -0.253721593268     2.166733592591     1.007825032230
         H           -3.338344108794    -0.147522593268     1.278779592591     1.007825032230
         H           -2.216893108794     1.234106406732     1.295640592591     1.007825032230
         H            3.349574891206    -0.031582593268     0.002542592591     1.007825032230
         H            2.099786891206     2.324114406732     0.002575592591     1.007825032230

  Basis Set: AUG-CC-PVTZ
    Blend: AUG-CC-PVTZ
  Basis Set: (AUG-CC-PVTZ AUX)
    Blend: AUG-CC-PVTZ-JKFIT
	 Reference Energy          =    -684.5224540445350385 [Eh]
	 Singles Energy            =      -0.0000000000000000 [Eh]
	 Same-Spin Energy          =      -0.3771114471442384 [Eh]
	 Opposite-Spin Energy      =      -1.1973574402744087 [Eh]
	 Correlation Energy        =      -1.5744688874186470 [Eh]
	 Total Energy              =    -686.0969229319537135 [Eh]

	 ================> DF-SCS-MP2 Energies <==================
	-----------------------------------------------------------
	 SCS Same-Spin Scale       =       0.3333333333333333 [-]
	 SCS Opposite-Spin Scale   =       1.2000000000000000 [-]
	 SCS Same-Spin Energy      =      -0.1257038157147461 [Eh]
	 SCS Opposite-Spin Energy  =      -1.4368289283292903 [Eh]
	 SCS Correlation Energy    =      -1.5625327440440364 [Eh]
	 SCS Total Energy          =    -686.0849867885790445 [Eh]
	-----------------------------------------------------------

  Dipole Moment: [D]
     X:     0.5177      Y:    -1.1813      Z:     0.0077     Total:     1.2898

*** Psi4 exiting successfully. Buy a developer a beer!
