                               Psi4 1.4a3.dev225

  ==> Input File <==

--------------------------------------------------------------------------
#psi4
#
memory 32 gb

molecule  {
0 1
  S        1.2258560    -1.1625810    -0.0000180
  N        0.3264180     1.2510610     0.0000150
  C       -1.5198050    -0.4073720    -0.0000100
  C       -0.1333841    -0.1965719    -0.0000069
  C       -2.2053760     0.1167870    -1.2644160
  C       -2.2053680     0.1167230     1.2644280
  C        2.3605110     0.1219000     0.0000040
  C        1.6961240     1.3252530     0.0000200
  H       -1.5697880    -1.5042720    -0.0000380
  H       -2.1392250     1.2073760    -1.2930360
  H       -3.2606770    -0.1742520    -1.2762350
  H       -1.7266260    -0.2804090    -2.1642060
  H       -1.7266100    -0.2805170     2.1641940
  H       -3.2606680    -0.1743180     1.2762400
  H       -2.1392170     1.2073110     1.2931010
  H        3.4272510    -0.0583780     0.0000030
  H        2.1774630     2.2973190     0.0000360
units angstrom
no_reorient  #important for SAPT in psi4, default
symmetry c1  #important for SAPT in psi4, default
}

set PROPERTIES_ORIGIN ["COM"]
properties('MP2/aug-cc-pvtz', properties = ['dipole'])
--------------------------------------------------------------------------

    Molecular point group: c1
  Charge       = 0
  Multiplicity = 1
  Basis Set: AUG-CC-PVTZ
    Blend: AUG-CC-PVTZ
  Basis Set: (AUG-CC-PVTZ AUX)
    Blend: AUG-CC-PVTZ-JKFIT

    Orbital Energies [Eh]
    ---------------------

    Doubly Occupied:

       1A    -92.010135     2A    -15.565634     3A    -11.318517
       4A    -11.269397     5A    -11.254550     6A    -11.246243
       7A    -11.222070     8A    -11.222054     9A     -9.010119
      10A     -6.691123    11A     -6.690608    12A     -6.690111
      13A     -1.234003    14A     -1.110966    15A     -1.055799
      16A     -0.978773    17A     -0.937863    18A     -0.863146
      19A     -0.771595    20A     -0.720766    21A     -0.674868
      22A     -0.630614    23A     -0.605356    24A     -0.587810
      25A     -0.552494    26A     -0.543280    27A     -0.526394
      28A     -0.515904    29A     -0.502052    30A     -0.490091
      31A     -0.482467    32A     -0.409135    33A     -0.379287
      34A     -0.314161

  @DF-RHF Final Energy:  -684.48177063069488

   => Energetics <=

    Nuclear Repulsion Energy =            436.9440009899655593
    One-Electron Energy =               -1804.6967808151484860
    Two-Electron Energy =                 683.2710091944879878
    Total Energy =                       -684.4817706306948821
  Basis Set: (AUG-CC-PVTZ AUX)
    Blend: AUG-CC-PVTZ-RI
    Molecular point group: c1

    Geometry (in Angstrom), charge = 0, multiplicity = 1:

       Center              X                  Y                   Z               Mass
    ------------   -----------------  -----------------  -----------------  -----------------
         S            1.152036979636    -1.127369961018    -0.000017395575    31.972071174400
         N            0.252598979636     1.286272038982     0.000015604425    14.003074004430
         C           -1.593624020364    -0.372160961018    -0.000009395575    12.000000000000
         C           -0.207203120364    -0.161360861018    -0.000006295575    12.000000000000
         C           -2.279195020364     0.151998038982    -1.264415395575    12.000000000000
         C           -2.279187020364     0.151934038982     1.264428604425    12.000000000000
         C            2.286691979636     0.157111038982     0.000004604425    12.000000000000
         C            1.622304979636     1.360464038982     0.000020604425    12.000000000000
         H           -1.643607020364    -1.469060961018    -0.000037395575     1.007825032230
         H           -2.213044020364     1.242587038982    -1.293035395575     1.007825032230
         H           -3.334496020364    -0.139040961018    -1.276234395575     1.007825032230
         H           -1.800445020364    -0.245197961018    -2.164205395575     1.007825032230
         H           -1.800429020364    -0.245305961018     2.164194604425     1.007825032230
         H           -3.334487020364    -0.139106961018     1.276240604425     1.007825032230
         H           -2.213036020364     1.242522038982     1.293101604425     1.007825032230
         H            3.353431979636    -0.023166961018     0.000003604425     1.007825032230
         H            2.103643979636     2.332530038982     0.000036604425     1.007825032230

  Basis Set: AUG-CC-PVTZ
    Blend: AUG-CC-PVTZ
  Basis Set: (AUG-CC-PVTZ AUX)
    Blend: AUG-CC-PVTZ-JKFIT
	 Reference Energy          =    -684.4817706306948821 [Eh]
	 Singles Energy            =      -0.0000000000000000 [Eh]
	 Same-Spin Energy          =      -0.3837818512036465 [Eh]
	 Opposite-Spin Energy      =      -1.2070683235262072 [Eh]
	 Correlation Energy        =      -1.5908501747298538 [Eh]
	 Total Energy              =    -686.0726208054247763 [Eh]

	 ================> DF-SCS-MP2 Energies <==================
	-----------------------------------------------------------
	 SCS Same-Spin Scale       =       0.3333333333333333 [-]
	 SCS Opposite-Spin Scale   =       1.2000000000000000 [-]
	 SCS Same-Spin Energy      =      -0.1279272837345488 [Eh]
	 SCS Opposite-Spin Energy  =      -1.4484819882314486 [Eh]
	 SCS Correlation Energy    =      -1.5764092719659974 [Eh]
	 SCS Total Energy          =    -686.0581799026608678 [Eh]
	-----------------------------------------------------------

  Dipole Moment: [D]
     X:     0.6667      Y:    -1.3326      Z:    -0.0000     Total:     1.4901

*** Psi4 exiting successfully. Buy a developer a beer!
