                               Psi4 1.4a3.dev225

  ==> Input File <==

--------------------------------------------------------------------------
#psi4
#
memory 32 gb

molecule  {
0 1
  S        1.2258560    -1.1625810    -0.0000180
  N        0.3264180     1.2510610     0.0000150
  C       -1.5198050    -0.4073720    -0.0000100
  C       -0.0728400    -0.0059560    -0.0000040
  C       -2.2053760     0.1167870    -1.2644160
  C       -2.2053680     0.1167230     1.2644280
  C        2.3605110     0.1219000     0.0000040
  C        1.6961240     1.3252530     0.0000200
  H       -1.5697880    -1.5042720    -0.0000380
  H       -2.1392250     1.2073760    -1.2930360
  H       -3.3570725    -0.2008367    -1.2773146
  H       -1.7266260    -0.2804090    -2.1642060
  H       -1.7266100    -0.2805170     2.1641940
  H       -3.2606680    -0.1743180     1.2762400
  H       -2.1392170     1.2073110     1.2931010
  H        3.4272510    -0.0583780     0.0000030
  H        2.1774630     2.2973190     0.0000360
units angstrom
no_reorient  #important for SAPT in psi4, default
symmetry c1  #important for SAPT in psi4, default
}

set PROPERTIES_ORIGIN ["COM"]
properties('MP2/aug-cc-pvtz', properties = ['dipole'])
--------------------------------------------------------------------------

    Molecular point group: c1
  Charge       = 0
  Multiplicity = 1
  Basis Set: AUG-CC-PVTZ
    Blend: AUG-CC-PVTZ
  Basis Set: (AUG-CC-PVTZ AUX)
    Blend: AUG-CC-PVTZ-JKFIT

    Orbital Energies [Eh]
    ---------------------

    Doubly Occupied:

       1A    -91.994689     2A    -15.564787     3A    -11.310828
       4A    -11.269486     5A    -11.261160     6A    -11.250422
       7A    -11.231262     8A    -11.219284     9A     -8.995318
      10A     -6.676215    11A     -6.675707    12A     -6.674993
      13A     -1.275476    14A     -1.094149    15A     -1.061883
      16A     -0.980461    17A     -0.931534    18A     -0.837239
      19A     -0.793354    20A     -0.717052    21A     -0.683514
      22A     -0.625344    23A     -0.600096    24A     -0.582605
      25A     -0.567543    26A     -0.546157    27A     -0.524585
      28A     -0.504864    29A     -0.493116    30A     -0.487885
      31A     -0.483791    32A     -0.422659    33A     -0.387490
      34A     -0.328480

  @DF-RHF Final Energy:  -684.52713490178110

   => Energetics <=

    Nuclear Repulsion Energy =            437.0880203233669477
    One-Electron Energy =               -1805.1234549046357643
    Two-Electron Energy =                 683.5082996794877772
    Total Energy =                       -684.5271349017810962
  Basis Set: (AUG-CC-PVTZ AUX)
    Blend: AUG-CC-PVTZ-RI
    Molecular point group: c1

    Geometry (in Angstrom), charge = 0, multiplicity = 1:

       Center              X                  Y                   Z               Mass
    ------------   -----------------  -----------------  -----------------  -----------------
         S            1.147083013907    -1.145163561106    -0.000009105259    31.972071174400
         N            0.247645013907     1.268478438894     0.000023894741    14.003074004430
         C           -1.598577986093    -0.389954561106    -0.000001105259    12.000000000000
         C           -0.151612986093     0.011461438894     0.000004894741    12.000000000000
         C           -2.284148986093     0.134204438894    -1.264407105259    12.000000000000
         C           -2.284140986093     0.134140438894     1.264436894741    12.000000000000
         C            2.281738013907     0.139317438894     0.000012894741    12.000000000000
         C            1.617351013907     1.342670438894     0.000028894741    12.000000000000
         H           -1.648560986093    -1.486854561106    -0.000029105259     1.007825032230
         H           -2.217997986093     1.224793438894    -1.293027105259     1.007825032230
         H           -3.435845486093    -0.183419261106    -1.277305705259     1.007825032230
         H           -1.805398986093    -0.262991561106    -2.164197105259     1.007825032230
         H           -1.805382986093    -0.263099561106     2.164202894741     1.007825032230
         H           -3.339440986093    -0.156900561106     1.276248894741     1.007825032230
         H           -2.217989986093     1.224728438894     1.293109894741     1.007825032230
         H            3.348478013907    -0.040960561106     0.000011894741     1.007825032230
         H            2.098690013907     2.314736438894     0.000044894741     1.007825032230

  Basis Set: AUG-CC-PVTZ
    Blend: AUG-CC-PVTZ
  Basis Set: (AUG-CC-PVTZ AUX)
    Blend: AUG-CC-PVTZ-JKFIT
	 Reference Energy          =    -684.5271349017810962 [Eh]
	 Singles Energy            =      -0.0000000000000000 [Eh]
	 Same-Spin Energy          =      -0.3769068356806540 [Eh]
	 Opposite-Spin Energy      =      -1.1975369601626713 [Eh]
	 Correlation Energy        =      -1.5744437958433253 [Eh]
	 Total Energy              =    -686.1015786976244044 [Eh]

	 ================> DF-SCS-MP2 Energies <==================
	-----------------------------------------------------------
	 SCS Same-Spin Scale       =       0.3333333333333333 [-]
	 SCS Opposite-Spin Scale   =       1.2000000000000000 [-]
	 SCS Same-Spin Energy      =      -0.1256356118935513 [Eh]
	 SCS Opposite-Spin Energy  =      -1.4370443521952054 [Eh]
	 SCS Correlation Energy    =      -1.5626799640887568 [Eh]
	 SCS Total Energy          =    -686.0898148658698119 [Eh]
	-----------------------------------------------------------

  Dipole Moment: [D]
     X:     0.5891      Y:    -1.1314      Z:     0.0189     Total:     1.2757

*** Psi4 exiting successfully. Buy a developer a beer!
