                               Psi4 1.4a3.dev225

  ==> Input File <==

--------------------------------------------------------------------------
#psi4
#
memory 32 gb

molecule  {
0 1
  S        1.2258560    -1.1625810    -0.0000180
  N        0.3264180     1.2510610     0.0000150
  C       -1.5198050    -0.4073720    -0.0000100
  C       -0.0728400    -0.0059560    -0.0000040
  C       -2.2053760     0.1167870    -1.2644160
  C       -2.2053680     0.1167230     1.2644280
  C        2.3605110     0.1219000     0.0000040
  C        1.8958312     1.3360704     0.0000207
  H       -1.5697880    -1.5042720    -0.0000380
  H       -2.1392250     1.2073760    -1.2930360
  H       -3.2606770    -0.1742520    -1.2762350
  H       -1.7266260    -0.2804090    -2.1642060
  H       -1.7266100    -0.2805170     2.1641940
  H       -3.2606680    -0.1743180     1.2762400
  H       -2.1392170     1.2073110     1.2931010
  H        3.4272510    -0.0583780     0.0000030
  H        2.1774630     2.2973190     0.0000360
units angstrom
no_reorient  #important for SAPT in psi4, default
symmetry c1  #important for SAPT in psi4, default
}

set PROPERTIES_ORIGIN ["COM"]
properties('MP2/aug-cc-pvtz', properties = ['dipole'])
--------------------------------------------------------------------------

    Molecular point group: c1
  Charge       = 0
  Multiplicity = 1
  Basis Set: AUG-CC-PVTZ
    Blend: AUG-CC-PVTZ
  Basis Set: (AUG-CC-PVTZ AUX)
    Blend: AUG-CC-PVTZ-JKFIT

    Orbital Energies [Eh]
    ---------------------

    Doubly Occupied:

       1A    -91.990471     2A    -15.565398     3A    -11.306838
       4A    -11.266846     5A    -11.262339     6A    -11.249280
       7A    -11.218405     8A    -11.218390     9A     -8.991774
      10A     -6.672832    11A     -6.672070    12A     -6.671243
      13A     -1.239869    14A     -1.095168    15A     -1.051442
      16A     -0.994174    17A     -0.934714    18A     -0.844748
      19A     -0.790866    20A     -0.707853    21A     -0.694055
      22A     -0.625252    23A     -0.598555    24A     -0.581326
      25A     -0.548578    26A     -0.542245    27A     -0.528098
      28A     -0.525196    29A     -0.498166    30A     -0.486623
      31A     -0.478627    32A     -0.401628    33A     -0.372413
      34A     -0.353199

  @DF-RHF Final Energy:  -684.50113549145021

   => Energetics <=

    Nuclear Repulsion Energy =            434.7619300568483141
    One-Electron Energy =               -1800.5687630332695335
    Two-Electron Energy =                 681.3056974849710059
    Total Energy =                       -684.5011354914502135
  Basis Set: (AUG-CC-PVTZ AUX)
    Blend: AUG-CC-PVTZ-RI
    Molecular point group: c1

    Geometry (in Angstrom), charge = 0, multiplicity = 1:

       Center              X                  Y                   Z               Mass
    ------------   -----------------  -----------------  -----------------  -----------------
         S            1.127455126145    -1.146396201690    -0.000017735611    31.972071174400
         N            0.228017126145     1.267245798310     0.000015264389    14.003074004430
         C           -1.618205873855    -0.391187201690    -0.000009735611    12.000000000000
         C           -0.171240873855     0.010228798310    -0.000003735611    12.000000000000
         C           -2.303776873855     0.132971798310    -1.264415735611    12.000000000000
         C           -2.303768873855     0.132907798310     1.264428264389    12.000000000000
         C            2.262110126145     0.138084798310     0.000004264389    12.000000000000
         C            1.797430326145     1.352255198310     0.000020964389    12.000000000000
         H           -1.668188873855    -1.488087201690    -0.000037735611     1.007825032230
         H           -2.237625873855     1.223560798310    -1.293035735611     1.007825032230
         H           -3.359077873855    -0.158067201690    -1.276234735611     1.007825032230
         H           -1.825026873855    -0.264224201690    -2.164205735611     1.007825032230
         H           -1.825010873855    -0.264332201690     2.164194264389     1.007825032230
         H           -3.359068873855    -0.158133201690     1.276240264389     1.007825032230
         H           -2.237617873855     1.223495798310     1.293101264389     1.007825032230
         H            3.328850126145    -0.042193201690     0.000003264389     1.007825032230
         H            2.079062126145     2.313503798310     0.000036264389     1.007825032230

  Basis Set: AUG-CC-PVTZ
    Blend: AUG-CC-PVTZ
  Basis Set: (AUG-CC-PVTZ AUX)
    Blend: AUG-CC-PVTZ-JKFIT
	 Reference Energy          =    -684.5011354914502135 [Eh]
	 Singles Energy            =      -0.0000000000000000 [Eh]
	 Same-Spin Energy          =      -0.3741721367423627 [Eh]
	 Opposite-Spin Energy      =      -1.1979890665815258 [Eh]
	 Correlation Energy        =      -1.5721612033238885 [Eh]
	 Total Energy              =    -686.0732966947740579 [Eh]

	 ================> DF-SCS-MP2 Energies <==================
	-----------------------------------------------------------
	 SCS Same-Spin Scale       =       0.3333333333333333 [-]
	 SCS Opposite-Spin Scale   =       1.2000000000000000 [-]
	 SCS Same-Spin Energy      =      -0.1247240455807876 [Eh]
	 SCS Opposite-Spin Energy  =      -1.4375868798978308 [Eh]
	 SCS Correlation Energy    =      -1.5623109254786185 [Eh]
	 SCS Total Energy          =    -686.0634464169288549 [Eh]
	-----------------------------------------------------------

  Dipole Moment: [D]
     X:     0.5127      Y:    -1.0113      Z:    -0.0000     Total:     1.1338

*** Psi4 exiting successfully. Buy a developer a beer!
