                               Psi4 1.4a3.dev225

  ==> Input File <==

--------------------------------------------------------------------------
#psi4
#
memory 32 gb

molecule  {
0 1
  S        1.2258560    -1.1625810    -0.0000180
  N        0.3264180     1.2510610     0.0000150
  C       -1.5321963    -0.4571275     0.0150237
  C       -0.0728400    -0.0059560    -0.0000040
  C       -2.2053760     0.1167870    -1.2644160
  C       -2.2053680     0.1167230     1.2644280
  C        2.3605110     0.1219000     0.0000040
  C        1.6961240     1.3252530     0.0000200
  H       -1.5697880    -1.5042720    -0.0000380
  H       -2.1392250     1.2073760    -1.2930360
  H       -3.2606770    -0.1742520    -1.2762350
  H       -1.7266260    -0.2804090    -2.1642060
  H       -1.7266100    -0.2805170     2.1641940
  H       -3.2606680    -0.1743180     1.2762400
  H       -2.1392170     1.2073110     1.2931010
  H        3.4272510    -0.0583780     0.0000030
  H        2.1774630     2.2973190     0.0000360
units angstrom
no_reorient  #important for SAPT in psi4, default
symmetry c1  #important for SAPT in psi4, default
}

set PROPERTIES_ORIGIN ["COM"]
properties('MP2/aug-cc-pvtz', properties = ['dipole'])
--------------------------------------------------------------------------

    Molecular point group: c1
  Charge       = 0
  Multiplicity = 1
  Basis Set: AUG-CC-PVTZ
    Blend: AUG-CC-PVTZ
  Basis Set: (AUG-CC-PVTZ AUX)
    Blend: AUG-CC-PVTZ-JKFIT

    Orbital Energies [Eh]
    ---------------------

    Doubly Occupied:

       1A    -91.992453     2A    -15.563820     3A    -11.311085
       4A    -11.268675     5A    -11.259628     6A    -11.249046
       7A    -11.220372     8A    -11.219500     9A     -8.993220
      10A     -6.674131    11A     -6.673598    12A     -6.672900
      13A     -1.273538    14A     -1.091504    15A     -1.060511
      16A     -0.979593    17A     -0.933767    18A     -0.840491
      19A     -0.792467    20A     -0.719898    21A     -0.684194
      22A     -0.624139    23A     -0.600444    24A     -0.584054
      25A     -0.567178    26A     -0.547127    27A     -0.530483
      28A     -0.508386    29A     -0.496071    30A     -0.491661
      31A     -0.481206    32A     -0.419863    33A     -0.386333
      34A     -0.327044

  @DF-RHF Final Energy:  -684.53108170315465

   => Energetics <=

    Nuclear Repulsion Energy =            436.9851864602785554
    One-Electron Energy =               -1804.9557768748145463
    Two-Electron Energy =                 683.4395087113813361
    Total Energy =                       -684.5310817031546549
  Basis Set: (AUG-CC-PVTZ AUX)
    Blend: AUG-CC-PVTZ-RI
    Molecular point group: c1

    Geometry (in Angstrom), charge = 0, multiplicity = 1:

       Center              X                  Y                   Z               Mass
    ------------   -----------------  -----------------  -----------------  -----------------
         S            1.147488740781    -1.140674831025    -0.001437667052    31.972071174400
         N            0.248050740781     1.272967168975    -0.001404667052    14.003074004430
         C           -1.610563559219    -0.435221331025     0.013604032948    12.000000000000
         C           -0.151207259219     0.015950168975    -0.001423667052    12.000000000000
         C           -2.283743259219     0.138693168975    -1.265835667052    12.000000000000
         C           -2.283735259219     0.138629168975     1.263008332948    12.000000000000
         C            2.282143740781     0.143806168975    -0.001415667052    12.000000000000
         C            1.617756740781     1.347159168975    -0.001399667052    12.000000000000
         H           -1.648155259219    -1.482365831025    -0.001457667052     1.007825032230
         H           -2.217592259219     1.229282168975    -1.294455667052     1.007825032230
         H           -3.339044259219    -0.152345831025    -1.277654667052     1.007825032230
         H           -1.804993259219    -0.258502831025    -2.165625667052     1.007825032230
         H           -1.804977259219    -0.258610831025     2.162774332948     1.007825032230
         H           -3.339035259219    -0.152411831025     1.274820332948     1.007825032230
         H           -2.217584259219     1.229217168975     1.291681332948     1.007825032230
         H            3.348883740781    -0.036471831025    -0.001416667052     1.007825032230
         H            2.099095740781     2.319225168975    -0.001383667052     1.007825032230

  Basis Set: AUG-CC-PVTZ
    Blend: AUG-CC-PVTZ
  Basis Set: (AUG-CC-PVTZ AUX)
    Blend: AUG-CC-PVTZ-JKFIT
	 Reference Energy          =    -684.5310817031546549 [Eh]
	 Singles Energy            =      -0.0000000000000000 [Eh]
	 Same-Spin Energy          =      -0.3766448510129441 [Eh]
	 Opposite-Spin Energy      =      -1.1965367858707994 [Eh]
	 Correlation Energy        =      -1.5731816368837435 [Eh]
	 Total Energy              =    -686.1042633400384148 [Eh]

	 ================> DF-SCS-MP2 Energies <==================
	-----------------------------------------------------------
	 SCS Same-Spin Scale       =       0.3333333333333333 [-]
	 SCS Opposite-Spin Scale   =       1.2000000000000000 [-]
	 SCS Same-Spin Energy      =      -0.1255482836709814 [Eh]
	 SCS Opposite-Spin Energy  =      -1.4358441430449591 [Eh]
	 SCS Correlation Energy    =      -1.5613924267159405 [Eh]
	 SCS Total Energy          =    -686.0924741298706522 [Eh]
	-----------------------------------------------------------

  Dipole Moment: [D]
     X:     0.4499      Y:    -1.1622      Z:     0.0108     Total:     1.2463

*** Psi4 exiting successfully. Buy a developer a beer!
