                               Psi4 1.4a3.dev225

  ==> Input File <==

--------------------------------------------------------------------------
#psi4
#
memory 32 gb

molecule  {
0 1
  S        1.2258560    -1.1625810    -0.0000180
  N        0.3264180     1.2510610     0.0000150
  C       -1.5198050    -0.4073720    -0.0000100
  C       -0.0764099     0.0060563     0.0230136
  C       -2.2053760     0.1167870    -1.2644160
  C       -2.2053680     0.1167230     1.2644280
  C        2.3605110     0.1219000     0.0000040
  C        1.6961240     1.3252530     0.0000200
  H       -1.5697880    -1.5042720    -0.0000380
  H       -2.1392250     1.2073760    -1.2930360
  H       -3.2606770    -0.1742520    -1.2762350
  H       -1.7266260    -0.2804090    -2.1642060
  H       -1.7266100    -0.2805170     2.1641940
  H       -3.2606680    -0.1743180     1.2762400
  H       -2.1392170     1.2073110     1.2931010
  H        3.4272510    -0.0583780     0.0000030
  H        2.1774630     2.2973190     0.0000360
units angstrom
no_reorient  #important for SAPT in psi4, default
symmetry c1  #important for SAPT in psi4, default
}

set PROPERTIES_ORIGIN ["COM"]
properties('MP2/aug-cc-pvtz', properties = ['dipole'])
--------------------------------------------------------------------------

    Molecular point group: c1
  Charge       = 0
  Multiplicity = 1
  Basis Set: AUG-CC-PVTZ
    Blend: AUG-CC-PVTZ
  Basis Set: (AUG-CC-PVTZ AUX)
    Blend: AUG-CC-PVTZ-JKFIT

    Orbital Energies [Eh]
    ---------------------

    Doubly Occupied:

       1A    -91.992645     2A    -15.563761     3A    -11.309881
       4A    -11.268872     5A    -11.260915     6A    -11.249491
       7A    -11.219622     8A    -11.219263     9A     -8.993205
      10A     -6.674101    11A     -6.673582    12A     -6.672869
      13A     -1.277228    14A     -1.094842    15A     -1.060968
      16A     -0.980340    17A     -0.936006    18A     -0.839992
      19A     -0.793798    20A     -0.715876    21A     -0.683642
      22A     -0.625623    23A     -0.602602    24A     -0.587287
      25A     -0.567264    26A     -0.545937    27A     -0.531485
      28A     -0.503844    29A     -0.499793    30A     -0.487436
      31A     -0.483316    32A     -0.420575    33A     -0.387695
      34A     -0.327777

  @DF-RHF Final Energy:  -684.53401131933060

   => Energetics <=

    Nuclear Repulsion Energy =            437.5152252722996877
    One-Electron Energy =               -1805.9954054348406771
    Two-Electron Energy =                 683.9461688432104438
    Total Energy =                       -684.5340113193306024
  Basis Set: (AUG-CC-PVTZ AUX)
    Blend: AUG-CC-PVTZ-RI
    Molecular point group: c1

    Geometry (in Angstrom), charge = 0, multiplicity = 1:

       Center              X                  Y                   Z               Mass
    ------------   -----------------  -----------------  -----------------  -----------------
         S            1.146655521648    -1.146509065129    -0.002191780711    31.972071174400
         N            0.247217521648     1.267132934871    -0.002158780711    14.003074004430
         C           -1.599005478352    -0.391300065129    -0.002183780711    12.000000000000
         C           -0.155610378352     0.022128234871     0.020839819289    12.000000000000
         C           -2.284576478352     0.132858934871    -1.266589780711    12.000000000000
         C           -2.284568478352     0.132794934871     1.262254219289    12.000000000000
         C            2.281310521648     0.137971934871    -0.002169780711    12.000000000000
         C            1.616923521648     1.341324934871    -0.002153780711    12.000000000000
         H           -1.648988478352    -1.488200065129    -0.002211780711     1.007825032230
         H           -2.218425478352     1.223447934871    -1.295209780711     1.007825032230
         H           -3.339877478352    -0.158180065129    -1.278408780711     1.007825032230
         H           -1.805826478352    -0.264337065129    -2.166379780711     1.007825032230
         H           -1.805810478352    -0.264445065129     2.162020219289     1.007825032230
         H           -3.339868478352    -0.158246065129     1.274066219289     1.007825032230
         H           -2.218417478352     1.223382934871     1.290927219289     1.007825032230
         H            3.348050521648    -0.042306065129    -0.002170780711     1.007825032230
         H            2.098262521648     2.313390934871    -0.002137780711     1.007825032230

  Basis Set: AUG-CC-PVTZ
    Blend: AUG-CC-PVTZ
  Basis Set: (AUG-CC-PVTZ AUX)
    Blend: AUG-CC-PVTZ-JKFIT
	 Reference Energy          =    -684.5340113193306024 [Eh]
	 Singles Energy            =      -0.0000000000000000 [Eh]
	 Same-Spin Energy          =      -0.3766328077339791 [Eh]
	 Opposite-Spin Energy      =      -1.1965058592285107 [Eh]
	 Correlation Energy        =      -1.5731386669624898 [Eh]
	 Total Energy              =    -686.1071499862930523 [Eh]

	 ================> DF-SCS-MP2 Energies <==================
	-----------------------------------------------------------
	 SCS Same-Spin Scale       =       0.3333333333333333 [-]
	 SCS Opposite-Spin Scale   =       1.2000000000000000 [-]
	 SCS Same-Spin Energy      =      -0.1255442692446597 [Eh]
	 SCS Opposite-Spin Energy  =      -1.4358070310742128 [Eh]
	 SCS Correlation Energy    =      -1.5613513003188726 [Eh]
	 SCS Total Energy          =    -686.0953626196494497 [Eh]
	-----------------------------------------------------------

  Dipole Moment: [D]
     X:     0.4592      Y:    -1.1098      Z:    -0.0138     Total:     1.2011

*** Psi4 exiting successfully. Buy a developer a beer!
