                               Psi4 1.4a3.dev225

  ==> Input File <==

--------------------------------------------------------------------------
#psi4
#
memory 32 gb

molecule  {
0 1
  S        1.2258560    -1.1625810    -0.0000180
  N        0.3264180     1.2510610     0.0000150
  C       -1.5198050    -0.4073720    -0.0000100
  C       -0.0728400    -0.0059560    -0.0000040
  C       -2.2053760     0.1167870    -1.2644160
  C       -2.2053680     0.1167230     1.2644280
  C        2.3605110     0.1219000     0.0000040
  C        1.5962704     1.3198443     0.0000196
  H       -1.5697880    -1.5042720    -0.0000380
  H       -2.1392250     1.2073760    -1.2930360
  H       -3.2606770    -0.1742520    -1.2762350
  H       -1.7266260    -0.2804090    -2.1642060
  H       -1.7266100    -0.2805170     2.1641940
  H       -3.2606680    -0.1743180     1.2762400
  H       -2.1392170     1.2073110     1.2931010
  H        3.4272510    -0.0583780     0.0000030
  H        2.1774630     2.2973190     0.0000360
units angstrom
no_reorient  #important for SAPT in psi4, default
symmetry c1  #important for SAPT in psi4, default
}

set PROPERTIES_ORIGIN ["COM"]
properties('MP2/aug-cc-pvtz', properties = ['dipole'])
--------------------------------------------------------------------------

    Molecular point group: c1
  Charge       = 0
  Multiplicity = 1
  Basis Set: AUG-CC-PVTZ
    Blend: AUG-CC-PVTZ
  Basis Set: (AUG-CC-PVTZ AUX)
    Blend: AUG-CC-PVTZ-JKFIT

    Orbital Energies [Eh]
    ---------------------

    Doubly Occupied:

       1A    -91.997670     2A    -15.560931     3A    -11.311073
       4A    -11.271407     5A    -11.259582     6A    -11.249465
       7A    -11.219768     8A    -11.219753     9A     -8.997706
      10A     -6.678497    11A     -6.678116    12A     -6.677502
      13A     -1.303166    14A     -1.097696    15A     -1.066709
      16A     -0.973393    17A     -0.936354    18A     -0.836474
      19A     -0.801568    20A     -0.719659    21A     -0.680121
      22A     -0.625686    23A     -0.601650    24A     -0.592422
      25A     -0.575480    26A     -0.549041    27A     -0.535255
      28A     -0.500628    29A     -0.490205    30A     -0.488148
      31A     -0.479275    32A     -0.426187    33A     -0.398071
      34A     -0.313410

  @DF-RHF Final Energy:  -684.51847091737329

   => Energetics <=

    Nuclear Repulsion Energy =            439.1067474834567292
    One-Electron Energy =               -1809.0262988610636512
    Two-Electron Energy =                 685.4010804602336293
    Total Energy =                       -684.5184709173732927
  Basis Set: (AUG-CC-PVTZ AUX)
    Blend: AUG-CC-PVTZ-RI
    Molecular point group: c1

    Geometry (in Angstrom), charge = 0, multiplicity = 1:

       Center              X                  Y                   Z               Mass
    ------------   -----------------  -----------------  -----------------  -----------------
         S            1.155749930810    -1.144863576827    -0.000017631711    31.972071174400
         N            0.256311930810     1.268778423173     0.000015368289    14.003074004430
         C           -1.589911069190    -0.389654576827    -0.000009631711    12.000000000000
         C           -0.142946069190     0.011761423173    -0.000003631711    12.000000000000
         C           -2.275482069190     0.134504423173    -1.264415631711    12.000000000000
         C           -2.275474069190     0.134440423173     1.264428368289    12.000000000000
         C            2.290404930810     0.139617423173     0.000004368289    12.000000000000
         C            1.526164330810     1.337561723173     0.000019968289    12.000000000000
         H           -1.639894069190    -1.486554576827    -0.000037631711     1.007825032230
         H           -2.209331069190     1.225093423173    -1.293035631711     1.007825032230
         H           -3.330783069190    -0.156534576827    -1.276234631711     1.007825032230
         H           -1.796732069190    -0.262691576827    -2.164205631711     1.007825032230
         H           -1.796716069190    -0.262799576827     2.164194368289     1.007825032230
         H           -3.330774069190    -0.156600576827     1.276240368289     1.007825032230
         H           -2.209323069190     1.225028423173     1.293101368289     1.007825032230
         H            3.357144930810    -0.040660576827     0.000003368289     1.007825032230
         H            2.107356930810     2.315036423173     0.000036368289     1.007825032230

  Basis Set: AUG-CC-PVTZ
    Blend: AUG-CC-PVTZ
  Basis Set: (AUG-CC-PVTZ AUX)
    Blend: AUG-CC-PVTZ-JKFIT
	 Reference Energy          =    -684.5184709173732927 [Eh]
	 Singles Energy            =      -0.0000000000000000 [Eh]
	 Same-Spin Energy          =      -0.3794441438321901 [Eh]
	 Opposite-Spin Energy      =      -1.1984304101617456 [Eh]
	 Correlation Energy        =      -1.5778745539939356 [Eh]
	 Total Energy              =    -686.0963454713672718 [Eh]

	 ================> DF-SCS-MP2 Energies <==================
	-----------------------------------------------------------
	 SCS Same-Spin Scale       =       0.3333333333333333 [-]
	 SCS Opposite-Spin Scale   =       1.2000000000000000 [-]
	 SCS Same-Spin Energy      =      -0.1264813812773967 [Eh]
	 SCS Opposite-Spin Energy  =      -1.4381164921940945 [Eh]
	 SCS Correlation Energy    =      -1.5645978734714912 [Eh]
	 SCS Total Energy          =    -686.0830687908447771 [Eh]
	-----------------------------------------------------------

  Dipole Moment: [D]
     X:     0.4642      Y:    -1.2024      Z:    -0.0000     Total:     1.2889

*** Psi4 exiting successfully. Buy a developer a beer!
