                               Psi4 1.4a3.dev225

  ==> Input File <==

--------------------------------------------------------------------------
#psi4
#
memory 32 gb

molecule  {
0 1
  S        1.2258560    -1.1625810    -0.0000180
  N        0.3264180     1.2510610     0.0000150
  C       -1.4975419    -0.3060082     0.0254243
  C       -0.0728400    -0.0059560    -0.0000040
  C       -2.2053760     0.1167870    -1.2644160
  C       -2.2053680     0.1167230     1.2644280
  C        2.3605110     0.1219000     0.0000040
  C        1.6961240     1.3252530     0.0000200
  H       -1.5697880    -1.5042720    -0.0000380
  H       -2.1392250     1.2073760    -1.2930360
  H       -3.2606770    -0.1742520    -1.2762350
  H       -1.7266260    -0.2804090    -2.1642060
  H       -1.7266100    -0.2805170     2.1641940
  H       -3.2606680    -0.1743180     1.2762400
  H       -2.1392170     1.2073110     1.2931010
  H        3.4272510    -0.0583780     0.0000030
  H        2.1774630     2.2973190     0.0000360
units angstrom
no_reorient  #important for SAPT in psi4, default
symmetry c1  #important for SAPT in psi4, default
}

set PROPERTIES_ORIGIN ["COM"]
properties('MP2/aug-cc-pvtz', properties = ['dipole'])
--------------------------------------------------------------------------

    Molecular point group: c1
  Charge       = 0
  Multiplicity = 1
  Basis Set: AUG-CC-PVTZ
    Blend: AUG-CC-PVTZ
  Basis Set: (AUG-CC-PVTZ AUX)
    Blend: AUG-CC-PVTZ-JKFIT

    Orbital Energies [Eh]
    ---------------------

    Doubly Occupied:

       1A    -91.996975     2A    -15.564161     3A    -11.308324
       4A    -11.269239     5A    -11.262013     6A    -11.252336
       7A    -11.220120     8A    -11.218242     9A     -8.997342
      10A     -6.678216    11A     -6.677749    12A     -6.677003
      13A     -1.277381    14A     -1.101469    15A     -1.062452
      16A     -0.983886    17A     -0.940129    18A     -0.843283
      19A     -0.792347    20A     -0.712567    21A     -0.679804
      22A     -0.628729    23A     -0.603994    24A     -0.593031
      25A     -0.567173    26A     -0.542986    27A     -0.533831
      28A     -0.512197    29A     -0.503574    30A     -0.494617
      31A     -0.451954    32A     -0.424153    33A     -0.387985
      34A     -0.329316

  @DF-RHF Final Energy:  -684.52013167254461

   => Energetics <=

    Nuclear Repulsion Energy =            438.5414263509284751
    One-Electron Energy =               -1807.9459581679934672
    Two-Electron Energy =                 684.8844001445203276
    Total Energy =                       -684.5201316725446077
  Basis Set: (AUG-CC-PVTZ AUX)
    Blend: AUG-CC-PVTZ-RI
    Molecular point group: c1

    Geometry (in Angstrom), charge = 0, multiplicity = 1:

       Center              X                  Y                   Z               Mass
    ------------   -----------------  -----------------  -----------------  -----------------
         S            1.144215483803    -1.154948698215    -0.002420048410    31.972071174400
         N            0.244777483803     1.258693301785    -0.002387048410    14.003074004430
         C           -1.579182416197    -0.298375898215     0.023022251590    12.000000000000
         C           -0.154480516197     0.001676301785    -0.002406048410    12.000000000000
         C           -2.287016516197     0.124419301785    -1.266818048410    12.000000000000
         C           -2.287008516197     0.124355301785     1.262025951590    12.000000000000
         C            2.278870483803     0.129532301785    -0.002398048410    12.000000000000
         C            1.614483483803     1.332885301785    -0.002382048410    12.000000000000
         H           -1.651428516197    -1.496639698215    -0.002440048410     1.007825032230
         H           -2.220865516197     1.215008301785    -1.295438048410     1.007825032230
         H           -3.342317516197    -0.166619698215    -1.278637048410     1.007825032230
         H           -1.808266516197    -0.272776698215    -2.166608048410     1.007825032230
         H           -1.808250516197    -0.272884698215     2.161791951590     1.007825032230
         H           -3.342308516197    -0.166685698215     1.273837951590     1.007825032230
         H           -2.220857516197     1.214943301785     1.290698951590     1.007825032230
         H            3.345610483803    -0.050745698215    -0.002399048410     1.007825032230
         H            2.095822483803     2.304951301785    -0.002366048410     1.007825032230

  Basis Set: AUG-CC-PVTZ
    Blend: AUG-CC-PVTZ
  Basis Set: (AUG-CC-PVTZ AUX)
    Blend: AUG-CC-PVTZ-JKFIT
	 Reference Energy          =    -684.5201316725446077 [Eh]
	 Singles Energy            =      -0.0000000000000000 [Eh]
	 Same-Spin Energy          =      -0.3777858669788849 [Eh]
	 Opposite-Spin Energy      =      -1.1984356286058775 [Eh]
	 Correlation Energy        =      -1.5762214955847624 [Eh]
	 Total Energy              =    -686.0963531681293261 [Eh]

	 ================> DF-SCS-MP2 Energies <==================
	-----------------------------------------------------------
	 SCS Same-Spin Scale       =       0.3333333333333333 [-]
	 SCS Opposite-Spin Scale   =       1.2000000000000000 [-]
	 SCS Same-Spin Energy      =      -0.1259286223262950 [Eh]
	 SCS Opposite-Spin Energy  =      -1.4381227543270529 [Eh]
	 SCS Correlation Energy    =      -1.5640513766533479 [Eh]
	 SCS Total Energy          =    -686.0841830491979181 [Eh]
	-----------------------------------------------------------

  Dipole Moment: [D]
     X:     0.5816      Y:    -1.0838      Z:     0.0181     Total:     1.2302

*** Psi4 exiting successfully. Buy a developer a beer!
