                               Psi4 1.4a3.dev225

  ==> Input File <==

--------------------------------------------------------------------------
#psi4
#
memory 32 gb

molecule  {
0 1
  S        1.2258560    -1.1625810    -0.0000180
  N        0.3264180     1.2510610     0.0000150
  C       -1.5198050    -0.4073720    -0.0000100
  C       -0.0728400    -0.0059560    -0.0000040
  C       -2.2143328     0.1236350    -1.2809351
  C       -2.2053680     0.1167230     1.2644280
  C        2.3605110     0.1219000     0.0000040
  C        1.6961240     1.3252530     0.0000200
  H       -1.5697880    -1.5042720    -0.0000380
  H       -2.1392250     1.2073760    -1.2930360
  H       -3.2606770    -0.1742520    -1.2762350
  H       -1.7266260    -0.2804090    -2.1642060
  H       -1.7266100    -0.2805170     2.1641940
  H       -3.2606680    -0.1743180     1.2762400
  H       -2.1392170     1.2073110     1.2931010
  H        3.4272510    -0.0583780     0.0000030
  H        2.1774630     2.2973190     0.0000360
units angstrom
no_reorient  #important for SAPT in psi4, default
symmetry c1  #important for SAPT in psi4, default
}

set PROPERTIES_ORIGIN ["COM"]
properties('MP2/aug-cc-pvtz', properties = ['dipole'])
--------------------------------------------------------------------------

    Molecular point group: c1
  Charge       = 0
  Multiplicity = 1
  Basis Set: AUG-CC-PVTZ
    Blend: AUG-CC-PVTZ
  Basis Set: (AUG-CC-PVTZ AUX)
    Blend: AUG-CC-PVTZ-JKFIT

    Orbital Energies [Eh]
    ---------------------

    Doubly Occupied:

       1A    -91.993848     2A    -15.563761     3A    -11.309914
       4A    -11.268803     5A    -11.260314     6A    -11.250089
       7A    -11.219283     8A    -11.218761     9A     -8.994491
      10A     -6.675391    11A     -6.674882    12A     -6.674168
      13A     -1.274517    14A     -1.092173    15A     -1.061061
      16A     -0.980478    17A     -0.936038    18A     -0.840620
      19A     -0.792477    20A     -0.716085    21A     -0.682698
      22A     -0.624469    23A     -0.601643    24A     -0.586106
      25A     -0.567420    26A     -0.546823    27A     -0.532697
      28A     -0.504202    29A     -0.500188    30A     -0.487077
      31A     -0.481763    32A     -0.421870    33A     -0.386790
      34A     -0.327553

  @DF-RHF Final Energy:  -684.53353832436744

   => Energetics <=

    Nuclear Repulsion Energy =            437.1923216654230941
    One-Electron Energy =               -1805.3548147946630706
    Two-Electron Energy =                 683.6289548048724782
    Total Energy =                       -684.5335383243674414
  Basis Set: (AUG-CC-PVTZ AUX)
    Blend: AUG-CC-PVTZ-RI
    Molecular point group: c1

    Geometry (in Angstrom), charge = 0, multiplicity = 1:

       Center              X                  Y                   Z               Mass
    ------------   -----------------  -----------------  -----------------  -----------------
         S            1.147164337499    -1.146021274805     0.001542630479    31.972071174400
         N            0.247726337499     1.267620725195     0.001575630479    14.003074004430
         C           -1.598496662501    -0.390812274805     0.001550630479    12.000000000000
         C           -0.151531662501     0.010603725195     0.001556630479    12.000000000000
         C           -2.293024462501     0.140194725195    -1.279374469521    12.000000000000
         C           -2.284059662501     0.133282725195     1.265988630479    12.000000000000
         C            2.281819337499     0.138459725195     0.001564630479    12.000000000000
         C            1.617432337499     1.341812725195     0.001580630479    12.000000000000
         H           -1.648479662501    -1.487712274805     0.001522630479     1.007825032230
         H           -2.217916662501     1.223935725195    -1.291475369521     1.007825032230
         H           -3.339368662501    -0.157692274805    -1.274674369521     1.007825032230
         H           -1.805317662501    -0.263849274805    -2.162645369521     1.007825032230
         H           -1.805301662501    -0.263957274805     2.165754630479     1.007825032230
         H           -3.339359662501    -0.157758274805     1.277800630479     1.007825032230
         H           -2.217908662501     1.223870725195     1.294661630479     1.007825032230
         H            3.348559337499    -0.041818274805     0.001563630479     1.007825032230
         H            2.098771337499     2.313878725195     0.001596630479     1.007825032230

  Basis Set: AUG-CC-PVTZ
    Blend: AUG-CC-PVTZ
  Basis Set: (AUG-CC-PVTZ AUX)
    Blend: AUG-CC-PVTZ-JKFIT
	 Reference Energy          =    -684.5335383243674414 [Eh]
	 Singles Energy            =      -0.0000000000000000 [Eh]
	 Same-Spin Energy          =      -0.3767682423456548 [Eh]
	 Opposite-Spin Energy      =      -1.1966937002642981 [Eh]
	 Correlation Energy        =      -1.5734619426099528 [Eh]
	 Total Energy              =    -686.1070002669773658 [Eh]

	 ================> DF-SCS-MP2 Energies <==================
	-----------------------------------------------------------
	 SCS Same-Spin Scale       =       0.3333333333333333 [-]
	 SCS Opposite-Spin Scale   =       1.2000000000000000 [-]
	 SCS Same-Spin Energy      =      -0.1255894141152182 [Eh]
	 SCS Opposite-Spin Energy  =      -1.4360324403171576 [Eh]
	 SCS Correlation Energy    =      -1.5616218544323759 [Eh]
	 SCS Total Energy          =    -686.0951601787998015 [Eh]
	-----------------------------------------------------------

  Dipole Moment: [D]
     X:     0.4876      Y:    -1.1469      Z:    -0.0000     Total:     1.2463

*** Psi4 exiting successfully. Buy a developer a beer!
