                               Psi4 1.4a3.dev225

  ==> Input File <==

--------------------------------------------------------------------------
#psi4
#
memory 32 gb

molecule  {
0 1
  S        1.2258560    -1.1625810    -0.0000180
  N        0.3264180     1.2510610     0.0000150
  C       -1.5198050    -0.4073720    -0.0000100
  C       -0.0728400    -0.0059560    -0.0000040
  C       -2.2053760     0.1167870    -1.2644160
  C       -2.2053680     0.1167230     1.2644280
  C        2.3605110     0.1219000     0.0000040
  C        1.4964168     1.3144356     0.0000193
  H       -1.5697880    -1.5042720    -0.0000380
  H       -2.1392250     1.2073760    -1.2930360
  H       -3.2606770    -0.1742520    -1.2762350
  H       -1.7266260    -0.2804090    -2.1642060
  H       -1.7266100    -0.2805170     2.1641940
  H       -3.2606680    -0.1743180     1.2762400
  H       -2.1392170     1.2073110     1.2931010
  H        3.4272510    -0.0583780     0.0000030
  H        2.1774630     2.2973190     0.0000360
units angstrom
no_reorient  #important for SAPT in psi4, default
symmetry c1  #important for SAPT in psi4, default
}

set PROPERTIES_ORIGIN ["COM"]
properties('MP2/aug-cc-pvtz', properties = ['dipole'])
--------------------------------------------------------------------------

    Molecular point group: c1
  Charge       = 0
  Multiplicity = 1
  Basis Set: AUG-CC-PVTZ
    Blend: AUG-CC-PVTZ
  Basis Set: (AUG-CC-PVTZ AUX)
    Blend: AUG-CC-PVTZ-JKFIT

    Orbital Energies [Eh]
    ---------------------

    Doubly Occupied:

       1A    -92.003006     2A    -15.557032     3A    -11.311869
       4A    -11.273318     5A    -11.258370     6A    -11.249623
       7A    -11.220311     8A    -11.220295     9A     -9.002230
      10A     -6.682897    11A     -6.682632    12A     -6.682156
      13A     -1.341617    14A     -1.104094    15A     -1.070733
      16A     -0.966586    17A     -0.937063    18A     -0.831813
      19A     -0.813350    20A     -0.720801    21A     -0.680268
      22A     -0.626394    23A     -0.603336    24A     -0.602104
      25A     -0.580176    26A     -0.554792    27A     -0.538716
      28A     -0.501948    29A     -0.489296    30A     -0.489207
      31A     -0.468422    32A     -0.419201    33A     -0.411215
      34A     -0.299502

  @DF-RHF Final Energy:  -684.47003380383683

   => Energetics <=

    Nuclear Repulsion Energy =            440.8912912990252835
    One-Electron Energy =               -1812.3339041144461135
    Two-Electron Energy =                 686.9725790115841164
    Total Energy =                       -684.4700338038368272
  Basis Set: (AUG-CC-PVTZ AUX)
    Blend: AUG-CC-PVTZ-RI
    Molecular point group: c1

    Geometry (in Angstrom), charge = 0, multiplicity = 1:

       Center              X                  Y                   Z               Mass
    ------------   -----------------  -----------------  -----------------  -----------------
         S            1.165181532365    -1.144352701873    -0.000017603375    31.972071174400
         N            0.265743532365     1.269289298127     0.000015396625    14.003074004430
         C           -1.580479467635    -0.389143701873    -0.000009603375    12.000000000000
         C           -0.133514467635     0.012272298127    -0.000003603375    12.000000000000
         C           -2.266050467635     0.135015298127    -1.264415603375    12.000000000000
         C           -2.266042467635     0.134951298127     1.264428396625    12.000000000000
         C            2.299836532365     0.140128298127     0.000004396625    12.000000000000
         C            1.435742332365     1.332663898127     0.000019696625    12.000000000000
         H           -1.630462467635    -1.486043701873    -0.000037603375     1.007825032230
         H           -2.199899467635     1.225604298127    -1.293035603375     1.007825032230
         H           -3.321351467635    -0.156023701873    -1.276234603375     1.007825032230
         H           -1.787300467635    -0.262180701873    -2.164205603375     1.007825032230
         H           -1.787284467635    -0.262288701873     2.164194396625     1.007825032230
         H           -3.321342467635    -0.156089701873     1.276240396625     1.007825032230
         H           -2.199891467635     1.225539298127     1.293101396625     1.007825032230
         H            3.366576532365    -0.040149701873     0.000003396625     1.007825032230
         H            2.116788532365     2.315547298127     0.000036396625     1.007825032230

  Basis Set: AUG-CC-PVTZ
    Blend: AUG-CC-PVTZ
  Basis Set: (AUG-CC-PVTZ AUX)
    Blend: AUG-CC-PVTZ-JKFIT
	 Reference Energy          =    -684.4700338038368272 [Eh]
	 Singles Energy            =      -0.0000000000000000 [Eh]
	 Same-Spin Energy          =      -0.3821967740675819 [Eh]
	 Opposite-Spin Energy      =      -1.2014287849383576 [Eh]
	 Correlation Energy        =      -1.5836255590059394 [Eh]
	 Total Energy              =    -686.0536593628427227 [Eh]

	 ================> DF-SCS-MP2 Energies <==================
	-----------------------------------------------------------
	 SCS Same-Spin Scale       =       0.3333333333333333 [-]
	 SCS Opposite-Spin Scale   =       1.2000000000000000 [-]
	 SCS Same-Spin Energy      =      -0.1273989246891939 [Eh]
	 SCS Opposite-Spin Energy  =      -1.4417145419260291 [Eh]
	 SCS Correlation Energy    =      -1.5691134666152231 [Eh]
	 SCS Total Energy          =    -686.0391472704520766 [Eh]
	-----------------------------------------------------------

  Dipole Moment: [D]
     X:     0.3960      Y:    -1.2457      Z:    -0.0000     Total:     1.3071

*** Psi4 exiting successfully. Buy a developer a beer!
