                               Psi4 1.4a3.dev225

  ==> Input File <==

--------------------------------------------------------------------------
#psi4
#
memory 32 gb

molecule  {
0 1
  S        1.2258560    -1.1625810    -0.0000180
  N        0.3264180     1.2510610     0.0000150
  C       -1.5198050    -0.4073720    -0.0000100
  C       -0.0728400    -0.0059560    -0.0000040
  C       -2.1999229     0.1417867    -1.2567268
  C       -2.2053680     0.1167230     1.2644280
  C        2.3605110     0.1219000     0.0000040
  C        1.6961240     1.3252530     0.0000200
  H       -1.5697880    -1.5042720    -0.0000380
  H       -2.1392250     1.2073760    -1.2930360
  H       -3.2606770    -0.1742520    -1.2762350
  H       -1.7266260    -0.2804090    -2.1642060
  H       -1.7266100    -0.2805170     2.1641940
  H       -3.2606680    -0.1743180     1.2762400
  H       -2.1392170     1.2073110     1.2931010
  H        3.4272510    -0.0583780     0.0000030
  H        2.1774630     2.2973190     0.0000360
units angstrom
no_reorient  #important for SAPT in psi4, default
symmetry c1  #important for SAPT in psi4, default
}

set PROPERTIES_ORIGIN ["COM"]
properties('MP2/aug-cc-pvtz', properties = ['dipole'])
--------------------------------------------------------------------------

    Molecular point group: c1
  Charge       = 0
  Multiplicity = 1
  Basis Set: AUG-CC-PVTZ
    Blend: AUG-CC-PVTZ
  Basis Set: (AUG-CC-PVTZ AUX)
    Blend: AUG-CC-PVTZ-JKFIT

    Orbital Energies [Eh]
    ---------------------

    Doubly Occupied:

       1A    -91.993882     2A    -15.563787     3A    -11.309953
       4A    -11.268876     5A    -11.260322     6A    -11.249563
       7A    -11.219521     8A    -11.219176     9A     -8.994528
      10A     -6.675430    11A     -6.674920    12A     -6.674206
      13A     -1.274694    14A     -1.094869    15A     -1.061129
      16A     -0.980809    17A     -0.935505    18A     -0.840406
      19A     -0.792685    20A     -0.716705    21A     -0.683405
      22A     -0.625538    23A     -0.600529    24A     -0.585901
      25A     -0.567045    26A     -0.549826    27A     -0.529832
      28A     -0.504729    29A     -0.497643    30A     -0.486755
      31A     -0.484118    32A     -0.422090    33A     -0.386859
      34A     -0.327649

  @DF-RHF Final Energy:  -684.53285569151603

   => Energetics <=

    Nuclear Repulsion Energy =            437.6385756858687159
    One-Electron Energy =               -1806.2370881166023082
    Two-Electron Energy =                 684.0656567392175020
    Total Energy =                       -684.5328556915160334
  Basis Set: (AUG-CC-PVTZ AUX)
    Blend: AUG-CC-PVTZ-RI
    Molecular point group: c1

    Geometry (in Angstrom), charge = 0, multiplicity = 1:

       Center              X                  Y                   Z               Mass
    ------------   -----------------  -----------------  -----------------  -----------------
         S            1.145803260530    -1.147735780861    -0.000743947470    31.972071174400
         N            0.246365260530     1.265906219139    -0.000710947470    14.003074004430
         C           -1.599857739470    -0.392526780861    -0.000735947470    12.000000000000
         C           -0.152892739470     0.008889219139    -0.000729947470    12.000000000000
         C           -2.279975639470     0.156631919139    -1.257452747470    12.000000000000
         C           -2.285420739470     0.131568219139     1.263702052530    12.000000000000
         C            2.280458260530     0.136745219139    -0.000721947470    12.000000000000
         C            1.616071260530     1.340098219139    -0.000705947470    12.000000000000
         H           -1.649840739470    -1.489426780861    -0.000763947470     1.007825032230
         H           -2.219277739470     1.222221219139    -1.293761947470     1.007825032230
         H           -3.340729739470    -0.159406780861    -1.276960947470     1.007825032230
         H           -1.806678739470    -0.265563780861    -2.164931947470     1.007825032230
         H           -1.806662739470    -0.265671780861     2.163468052530     1.007825032230
         H           -3.340720739470    -0.159472780861     1.275514052530     1.007825032230
         H           -2.219269739470     1.222156219139     1.292375052530     1.007825032230
         H            3.347198260530    -0.043532780861    -0.000722947470     1.007825032230
         H            2.097410260530     2.312164219139    -0.000689947470     1.007825032230

  Basis Set: AUG-CC-PVTZ
    Blend: AUG-CC-PVTZ
  Basis Set: (AUG-CC-PVTZ AUX)
    Blend: AUG-CC-PVTZ-JKFIT
	 Reference Energy          =    -684.5328556915160334 [Eh]
	 Singles Energy            =      -0.0000000000000000 [Eh]
	 Same-Spin Energy          =      -0.3768995191564476 [Eh]
	 Opposite-Spin Energy      =      -1.1968463022015747 [Eh]
	 Correlation Energy        =      -1.5737458213580222 [Eh]
	 Total Energy              =    -686.1066015128740219 [Eh]

	 ================> DF-SCS-MP2 Energies <==================
	-----------------------------------------------------------
	 SCS Same-Spin Scale       =       0.3333333333333333 [-]
	 SCS Opposite-Spin Scale   =       1.2000000000000000 [-]
	 SCS Same-Spin Energy      =      -0.1256331730521492 [Eh]
	 SCS Opposite-Spin Energy  =      -1.4362155626418895 [Eh]
	 SCS Correlation Energy    =      -1.5618487356940387 [Eh]
	 SCS Total Energy          =    -686.0947044272101039 [Eh]
	-----------------------------------------------------------

  Dipole Moment: [D]
     X:     0.4907      Y:    -1.1390      Z:     0.0023     Total:     1.2402

*** Psi4 exiting successfully. Buy a developer a beer!
