                               Psi4 1.4a3.dev225

  ==> Input File <==

--------------------------------------------------------------------------
#psi4
#
memory 32 gb

molecule  {
0 1
  S        1.2258560    -1.1625810    -0.0000180
  N        0.3264180     1.2510610     0.0000150
  C       -1.5198050    -0.4073720    -0.0000100
  C       -0.0728400    -0.0059560    -0.0000040
  C       -2.2053760     0.1167870    -1.2644160
  C       -2.2053680     0.1167230     1.2644280
  C        2.3605110     0.1219000     0.0000040
  C        1.6961240     1.3252530     0.0000200
  H       -1.5697880    -1.5042720    -0.0000380
  H       -2.1392250     1.2073760    -1.2930360
  H       -3.2799561    -0.1795689    -1.2764509
  H       -1.7266260    -0.2804090    -2.1642060
  H       -1.7266100    -0.2805170     2.1641940
  H       -3.2606680    -0.1743180     1.2762400
  H       -2.1392170     1.2073110     1.2931010
  H        3.4272510    -0.0583780     0.0000030
  H        2.1774630     2.2973190     0.0000360
units angstrom
no_reorient  #important for SAPT in psi4, default
symmetry c1  #important for SAPT in psi4, default
}

set PROPERTIES_ORIGIN ["COM"]
properties('MP2/aug-cc-pvtz', properties = ['dipole'])
--------------------------------------------------------------------------

    Molecular point group: c1
  Charge       = 0
  Multiplicity = 1
  Basis Set: AUG-CC-PVTZ
    Blend: AUG-CC-PVTZ
  Basis Set: (AUG-CC-PVTZ AUX)
    Blend: AUG-CC-PVTZ-JKFIT

    Orbital Energies [Eh]
    ---------------------

    Doubly Occupied:

       1A    -91.994090     2A    -15.564060     3A    -11.310145
       4A    -11.268986     5A    -11.260553     6A    -11.249588
       7A    -11.221754     8A    -11.219298     9A     -8.994726
      10A     -6.675626    11A     -6.675117    12A     -6.674403
      13A     -1.274832    14A     -1.094414    15A     -1.061304
      16A     -0.980715    17A     -0.934775    18A     -0.839479
      19A     -0.792776    20A     -0.716627    21A     -0.683164
      22A     -0.625357    23A     -0.601151    24A     -0.585868
      25A     -0.567177    26A     -0.545635    27A     -0.529871
      28A     -0.504311    29A     -0.498297    30A     -0.487522
      31A     -0.483259    32A     -0.422167    33A     -0.386981
      34A     -0.327947

  @DF-RHF Final Energy:  -684.53312718160532

   => Energetics <=

    Nuclear Repulsion Energy =            437.4380508994256616
    One-Electron Energy =               -1805.8384087639838071
    Two-Electron Energy =                 683.8672306829528225
    Total Energy =                       -684.5331271816053231
  Basis Set: (AUG-CC-PVTZ AUX)
    Blend: AUG-CC-PVTZ-RI
    Molecular point group: c1

    Geometry (in Angstrom), charge = 0, multiplicity = 1:

       Center              X                  Y                   Z               Mass
    ------------   -----------------  -----------------  -----------------  -----------------
         S            1.146471266185    -1.145332273963    -0.000015956805    31.972071174400
         N            0.247033266185     1.268309726037     0.000017043195    14.003074004430
         C           -1.599189733815    -0.390123273963    -0.000007956805    12.000000000000
         C           -0.152224733815     0.011292726037    -0.000001956805    12.000000000000
         C           -2.284760733815     0.134035726037    -1.264413956805    12.000000000000
         C           -2.284752733815     0.133971726037     1.264430043195    12.000000000000
         C            2.281126266185     0.139148726037     0.000006043195    12.000000000000
         C            1.616739266185     1.342501726037     0.000022043195    12.000000000000
         H           -1.649172733815    -1.487023273963    -0.000035956805     1.007825032230
         H           -2.218609733815     1.224624726037    -1.293033956805     1.007825032230
         H           -3.359340833815    -0.162320173963    -1.276448856805     1.007825032230
         H           -1.806010733815    -0.263160273963    -2.164203956805     1.007825032230
         H           -1.805994733815    -0.263268273963     2.164196043195     1.007825032230
         H           -3.340052733815    -0.157069273963     1.276242043195     1.007825032230
         H           -2.218601733815     1.224559726037     1.293103043195     1.007825032230
         H            3.347866266185    -0.041129273963     0.000005043195     1.007825032230
         H            2.098078266185     2.314567726037     0.000038043195     1.007825032230

  Basis Set: AUG-CC-PVTZ
    Blend: AUG-CC-PVTZ
  Basis Set: (AUG-CC-PVTZ AUX)
    Blend: AUG-CC-PVTZ-JKFIT
	 Reference Energy          =    -684.5331271816053231 [Eh]
	 Singles Energy            =      -0.0000000000000000 [Eh]
	 Same-Spin Energy          =      -0.3768937229350692 [Eh]
	 Opposite-Spin Energy      =      -1.1969346197516921 [Eh]
	 Correlation Energy        =      -1.5738283426867614 [Eh]
	 Total Energy              =    -686.1069555242920615 [Eh]

	 ================> DF-SCS-MP2 Energies <==================
	-----------------------------------------------------------
	 SCS Same-Spin Scale       =       0.3333333333333333 [-]
	 SCS Opposite-Spin Scale   =       1.2000000000000000 [-]
	 SCS Same-Spin Energy      =      -0.1256312409783564 [Eh]
	 SCS Opposite-Spin Energy  =      -1.4363215437020305 [Eh]
	 SCS Correlation Energy    =      -1.5619527846803869 [Eh]
	 SCS Total Energy          =    -686.0950799662857662 [Eh]
	-----------------------------------------------------------

  Dipole Moment: [D]
     X:     0.5112      Y:    -1.1423      Z:     0.0035     Total:     1.2515

*** Psi4 exiting successfully. Buy a developer a beer!
