                               Psi4 1.4a3.dev225

  ==> Input File <==

--------------------------------------------------------------------------
#psi4
#
memory 32 gb

molecule  {
0 1
  S        1.1420104    -1.2503560    -0.0000194
  N        0.3264180     1.2510610     0.0000150
  C       -1.5198050    -0.4073720    -0.0000100
  C       -0.0728400    -0.0059560    -0.0000040
  C       -2.2053760     0.1167870    -1.2644160
  C       -2.2053680     0.1167230     1.2644280
  C        2.3605110     0.1219000     0.0000040
  C        1.6961240     1.3252530     0.0000200
  H       -1.5697880    -1.5042720    -0.0000380
  H       -2.1392250     1.2073760    -1.2930360
  H       -3.2606770    -0.1742520    -1.2762350
  H       -1.7266260    -0.2804090    -2.1642060
  H       -1.7266100    -0.2805170     2.1641940
  H       -3.2606680    -0.1743180     1.2762400
  H       -2.1392170     1.2073110     1.2931010
  H        3.4272510    -0.0583780     0.0000030
  H        2.1774630     2.2973190     0.0000360
units angstrom
no_reorient  #important for SAPT in psi4, default
symmetry c1  #important for SAPT in psi4, default
}

set PROPERTIES_ORIGIN ["COM"]
properties('MP2/aug-cc-pvtz', properties = ['dipole'])
--------------------------------------------------------------------------

    Molecular point group: c1
  Charge       = 0
  Multiplicity = 1
  Basis Set: AUG-CC-PVTZ
    Blend: AUG-CC-PVTZ
  Basis Set: (AUG-CC-PVTZ AUX)
    Blend: AUG-CC-PVTZ-JKFIT

    Orbital Energies [Eh]
    ---------------------

    Doubly Occupied:

       1A    -91.997683     2A    -15.563619     3A    -11.314638
       4A    -11.273606     5A    -11.269310     6A    -11.248372
       7A    -11.219422     8A    -11.219406     9A     -8.996269
      10A     -6.677138    11A     -6.676333    12A     -6.675839
      13A     -1.270505    14A     -1.095371    15A     -1.041202
      16A     -0.984491    17A     -0.935893    18A     -0.839305
      19A     -0.796867    20A     -0.708007    21A     -0.681340
      22A     -0.624116    23A     -0.600900    24A     -0.585477
      25A     -0.567576    26A     -0.544728    27A     -0.527633
      28A     -0.505903    29A     -0.493963    30A     -0.486370
      31A     -0.476865    32A     -0.422623    33A     -0.383908
      34A     -0.331965

  @DF-RHF Final Energy:  -684.52568766525474

   => Energetics <=

    Nuclear Repulsion Energy =            434.9524362894320006
    One-Electron Energy =               -1800.8829566335189156
    Two-Electron Energy =                 681.4048326788322356
    Total Energy =                       -684.5256876652547362
  Basis Set: (AUG-CC-PVTZ AUX)
    Blend: AUG-CC-PVTZ-RI
    Molecular point group: c1

    Geometry (in Angstrom), charge = 0, multiplicity = 1:

       Center              X                  Y                   Z               Mass
    ------------   -----------------  -----------------  -----------------  -----------------
         S            1.083573169679    -1.211060145267    -0.000018717171    31.972071174400
         N            0.267980769679     1.290356854733     0.000015682829    14.003074004430
         C           -1.578242230321    -0.368076145267    -0.000009317171    12.000000000000
         C           -0.131277230321     0.033339854733    -0.000003317171    12.000000000000
         C           -2.263813230321     0.156082854733    -1.264415317171    12.000000000000
         C           -2.263805230321     0.156018854733     1.264428682829    12.000000000000
         C            2.302073769679     0.161195854733     0.000004682829    12.000000000000
         C            1.637686769679     1.364548854733     0.000020682829    12.000000000000
         H           -1.628225230321    -1.464976145267    -0.000037317171     1.007825032230
         H           -2.197662230321     1.246671854733    -1.293035317171     1.007825032230
         H           -3.319114230321    -0.134956145267    -1.276234317171     1.007825032230
         H           -1.785063230321    -0.241113145267    -2.164205317171     1.007825032230
         H           -1.785047230321    -0.241221145267     2.164194682829     1.007825032230
         H           -3.319105230321    -0.135022145267     1.276240682829     1.007825032230
         H           -2.197654230321     1.246606854733     1.293101682829     1.007825032230
         H            3.368813769679    -0.019082145267     0.000003682829     1.007825032230
         H            2.119025769679     2.336614854733     0.000036682829     1.007825032230

  Basis Set: AUG-CC-PVTZ
    Blend: AUG-CC-PVTZ
  Basis Set: (AUG-CC-PVTZ AUX)
    Blend: AUG-CC-PVTZ-JKFIT
	 Reference Energy          =    -684.5256876652547362 [Eh]
	 Singles Energy            =      -0.0000000000000000 [Eh]
	 Same-Spin Energy          =      -0.3757018632355721 [Eh]
	 Opposite-Spin Energy      =      -1.1978519275248005 [Eh]
	 Correlation Energy        =      -1.5735537907603727 [Eh]
	 Total Energy              =    -686.0992414560150792 [Eh]

	 ================> DF-SCS-MP2 Energies <==================
	-----------------------------------------------------------
	 SCS Same-Spin Scale       =       0.3333333333333333 [-]
	 SCS Opposite-Spin Scale   =       1.2000000000000000 [-]
	 SCS Same-Spin Energy      =      -0.1252339544118574 [Eh]
	 SCS Opposite-Spin Energy  =      -1.4374223130297605 [Eh]
	 SCS Correlation Energy    =      -1.5626562674416178 [Eh]
	 SCS Total Energy          =    -686.0883439326963753 [Eh]
	-----------------------------------------------------------

  Dipole Moment: [D]
     X:     0.4557      Y:    -1.0741      Z:    -0.0000     Total:     1.1668

*** Psi4 exiting successfully. Buy a developer a beer!
