                               Psi4 1.4a3.dev225

  ==> Input File <==

--------------------------------------------------------------------------
#psi4
#
memory 32 gb

molecule  {
0 1
  S        1.2258560    -1.1625810    -0.0000180
  N        0.3264180     1.2510610     0.0000150
  C       -1.5198050    -0.4073720    -0.0000100
  C       -0.0728400    -0.0059560    -0.0000040
  C       -2.2053760     0.1167870    -1.2644160
  C       -2.2053680     0.1167230     1.2644280
  C        2.3605110     0.1219000     0.0000040
  C        1.7160947     1.3263347     0.0000201
  H       -1.5697880    -1.5042720    -0.0000380
  H       -2.1392250     1.2073760    -1.2930360
  H       -3.2606770    -0.1742520    -1.2762350
  H       -1.7266260    -0.2804090    -2.1642060
  H       -1.7266100    -0.2805170     2.1641940
  H       -3.2606680    -0.1743180     1.2762400
  H       -2.1392170     1.2073110     1.2931010
  H        3.4272510    -0.0583780     0.0000030
  H        2.1774630     2.2973190     0.0000360
units angstrom
no_reorient  #important for SAPT in psi4, default
symmetry c1  #important for SAPT in psi4, default
}

set PROPERTIES_ORIGIN ["COM"]
properties('MP2/aug-cc-pvtz', properties = ['dipole'])
--------------------------------------------------------------------------

    Molecular point group: c1
  Charge       = 0
  Multiplicity = 1
  Basis Set: AUG-CC-PVTZ
    Blend: AUG-CC-PVTZ
  Basis Set: (AUG-CC-PVTZ AUX)
    Blend: AUG-CC-PVTZ-JKFIT

    Orbital Energies [Eh]
    ---------------------

    Doubly Occupied:

       1A    -91.993391     2A    -15.564336     3A    -11.309746
       4A    -11.268398     5A    -11.260545     6A    -11.249399
       7A    -11.219232     8A    -11.219216     9A     -8.994125
      10A     -6.675045    11A     -6.674510    12A     -6.673780
      13A     -1.270050    14A     -1.094276    15A     -1.060011
      16A     -0.982324    17A     -0.935674    18A     -0.840743
      19A     -0.791417    20A     -0.715706    21A     -0.684056
      22A     -0.625455    23A     -0.601480    24A     -0.586002
      25A     -0.565057    26A     -0.545073    27A     -0.530516
      28A     -0.507458    29A     -0.499288    30A     -0.487259
      31A     -0.482978    32A     -0.420616    33A     -0.384916
      34A     -0.330662

  @DF-RHF Final Energy:  -684.53364317768467

   => Energetics <=

    Nuclear Repulsion Energy =            437.2346667461099514
    One-Electron Energy =               -1805.4511422600326114
    Two-Electron Energy =                 683.6828323362379933
    Total Energy =                       -684.5336431776846666
  Basis Set: (AUG-CC-PVTZ AUX)
    Blend: AUG-CC-PVTZ-RI
    Molecular point group: c1

    Geometry (in Angstrom), charge = 0, multiplicity = 1:

       Center              X                  Y                   Z               Mass
    ------------   -----------------  -----------------  -----------------  -----------------
         S            1.144432010833    -1.145476622994    -0.000017678938    31.972071174400
         N            0.244994010833     1.268165377006     0.000015321062    14.003074004430
         C           -1.601228989167    -0.390267622994    -0.000009678938    12.000000000000
         C           -0.154263989167     0.011148377006    -0.000003678938    12.000000000000
         C           -2.286799989167     0.133891377006    -1.264415678938    12.000000000000
         C           -2.286791989167     0.133827377006     1.264428321062    12.000000000000
         C            2.279087010833     0.139004377006     0.000004321062    12.000000000000
         C            1.634670710833     1.343439077006     0.000020421062    12.000000000000
         H           -1.651211989167    -1.487167622994    -0.000037678938     1.007825032230
         H           -2.220648989167     1.224480377006    -1.293035678938     1.007825032230
         H           -3.342100989167    -0.157147622994    -1.276234678938     1.007825032230
         H           -1.808049989167    -0.263304622994    -2.164205678938     1.007825032230
         H           -1.808033989167    -0.263412622994     2.164194321062     1.007825032230
         H           -3.342091989167    -0.157213622994     1.276240321062     1.007825032230
         H           -2.220640989167     1.224415377006     1.293101321062     1.007825032230
         H            3.345827010833    -0.041273622994     0.000003321062     1.007825032230
         H            2.096039010833     2.314423377006     0.000036321062     1.007825032230

  Basis Set: AUG-CC-PVTZ
    Blend: AUG-CC-PVTZ
  Basis Set: (AUG-CC-PVTZ AUX)
    Blend: AUG-CC-PVTZ-JKFIT
	 Reference Energy          =    -684.5336431776846666 [Eh]
	 Singles Energy            =      -0.0000000000000000 [Eh]
	 Same-Spin Energy          =      -0.3764526264889686 [Eh]
	 Opposite-Spin Energy      =      -1.1966548414547897 [Eh]
	 Correlation Energy        =      -1.5731074679437582 [Eh]
	 Total Energy              =    -686.1067506456283809 [Eh]

	 ================> DF-SCS-MP2 Energies <==================
	-----------------------------------------------------------
	 SCS Same-Spin Scale       =       0.3333333333333333 [-]
	 SCS Opposite-Spin Scale   =       1.2000000000000000 [-]
	 SCS Same-Spin Energy      =      -0.1254842088296562 [Eh]
	 SCS Opposite-Spin Energy  =      -1.4359858097457476 [Eh]
	 SCS Correlation Energy    =      -1.5614700185754038 [Eh]
	 SCS Total Energy          =    -686.0951131962600584 [Eh]
	-----------------------------------------------------------

  Dipole Moment: [D]
     X:     0.4973      Y:    -1.1320      Z:    -0.0000     Total:     1.2364

*** Psi4 exiting successfully. Buy a developer a beer!
