                               Psi4 1.4a3.dev225

  ==> Input File <==

--------------------------------------------------------------------------
#psi4
#
memory 32 gb

molecule  {
0 1
  S        1.2258560    -1.1625810    -0.0000180
  N        0.3264180     1.2510610     0.0000150
  C       -1.5027778    -0.4212058    -0.0152594
  C       -0.0728400    -0.0059560    -0.0000040
  C       -2.2053760     0.1167870    -1.2644160
  C       -2.2053680     0.1167230     1.2644280
  C        2.3605110     0.1219000     0.0000040
  C        1.6961240     1.3252530     0.0000200
  H       -1.5697880    -1.5042720    -0.0000380
  H       -2.1392250     1.2073760    -1.2930360
  H       -3.2606770    -0.1742520    -1.2762350
  H       -1.7266260    -0.2804090    -2.1642060
  H       -1.7266100    -0.2805170     2.1641940
  H       -3.2606680    -0.1743180     1.2762400
  H       -2.1392170     1.2073110     1.2931010
  H        3.4272510    -0.0583780     0.0000030
  H        2.1774630     2.2973190     0.0000360
units angstrom
no_reorient  #important for SAPT in psi4, default
symmetry c1  #important for SAPT in psi4, default
}

set PROPERTIES_ORIGIN ["COM"]
properties('MP2/aug-cc-pvtz', properties = ['dipole'])
--------------------------------------------------------------------------

    Molecular point group: c1
  Charge       = 0
  Multiplicity = 1
  Basis Set: AUG-CC-PVTZ
    Blend: AUG-CC-PVTZ
  Basis Set: (AUG-CC-PVTZ AUX)
    Blend: AUG-CC-PVTZ-JKFIT

    Orbital Energies [Eh]
    ---------------------

    Doubly Occupied:

       1A    -91.993647     2A    -15.564113     3A    -11.310038
       4A    -11.269013     5A    -11.260368     6A    -11.248643
       7A    -11.220337     8A    -11.219409     9A     -8.994339
      10A     -6.675242    11A     -6.674722    12A     -6.674013
      13A     -1.275012    14A     -1.093737    15A     -1.061297
      16A     -0.980429    17A     -0.933689    18A     -0.842951
      19A     -0.793155    20A     -0.717250    21A     -0.683949
      22A     -0.623990    23A     -0.601017    24A     -0.586792
      25A     -0.567232    26A     -0.545159    27A     -0.531041
      28A     -0.505190    29A     -0.501893    30A     -0.487240
      31A     -0.480559    32A     -0.422074    33A     -0.386862
      34A     -0.327354

  @DF-RHF Final Energy:  -684.53305719325306

   => Energetics <=

    Nuclear Repulsion Energy =            437.5989547183754098
    One-Electron Energy =               -1806.1605174203216393
    Two-Electron Energy =                 684.0285055086932289
    Total Energy =                       -684.5330571932530574
  Basis Set: (AUG-CC-PVTZ AUX)
    Blend: AUG-CC-PVTZ-RI
    Molecular point group: c1

    Geometry (in Angstrom), charge = 0, multiplicity = 1:

       Center              X                  Y                   Z               Mass
    ------------   -----------------  -----------------  -----------------  -----------------
         S            1.144710037055    -1.144067789932     0.001422701859    31.972071174400
         N            0.245272037055     1.269574210068     0.001455701859    14.003074004430
         C           -1.583923762945    -0.402692589932    -0.013818698141    12.000000000000
         C           -0.153985962945     0.012557210068     0.001436701859    12.000000000000
         C           -2.286521962945     0.135300210068    -1.262975298141    12.000000000000
         C           -2.286513962945     0.135236210068     1.265868701859    12.000000000000
         C            2.279365037055     0.140413210068     0.001444701859    12.000000000000
         C            1.614978037055     1.343766210068     0.001460701859    12.000000000000
         H           -1.650933962945    -1.485758789932     0.001402701859     1.007825032230
         H           -2.220370962945     1.225889210068    -1.291595298141     1.007825032230
         H           -3.341822962945    -0.155738789932    -1.274794298141     1.007825032230
         H           -1.807771962945    -0.261895789932    -2.162765298141     1.007825032230
         H           -1.807755962945    -0.262003789932     2.165634701859     1.007825032230
         H           -3.341813962945    -0.155804789932     1.277680701859     1.007825032230
         H           -2.220362962945     1.225824210068     1.294541701859     1.007825032230
         H            3.346105037055    -0.039864789932     0.001443701859     1.007825032230
         H            2.096317037055     2.315832210068     0.001476701859     1.007825032230

  Basis Set: AUG-CC-PVTZ
    Blend: AUG-CC-PVTZ
  Basis Set: (AUG-CC-PVTZ AUX)
    Blend: AUG-CC-PVTZ-JKFIT
	 Reference Energy          =    -684.5330571932530574 [Eh]
	 Singles Energy            =      -0.0000000000000000 [Eh]
	 Same-Spin Energy          =      -0.3769176168760072 [Eh]
	 Opposite-Spin Energy      =      -1.1968544589709311 [Eh]
	 Correlation Energy        =      -1.5737720758469385 [Eh]
	 Total Energy              =    -686.1068292690999897 [Eh]

	 ================> DF-SCS-MP2 Energies <==================
	-----------------------------------------------------------
	 SCS Same-Spin Scale       =       0.3333333333333333 [-]
	 SCS Opposite-Spin Scale   =       1.2000000000000000 [-]
	 SCS Same-Spin Energy      =      -0.1256392056253357 [Eh]
	 SCS Opposite-Spin Energy  =      -1.4362253507651173 [Eh]
	 SCS Correlation Energy    =      -1.5618645563904530 [Eh]
	 SCS Total Energy          =    -686.0949217496435040 [Eh]
	-----------------------------------------------------------

  Dipole Moment: [D]
     X:     0.4875      Y:    -1.1524      Z:    -0.0104     Total:     1.2513

*** Psi4 exiting successfully. Buy a developer a beer!
