                               Psi4 1.4a3.dev225

  ==> Input File <==

--------------------------------------------------------------------------
#psi4
#
memory 32 gb

molecule  {
0 1
  S        1.2258560    -1.1625810    -0.0000180
  N        0.3264180     1.2510610     0.0000150
  C       -1.5198050    -0.4073720    -0.0000100
  C       -0.1503585    -0.0993659    -0.0000056
  C       -2.2053760     0.1167870    -1.2644160
  C       -2.2053680     0.1167230     1.2644280
  C        2.3605110     0.1219000     0.0000040
  C        1.6961240     1.3252530     0.0000200
  H       -1.5697880    -1.5042720    -0.0000380
  H       -2.1392250     1.2073760    -1.2930360
  H       -3.2606770    -0.1742520    -1.2762350
  H       -1.7266260    -0.2804090    -2.1642060
  H       -1.7266100    -0.2805170     2.1641940
  H       -3.2606680    -0.1743180     1.2762400
  H       -2.1392170     1.2073110     1.2931010
  H        3.4272510    -0.0583780     0.0000030
  H        2.1774630     2.2973190     0.0000360
units angstrom
no_reorient  #important for SAPT in psi4, default
symmetry c1  #important for SAPT in psi4, default
}

set PROPERTIES_ORIGIN ["COM"]
properties('MP2/aug-cc-pvtz', properties = ['dipole'])
--------------------------------------------------------------------------

    Molecular point group: c1
  Charge       = 0
  Multiplicity = 1
  Basis Set: AUG-CC-PVTZ
    Blend: AUG-CC-PVTZ
  Basis Set: (AUG-CC-PVTZ AUX)
    Blend: AUG-CC-PVTZ-JKFIT

    Orbital Energies [Eh]
    ---------------------

    Doubly Occupied:

       1A    -92.000829     2A    -15.566358     3A    -11.318875
       4A    -11.268718     5A    -11.257951     6A    -11.246080
       7A    -11.222692     8A    -11.222676     9A     -9.000362
      10A     -6.681205    11A     -6.680880    12A     -6.680233
      13A     -1.245089    14A     -1.112175    15A     -1.051096
      16A     -0.978396    17A     -0.939227    18A     -0.860346
      19A     -0.779579    20A     -0.717232    21A     -0.678504
      22A     -0.631146    23A     -0.606271    24A     -0.589116
      25A     -0.559364    26A     -0.545239    27A     -0.526318
      28A     -0.513158    29A     -0.499671    30A     -0.490892
      31A     -0.485634    32A     -0.412944    33A     -0.378310
      34A     -0.318728

  @DF-RHF Final Energy:  -684.50598891062157

   => Energetics <=

    Nuclear Repulsion Energy =            436.9014273561913910
    One-Electron Energy =               -1804.6842445192905870
    Two-Electron Energy =                 683.2768282524776851
    Total Energy =                       -684.5059889106215678
  Basis Set: (AUG-CC-PVTZ AUX)
    Blend: AUG-CC-PVTZ-RI
    Molecular point group: c1

    Geometry (in Angstrom), charge = 0, multiplicity = 1:

       Center              X                  Y                   Z               Mass
    ------------   -----------------  -----------------  -----------------  -----------------
         S            1.153640284649    -1.136551485377    -0.000017518366    31.972071174400
         N            0.254202284649     1.277090514623     0.000015481634    14.003074004430
         C           -1.592020715351    -0.381342485377    -0.000009518366    12.000000000000
         C           -0.222574215351    -0.073336385377    -0.000005118366    12.000000000000
         C           -2.277591715351     0.142816514623    -1.264415518366    12.000000000000
         C           -2.277583715351     0.142752514623     1.264428481634    12.000000000000
         C            2.288295284649     0.147929514623     0.000004481634    12.000000000000
         C            1.623908284649     1.351282514623     0.000020481634    12.000000000000
         H           -1.642003715351    -1.478242485377    -0.000037518366     1.007825032230
         H           -2.211440715351     1.233405514623    -1.293035518366     1.007825032230
         H           -3.332892715351    -0.148222485377    -1.276234518366     1.007825032230
         H           -1.798841715351    -0.254379485377    -2.164205518366     1.007825032230
         H           -1.798825715351    -0.254487485377     2.164194481634     1.007825032230
         H           -3.332883715351    -0.148288485377     1.276240481634     1.007825032230
         H           -2.211432715351     1.233340514623     1.293101481634     1.007825032230
         H            3.355035284649    -0.032348485377     0.000003481634     1.007825032230
         H            2.105247284649     2.323348514623     0.000036481634     1.007825032230

  Basis Set: AUG-CC-PVTZ
    Blend: AUG-CC-PVTZ
  Basis Set: (AUG-CC-PVTZ AUX)
    Blend: AUG-CC-PVTZ-JKFIT
	 Reference Energy          =    -684.5059889106215678 [Eh]
	 Singles Energy            =      -0.0000000000000000 [Eh]
	 Same-Spin Energy          =      -0.3812318446958428 [Eh]
	 Opposite-Spin Energy      =      -1.2032136568625467 [Eh]
	 Correlation Energy        =      -1.5844455015583896 [Eh]
	 Total Energy              =    -686.0904344121800023 [Eh]

	 ================> DF-SCS-MP2 Energies <==================
	-----------------------------------------------------------
	 SCS Same-Spin Scale       =       0.3333333333333333 [-]
	 SCS Opposite-Spin Scale   =       1.2000000000000000 [-]
	 SCS Same-Spin Energy      =      -0.1270772815652809 [Eh]
	 SCS Opposite-Spin Energy  =      -1.4438563882350559 [Eh]
	 SCS Correlation Energy    =      -1.5709336698003369 [Eh]
	 SCS Total Energy          =    -686.0769225804218650 [Eh]
	-----------------------------------------------------------

  Dipole Moment: [D]
     X:     0.4702      Y:    -1.2250      Z:    -0.0000     Total:     1.3121

*** Psi4 exiting successfully. Buy a developer a beer!
