                               Psi4 1.4a3.dev225

  ==> Input File <==

--------------------------------------------------------------------------
#psi4
#
memory 32 gb

molecule  {
0 1
  S        1.2654305    -1.1165526    -0.0000173
  N        0.3264180     1.2510610     0.0000150
  C       -1.5198050    -0.4073720    -0.0000100
  C       -0.0728400    -0.0059560    -0.0000040
  C       -2.2053760     0.1167870    -1.2644160
  C       -2.2053680     0.1167230     1.2644280
  C        2.3605110     0.1219000     0.0000040
  C        1.6961240     1.3252530     0.0000200
  H       -1.5697880    -1.5042720    -0.0000380
  H       -2.1392250     1.2073760    -1.2930360
  H       -3.2606770    -0.1742520    -1.2762350
  H       -1.7266260    -0.2804090    -2.1642060
  H       -1.7266100    -0.2805170     2.1641940
  H       -3.2606680    -0.1743180     1.2762400
  H       -2.1392170     1.2073110     1.2931010
  H        3.4272510    -0.0583780     0.0000030
  H        2.1774630     2.2973190     0.0000360
units angstrom
no_reorient  #important for SAPT in psi4, default
symmetry c1  #important for SAPT in psi4, default
}

set PROPERTIES_ORIGIN ["COM"]
properties('MP2/aug-cc-pvtz', properties = ['dipole'])
--------------------------------------------------------------------------

    Molecular point group: c1
  Charge       = 0
  Multiplicity = 1
  Basis Set: AUG-CC-PVTZ
    Blend: AUG-CC-PVTZ
  Basis Set: (AUG-CC-PVTZ AUX)
    Blend: AUG-CC-PVTZ-JKFIT

    Orbital Energies [Eh]
    ---------------------

    Doubly Occupied:

       1A    -91.991431     2A    -15.564105     3A    -11.307298
       4A    -11.266630     5A    -11.255828     6A    -11.249785
       7A    -11.219143     8A    -11.219127     9A     -8.993538
      10A     -6.674537    11A     -6.674000    12A     -6.673206
      13A     -1.277681    14A     -1.095376    15A     -1.072226
      16A     -0.978860    17A     -0.935610    18A     -0.840339
      19A     -0.790723    20A     -0.721574    21A     -0.684126
      22A     -0.626600    23A     -0.602285    24A     -0.587797
      25A     -0.567536    26A     -0.546298    27A     -0.533309
      28A     -0.504898    29A     -0.499661    30A     -0.487840
      31A     -0.484044    32A     -0.421354    33A     -0.389606
      34A     -0.324886

  @DF-RHF Final Energy:  -684.53136783905973

   => Energetics <=

    Nuclear Repulsion Energy =            439.0199771353328515
    One-Electron Energy =               -1808.9801749124048911
    Two-Electron Energy =                 685.4288299380124272
    Total Energy =                       -684.5313678390597261
  Basis Set: (AUG-CC-PVTZ AUX)
    Blend: AUG-CC-PVTZ-RI
    Molecular point group: c1

    Geometry (in Angstrom), charge = 0, multiplicity = 1:

       Center              X                  Y                   Z               Mass
    ------------   -----------------  -----------------  -----------------  -----------------
         S            1.175933578208    -1.110929480274    -0.000017145653    31.972071174400
         N            0.236921078208     1.256684119726     0.000015154347    14.003074004430
         C           -1.609301921792    -0.401748880274    -0.000009845653    12.000000000000
         C           -0.162336921792    -0.000332880274    -0.000003845653    12.000000000000
         C           -2.294872921792     0.122410119726    -1.264415845653    12.000000000000
         C           -2.294864921792     0.122346119726     1.264428154347    12.000000000000
         C            2.271014078208     0.127523119726     0.000004154347    12.000000000000
         C            1.606627078208     1.330876119726     0.000020154347    12.000000000000
         H           -1.659284921792    -1.498648880274    -0.000037845653     1.007825032230
         H           -2.228721921792     1.212999119726    -1.293035845653     1.007825032230
         H           -3.350173921792    -0.168628880274    -1.276234845653     1.007825032230
         H           -1.816122921792    -0.274785880274    -2.164205845653     1.007825032230
         H           -1.816106921792    -0.274893880274     2.164194154347     1.007825032230
         H           -3.350164921792    -0.168694880274     1.276240154347     1.007825032230
         H           -2.228713921792     1.212934119726     1.293101154347     1.007825032230
         H            3.337754078208    -0.052754880274     0.000003154347     1.007825032230
         H            2.087966078208     2.302942119726     0.000036154347     1.007825032230

  Basis Set: AUG-CC-PVTZ
    Blend: AUG-CC-PVTZ
  Basis Set: (AUG-CC-PVTZ AUX)
    Blend: AUG-CC-PVTZ-JKFIT
	 Reference Energy          =    -684.5313678390597261 [Eh]
	 Singles Energy            =      -0.0000000000000000 [Eh]
	 Same-Spin Energy          =      -0.3777204564670368 [Eh]
	 Opposite-Spin Energy      =      -1.1966133213655084 [Eh]
	 Correlation Energy        =      -1.5743337778325452 [Eh]
	 Total Energy              =    -686.1057016168922473 [Eh]

	 ================> DF-SCS-MP2 Energies <==================
	-----------------------------------------------------------
	 SCS Same-Spin Scale       =       0.3333333333333333 [-]
	 SCS Opposite-Spin Scale   =       1.2000000000000000 [-]
	 SCS Same-Spin Energy      =      -0.1259068188223456 [Eh]
	 SCS Opposite-Spin Energy  =      -1.4359359856386100 [Eh]
	 SCS Correlation Energy    =      -1.5618428044609556 [Eh]
	 SCS Total Energy          =    -686.0932106435207061 [Eh]
	-----------------------------------------------------------

  Dipole Moment: [D]
     X:     0.5271      Y:    -1.1710      Z:    -0.0000     Total:     1.2842

*** Psi4 exiting successfully. Buy a developer a beer!
