                               Psi4 1.4a3.dev225

  ==> Input File <==

--------------------------------------------------------------------------
#psi4
#
memory 32 gb

molecule  {
0 1
  S        1.2258560    -1.1625810    -0.0000180
  N        0.3264180     1.2510610     0.0000150
  C       -1.5198050    -0.4073720    -0.0000100
  C       -0.0728400    -0.0059560    -0.0000040
  C       -2.2053760     0.1167870    -1.2644160
  C       -2.2053680     0.1167230     1.2644280
  C        2.3605110     0.1219000     0.0000040
  C        1.6961240     1.3252530     0.0000200
  H       -1.5697880    -1.5042720    -0.0000380
  H       -2.1392250     1.2073760    -1.2930360
  H       -3.2413979    -0.1689351    -1.2760191
  H       -1.7266260    -0.2804090    -2.1642060
  H       -1.7266100    -0.2805170     2.1641940
  H       -3.2606680    -0.1743180     1.2762400
  H       -2.1392170     1.2073110     1.2931010
  H        3.4272510    -0.0583780     0.0000030
  H        2.1774630     2.2973190     0.0000360
units angstrom
no_reorient  #important for SAPT in psi4, default
symmetry c1  #important for SAPT in psi4, default
}

set PROPERTIES_ORIGIN ["COM"]
properties('MP2/aug-cc-pvtz', properties = ['dipole'])
--------------------------------------------------------------------------

    Molecular point group: c1
  Charge       = 0
  Multiplicity = 1
  Basis Set: AUG-CC-PVTZ
    Blend: AUG-CC-PVTZ
  Basis Set: (AUG-CC-PVTZ AUX)
    Blend: AUG-CC-PVTZ-JKFIT

    Orbital Energies [Eh]
    ---------------------

    Doubly Occupied:

       1A    -91.993828     2A    -15.563739     3A    -11.309851
       4A    -11.268767     5A    -11.260285     6A    -11.249229
       7A    -11.219320     8A    -11.216838     9A     -8.994467
      10A     -6.675368    11A     -6.674858    12A     -6.674145
      13A     -1.274550    14A     -1.094713    15A     -1.061052
      16A     -0.981011    17A     -0.936863    18A     -0.840814
      19A     -0.792523    20A     -0.716471    21A     -0.683040
      22A     -0.625613    23A     -0.602158    24A     -0.587711
      25A     -0.567041    26A     -0.545494    27A     -0.532669
      28A     -0.504073    29A     -0.500139    30A     -0.487229
      31A     -0.483011    32A     -0.421946    33A     -0.386757
      34A     -0.327712

  @DF-RHF Final Energy:  -684.53368675484023

   => Energetics <=

    Nuclear Repulsion Energy =            437.6252718384493505
    One-Electron Energy =               -1806.2113567283076918
    Two-Electron Energy =                 684.0523981350180520
    Total Energy =                       -684.5336867548402324
  Basis Set: (AUG-CC-PVTZ AUX)
    Blend: AUG-CC-PVTZ-RI
    Molecular point group: c1

    Geometry (in Angstrom), charge = 0, multiplicity = 1:

       Center              X                  Y                   Z               Mass
    ------------   -----------------  -----------------  -----------------  -----------------
         S            1.146165392324    -1.145416629599    -0.000019382181    31.972071174400
         N            0.246727392324     1.268225370401     0.000013617819    14.003074004430
         C           -1.599495607676    -0.390207629599    -0.000011382181    12.000000000000
         C           -0.152530607676     0.011208370401    -0.000005382181    12.000000000000
         C           -2.285066607676     0.133951370401    -1.264417382181    12.000000000000
         C           -2.285058607676     0.133887370401     1.264426617819    12.000000000000
         C            2.280820392324     0.139064370401     0.000002617819    12.000000000000
         C            1.616433392324     1.342417370401     0.000018617819    12.000000000000
         H           -1.649478607676    -1.487107629599    -0.000039382181     1.007825032230
         H           -2.218915607676     1.224540370401    -1.293037382181     1.007825032230
         H           -3.321088507676    -0.151770729599    -1.276020482181     1.007825032230
         H           -1.806316607676    -0.263244629599    -2.164207382181     1.007825032230
         H           -1.806300607676    -0.263352629599     2.164192617819     1.007825032230
         H           -3.340358607676    -0.157153629599     1.276238617819     1.007825032230
         H           -2.218907607676     1.224475370401     1.293099617819     1.007825032230
         H            3.347560392324    -0.041213629599     0.000001617819     1.007825032230
         H            2.097772392324     2.314483370401     0.000034617819     1.007825032230

  Basis Set: AUG-CC-PVTZ
    Blend: AUG-CC-PVTZ
  Basis Set: (AUG-CC-PVTZ AUX)
    Blend: AUG-CC-PVTZ-JKFIT
	 Reference Energy          =    -684.5336867548402324 [Eh]
	 Singles Energy            =      -0.0000000000000000 [Eh]
	 Same-Spin Energy          =      -0.3768901662260497 [Eh]
	 Opposite-Spin Energy      =      -1.1966787636672875 [Eh]
	 Correlation Energy        =      -1.5735689298933373 [Eh]
	 Total Energy              =    -686.1072556847335591 [Eh]

	 ================> DF-SCS-MP2 Energies <==================
	-----------------------------------------------------------
	 SCS Same-Spin Scale       =       0.3333333333333333 [-]
	 SCS Opposite-Spin Scale   =       1.2000000000000000 [-]
	 SCS Same-Spin Energy      =      -0.1256300554086832 [Eh]
	 SCS Opposite-Spin Energy  =      -1.4360145164007450 [Eh]
	 SCS Correlation Energy    =      -1.5616445718094283 [Eh]
	 SCS Total Energy          =    -686.0953313266496707 [Eh]
	-----------------------------------------------------------

  Dipole Moment: [D]
     X:     0.4770      Y:    -1.1469      Z:    -0.0033     Total:     1.2422

*** Psi4 exiting successfully. Buy a developer a beer!
