                               Psi4 1.4a3.dev225

  ==> Input File <==

--------------------------------------------------------------------------
#psi4
#
memory 32 gb

molecule  {
0 1
  S        1.2258560    -1.1625810    -0.0000180
  N        0.3264180     1.2510610     0.0000150
  C       -1.5454078    -0.5061838     0.0315796
  C       -0.0728400    -0.0059560    -0.0000040
  C       -2.2053760     0.1167870    -1.2644160
  C       -2.2053680     0.1167230     1.2644280
  C        2.3605110     0.1219000     0.0000040
  C        1.6961240     1.3252530     0.0000200
  H       -1.5697880    -1.5042720    -0.0000380
  H       -2.1392250     1.2073760    -1.2930360
  H       -3.2606770    -0.1742520    -1.2762350
  H       -1.7266260    -0.2804090    -2.1642060
  H       -1.7266100    -0.2805170     2.1641940
  H       -3.2606680    -0.1743180     1.2762400
  H       -2.1392170     1.2073110     1.2931010
  H        3.4272510    -0.0583780     0.0000030
  H        2.1774630     2.2973190     0.0000360
units angstrom
no_reorient  #important for SAPT in psi4, default
symmetry c1  #important for SAPT in psi4, default
}

set PROPERTIES_ORIGIN ["COM"]
properties('MP2/aug-cc-pvtz', properties = ['dipole'])
--------------------------------------------------------------------------

    Molecular point group: c1
  Charge       = 0
  Multiplicity = 1
  Basis Set: AUG-CC-PVTZ
    Blend: AUG-CC-PVTZ
  Basis Set: (AUG-CC-PVTZ AUX)
    Blend: AUG-CC-PVTZ-JKFIT

    Orbital Energies [Eh]
    ---------------------

    Doubly Occupied:

       1A    -91.990970     2A    -15.563755     3A    -11.312262
       4A    -11.268452     5A    -11.258844     6A    -11.249373
       7A    -11.221730     8A    -11.220111     9A     -8.991859
      10A     -6.672780    11A     -6.672222    12A     -6.671539
      13A     -1.272489    14A     -1.088857    15A     -1.059818
      16A     -0.978503    17A     -0.931878    18A     -0.842796
      19A     -0.791941    20A     -0.723826    21A     -0.684756
      22A     -0.623103    23A     -0.599330    24A     -0.581641
      25A     -0.567307    26A     -0.548871    27A     -0.529926
      28A     -0.518796    29A     -0.498110    30A     -0.487800
      31A     -0.473831    32A     -0.417161    33A     -0.385801
      34A     -0.326220

  @DF-RHF Final Energy:  -684.52117019651973

   => Energetics <=

    Nuclear Repulsion Energy =            436.4212928480864093
    One-Electron Energy =               -1803.8316116125356530
    Two-Electron Energy =                 682.8891485679293964
    Total Energy =                       -684.5211701965197335
  Basis Set: (AUG-CC-PVTZ AUX)
    Blend: AUG-CC-PVTZ-RI
    Molecular point group: c1

    Geometry (in Angstrom), charge = 0, multiplicity = 1:

       Center              X                  Y                   Z               Mass
    ------------   -----------------  -----------------  -----------------  -----------------
         S            1.148736623721    -1.136041252712    -0.003001442942    31.972071174400
         N            0.249298623721     1.277600747288    -0.002968442942    14.003074004430
         C           -1.622527176279    -0.479644052712     0.028596157058    12.000000000000
         C           -0.149959376279     0.020583747288    -0.002987442942    12.000000000000
         C           -2.282495376279     0.143326747288    -1.267399442942    12.000000000000
         C           -2.282487376279     0.143262747288     1.261444557058    12.000000000000
         C            2.283391623721     0.148439747288    -0.002979442942    12.000000000000
         C            1.619004623721     1.351792747288    -0.002963442942    12.000000000000
         H           -1.646907376279    -1.477732252712    -0.003021442942     1.007825032230
         H           -2.216344376279     1.233915747288    -1.296019442942     1.007825032230
         H           -3.337796376279    -0.147712252712    -1.279218442942     1.007825032230
         H           -1.803745376279    -0.253869252712    -2.167189442942     1.007825032230
         H           -1.803729376279    -0.253977252712     2.161210557058     1.007825032230
         H           -3.337787376279    -0.147778252712     1.273256557058     1.007825032230
         H           -2.216336376279     1.233850747288     1.290117557058     1.007825032230
         H            3.350131623721    -0.031838252712    -0.002980442942     1.007825032230
         H            2.100343623721     2.323858747288    -0.002947442942     1.007825032230

  Basis Set: AUG-CC-PVTZ
    Blend: AUG-CC-PVTZ
  Basis Set: (AUG-CC-PVTZ AUX)
    Blend: AUG-CC-PVTZ-JKFIT
	 Reference Energy          =    -684.5211701965197335 [Eh]
	 Singles Energy            =      -0.0000000000000000 [Eh]
	 Same-Spin Energy          =      -0.3765453190810701 [Eh]
	 Opposite-Spin Energy      =      -1.1966944501142471 [Eh]
	 Correlation Energy        =      -1.5732397691953173 [Eh]
	 Total Energy              =    -686.0944099657150446 [Eh]

	 ================> DF-SCS-MP2 Energies <==================
	-----------------------------------------------------------
	 SCS Same-Spin Scale       =       0.3333333333333333 [-]
	 SCS Opposite-Spin Scale   =       1.2000000000000000 [-]
	 SCS Same-Spin Energy      =      -0.1255151063603567 [Eh]
	 SCS Opposite-Spin Energy  =      -1.4360333401370966 [Eh]
	 SCS Correlation Energy    =      -1.5615484464974534 [Eh]
	 SCS Total Energy          =    -686.0827186430171878 [Eh]
	-----------------------------------------------------------

  Dipole Moment: [D]
     X:     0.4064      Y:    -1.1725      Z:     0.0233     Total:     1.2411

*** Psi4 exiting successfully. Buy a developer a beer!
