                               Psi4 1.4a3.dev225

  ==> Input File <==

--------------------------------------------------------------------------
#psi4
#
memory 32 gb

molecule  {
0 1
  S        1.3396418    -1.0204942    -0.0000157
  N        0.3264180     1.2510610     0.0000150
  C       -1.5198050    -0.4073720    -0.0000100
  C       -0.0728400    -0.0059560    -0.0000040
  C       -2.2053760     0.1167870    -1.2644160
  C       -2.2053680     0.1167230     1.2644280
  C        2.3605110     0.1219000     0.0000040
  C        1.6961240     1.3252530     0.0000200
  H       -1.5697880    -1.5042720    -0.0000380
  H       -2.1392250     1.2073760    -1.2930360
  H       -3.2606770    -0.1742520    -1.2762350
  H       -1.7266260    -0.2804090    -2.1642060
  H       -1.7266100    -0.2805170     2.1641940
  H       -3.2606680    -0.1743180     1.2762400
  H       -2.1392170     1.2073110     1.2931010
  H        3.4272510    -0.0583780     0.0000030
  H        2.1774630     2.2973190     0.0000360
units angstrom
no_reorient  #important for SAPT in psi4, default
symmetry c1  #important for SAPT in psi4, default
}

set PROPERTIES_ORIGIN ["COM"]
properties('MP2/aug-cc-pvtz', properties = ['dipole'])
--------------------------------------------------------------------------

    Molecular point group: c1
  Charge       = 0
  Multiplicity = 1
  Basis Set: AUG-CC-PVTZ
    Blend: AUG-CC-PVTZ
  Basis Set: (AUG-CC-PVTZ AUX)
    Blend: AUG-CC-PVTZ-JKFIT

    Orbital Energies [Eh]
    ---------------------

    Doubly Occupied:

       1A    -91.984923     2A    -15.564666     3A    -11.300999
       4A    -11.262427     5A    -11.250195     6A    -11.246523
       7A    -11.218513     8A    -11.218498     9A     -8.991211
      10A     -6.672818    11A     -6.671354    12A     -6.670637
      13A     -1.286414    14A     -1.110554    15A     -1.084765
      16A     -0.974579    17A     -0.935006    18A     -0.840310
      19A     -0.787843    20A     -0.732129    21A     -0.686819
      22A     -0.630295    23A     -0.603986    24A     -0.591310
      25A     -0.569291    26A     -0.549466    27A     -0.536780
      28A     -0.508061    29A     -0.494393    30A     -0.488602
      31A     -0.483970    32A     -0.418722    33A     -0.397515
      34A     -0.317446

  @DF-RHF Final Energy:  -684.50738778027744

   => Energetics <=

    Nuclear Repulsion Energy =            442.4417077090775479
    One-Electron Energy =               -1815.7361499499870661
    Two-Electron Energy =                 688.7870544606321346
    Total Energy =                       -684.5073877802774405
  Basis Set: (AUG-CC-PVTZ AUX)
    Blend: AUG-CC-PVTZ-RI
    Molecular point group: c1

    Geometry (in Angstrom), charge = 0, multiplicity = 1:

       Center              X                  Y                   Z               Mass
    ------------   -----------------  -----------------  -----------------  -----------------
         S            1.231468989259    -1.039044973078    -0.000015948307    31.972071174400
         N            0.218245189259     1.232510226922     0.000014751693    14.003074004430
         C           -1.627977810741    -0.425922773078    -0.000010248307    12.000000000000
         C           -0.181012810741    -0.024506773078    -0.000004248307    12.000000000000
         C           -2.313548810741     0.098236226922    -1.264416248307    12.000000000000
         C           -2.313540810741     0.098172226922     1.264427751693    12.000000000000
         C            2.252338189259     0.103349226922     0.000003751693    12.000000000000
         C            1.587951189259     1.306702226922     0.000019751693    12.000000000000
         H           -1.677960810741    -1.522822773078    -0.000038248307     1.007825032230
         H           -2.247397810741     1.188825226922    -1.293036248307     1.007825032230
         H           -3.368849810741    -0.192802773078    -1.276235248307     1.007825032230
         H           -1.834798810741    -0.298959773078    -2.164206248307     1.007825032230
         H           -1.834782810741    -0.299067773078     2.164193751693     1.007825032230
         H           -3.368840810741    -0.192868773078     1.276239751693     1.007825032230
         H           -2.247389810741     1.188760226922     1.293100751693     1.007825032230
         H            3.319078189259    -0.076928773078     0.000002751693     1.007825032230
         H            2.069290189259     2.278768226922     0.000035751693     1.007825032230

  Basis Set: AUG-CC-PVTZ
    Blend: AUG-CC-PVTZ
  Basis Set: (AUG-CC-PVTZ AUX)
    Blend: AUG-CC-PVTZ-JKFIT
	 Reference Energy          =    -684.5073877802774405 [Eh]
	 Singles Energy            =      -0.0000000000000000 [Eh]
	 Same-Spin Energy          =      -0.3798163656636342 [Eh]
	 Opposite-Spin Energy      =      -1.1969906424433954 [Eh]
	 Correlation Energy        =      -1.5768070081070296 [Eh]
	 Total Energy              =    -686.0841947883844796 [Eh]

	 ================> DF-SCS-MP2 Energies <==================
	-----------------------------------------------------------
	 SCS Same-Spin Scale       =       0.3333333333333333 [-]
	 SCS Opposite-Spin Scale   =       1.2000000000000000 [-]
	 SCS Same-Spin Energy      =      -0.1266054552212114 [Eh]
	 SCS Opposite-Spin Energy  =      -1.4363887709320744 [Eh]
	 SCS Correlation Energy    =      -1.5629942261532859 [Eh]
	 SCS Total Energy          =    -686.0703820064306910 [Eh]
	-----------------------------------------------------------

  Dipole Moment: [D]
     X:     0.6299      Y:    -1.1983      Z:    -0.0000     Total:     1.3538

*** Psi4 exiting successfully. Buy a developer a beer!
