                               Psi4 1.4a3.dev225

  ==> Input File <==

--------------------------------------------------------------------------
#psi4
#
memory 32 gb

molecule  {
0 1
  S        1.2258560    -1.1625810    -0.0000180
  N        0.3264180     1.2510610     0.0000150
  C       -1.5198050    -0.4073720    -0.0000100
  C       -0.0122959     0.1846599    -0.0000011
  C       -2.2053760     0.1167870    -1.2644160
  C       -2.2053680     0.1167230     1.2644280
  C        2.3605110     0.1219000     0.0000040
  C        1.6961240     1.3252530     0.0000200
  H       -1.5697880    -1.5042720    -0.0000380
  H       -2.1392250     1.2073760    -1.2930360
  H       -3.2606770    -0.1742520    -1.2762350
  H       -1.7266260    -0.2804090    -2.1642060
  H       -1.7266100    -0.2805170     2.1641940
  H       -3.2606680    -0.1743180     1.2762400
  H       -2.1392170     1.2073110     1.2931010
  H        3.4272510    -0.0583780     0.0000030
  H        2.1774630     2.2973190     0.0000360
units angstrom
no_reorient  #important for SAPT in psi4, default
symmetry c1  #important for SAPT in psi4, default
}

set PROPERTIES_ORIGIN ["COM"]
properties('MP2/aug-cc-pvtz', properties = ['dipole'])
--------------------------------------------------------------------------

    Molecular point group: c1
  Charge       = 0
  Multiplicity = 1
  Basis Set: AUG-CC-PVTZ
    Blend: AUG-CC-PVTZ
  Basis Set: (AUG-CC-PVTZ AUX)
    Blend: AUG-CC-PVTZ-JKFIT

    Orbital Energies [Eh]
    ---------------------

    Doubly Occupied:

       1A    -91.975110     2A    -15.554628     3A    -11.295035
       4A    -11.271507     5A    -11.267517     6A    -11.251307
       7A    -11.217351     8A    -11.217336     9A     -8.976345
      10A     -6.657262    11A     -6.656456    12A     -6.655707
      13A     -1.352947    14A     -1.085014    15A     -1.071608
      16A     -0.974467    17A     -0.933909    18A     -0.818960
      19A     -0.814401    20A     -0.710814    21A     -0.693843
      22A     -0.622247    23A     -0.609054    24A     -0.606496
      25A     -0.569807    26A     -0.552329    27A     -0.536108
      28A     -0.509523    29A     -0.502199    30A     -0.484695
      31A     -0.480270    32A     -0.412292    33A     -0.389186
      34A     -0.328792

  @DF-RHF Final Energy:  -684.48308648405043

   => Energetics <=

    Nuclear Repulsion Energy =            438.6364475337108502
    One-Electron Energy =               -1808.1300215534165545
    Two-Electron Energy =                 685.0104875356552157
    Total Energy =                       -684.4830864840504319
  Basis Set: (AUG-CC-PVTZ AUX)
    Blend: AUG-CC-PVTZ-RI
    Molecular point group: c1

    Geometry (in Angstrom), charge = 0, multiplicity = 1:

       Center              X                  Y                   Z               Mass
    ------------   -----------------  -----------------  -----------------  -----------------
         S            1.140599678874    -1.163378942544    -0.000017943410    31.972071174400
         N            0.241161678874     1.250263057456     0.000015056590    14.003074004430
         C           -1.605061321126    -0.408169942544    -0.000009943410    12.000000000000
         C           -0.097552221126     0.183861957456    -0.000001043410    12.000000000000
         C           -2.290632321126     0.115989057456    -1.264415943410    12.000000000000
         C           -2.290624321126     0.115925057456     1.264428056590    12.000000000000
         C            2.275254678874     0.121102057456     0.000004056590    12.000000000000
         C            1.610867678874     1.324455057456     0.000020056590    12.000000000000
         H           -1.655044321126    -1.505069942544    -0.000037943410     1.007825032230
         H           -2.224481321126     1.206578057456    -1.293035943410     1.007825032230
         H           -3.345933321126    -0.175049942544    -1.276234943410     1.007825032230
         H           -1.811882321126    -0.281206942544    -2.164205943410     1.007825032230
         H           -1.811866321126    -0.281314942544     2.164194056590     1.007825032230
         H           -3.345924321126    -0.175115942544     1.276240056590     1.007825032230
         H           -2.224473321126     1.206513057456     1.293101056590     1.007825032230
         H            3.341994678874    -0.059175942544     0.000003056590     1.007825032230
         H            2.092206678874     2.296521057456     0.000036056590     1.007825032230

  Basis Set: AUG-CC-PVTZ
    Blend: AUG-CC-PVTZ
  Basis Set: (AUG-CC-PVTZ AUX)
    Blend: AUG-CC-PVTZ-JKFIT
	 Reference Energy          =    -684.4830864840504319 [Eh]
	 Singles Energy            =      -0.0000000000000000 [Eh]
	 Same-Spin Energy          =      -0.3722267605347701 [Eh]
	 Opposite-Spin Energy      =      -1.1912190487958023 [Eh]
	 Correlation Energy        =      -1.5634458093305723 [Eh]
	 Total Energy              =    -686.0465322933810057 [Eh]

	 ================> DF-SCS-MP2 Energies <==================
	-----------------------------------------------------------
	 SCS Same-Spin Scale       =       0.3333333333333333 [-]
	 SCS Opposite-Spin Scale   =       1.2000000000000000 [-]
	 SCS Same-Spin Energy      =      -0.1240755868449233 [Eh]
	 SCS Opposite-Spin Energy  =      -1.4294628585549627 [Eh]
	 SCS Correlation Energy    =      -1.5535384453998859 [Eh]
	 SCS Total Energy          =    -686.0366249294503405 [Eh]
	-----------------------------------------------------------

  Dipole Moment: [D]
     X:     0.2403      Y:    -0.5440      Z:    -0.0000     Total:     0.5947

*** Psi4 exiting successfully. Buy a developer a beer!
