                               Psi4 1.4a3.dev225

  ==> Input File <==

--------------------------------------------------------------------------
#psi4
#
memory 32 gb

molecule  {
0 1
  S        1.2258560    -1.1625810    -0.0000180
  N        0.3264180     1.2510610     0.0000150
  C       -1.5198050    -0.4073720    -0.0000100
  C       -0.1124145    -0.0519844    -0.0000048
  C       -2.2053760     0.1167870    -1.2644160
  C       -2.2053680     0.1167230     1.2644280
  C        2.3605110     0.1219000     0.0000040
  C        1.6961240     1.3252530     0.0000200
  H       -1.5697880    -1.5042720    -0.0000380
  H       -2.1392250     1.2073760    -1.2930360
  H       -3.2606770    -0.1742520    -1.2762350
  H       -1.7266260    -0.2804090    -2.1642060
  H       -1.7266100    -0.2805170     2.1641940
  H       -3.2606680    -0.1743180     1.2762400
  H       -2.1392170     1.2073110     1.2931010
  H        3.4272510    -0.0583780     0.0000030
  H        2.1774630     2.2973190     0.0000360
units angstrom
no_reorient  #important for SAPT in psi4, default
symmetry c1  #important for SAPT in psi4, default
}

set PROPERTIES_ORIGIN ["COM"]
properties('MP2/aug-cc-pvtz', properties = ['dipole'])
--------------------------------------------------------------------------

    Molecular point group: c1
  Charge       = 0
  Multiplicity = 1
  Basis Set: AUG-CC-PVTZ
    Blend: AUG-CC-PVTZ
  Basis Set: (AUG-CC-PVTZ AUX)
    Blend: AUG-CC-PVTZ-JKFIT

    Orbital Energies [Eh]
    ---------------------

    Doubly Occupied:

       1A    -91.997298     2A    -15.565579     3A    -11.314737
       4A    -11.268752     5A    -11.259246     6A    -11.247916
       7A    -11.220922     8A    -11.220907     9A     -8.997407
      10A     -6.678280    11A     -6.677862    12A     -6.677182
      13A     -1.258504    14A     -1.103025    15A     -1.055770
      16A     -0.979883    17A     -0.937467    18A     -0.850242
      19A     -0.786092    20A     -0.716943    21A     -0.680783
      22A     -0.628287    23A     -0.603709    24A     -0.587328
      25A     -0.563495    26A     -0.545089    27A     -0.528871
      28A     -0.506137    29A     -0.501748    30A     -0.489146
      31A     -0.484476    32A     -0.418981    33A     -0.381914
      34A     -0.323851

  @DF-RHF Final Energy:  -684.52414826946938

   => Energetics <=

    Nuclear Repulsion Energy =            437.1865413881259883
    One-Electron Energy =               -1805.3057247032563737
    Two-Electron Energy =                 683.5950350456610067
    Total Energy =                       -684.5241482694693786
  Basis Set: (AUG-CC-PVTZ AUX)
    Blend: AUG-CC-PVTZ-RI
    Molecular point group: c1

    Geometry (in Angstrom), charge = 0, multiplicity = 1:

       Center              X                  Y                   Z               Mass
    ------------   -----------------  -----------------  -----------------  -----------------
         S            1.150056310817    -1.141026871634    -0.000017593929    31.972071174400
         N            0.250618310817     1.272615128366     0.000015406071    14.003074004430
         C           -1.595604689183    -0.385817871634    -0.000009593929    12.000000000000
         C           -0.188214189183    -0.030430271634    -0.000004393929    12.000000000000
         C           -2.281175689183     0.138341128366    -1.264415593929    12.000000000000
         C           -2.281167689183     0.138277128366     1.264428406071    12.000000000000
         C            2.284711310817     0.143454128366     0.000004406071    12.000000000000
         C            1.620324310817     1.346807128366     0.000020406071    12.000000000000
         H           -1.645587689183    -1.482717871634    -0.000037593929     1.007825032230
         H           -2.215024689183     1.228930128366    -1.293035593929     1.007825032230
         H           -3.336476689183    -0.152697871634    -1.276234593929     1.007825032230
         H           -1.802425689183    -0.258854871634    -2.164205593929     1.007825032230
         H           -1.802409689183    -0.258962871634     2.164194406071     1.007825032230
         H           -3.336467689183    -0.152763871634     1.276240406071     1.007825032230
         H           -2.215016689183     1.228865128366     1.293101406071     1.007825032230
         H            3.351451310817    -0.036823871634     0.000003406071     1.007825032230
         H            2.101663310817     2.318873128366     0.000036406071     1.007825032230

  Basis Set: AUG-CC-PVTZ
    Blend: AUG-CC-PVTZ
  Basis Set: (AUG-CC-PVTZ AUX)
    Blend: AUG-CC-PVTZ-JKFIT
	 Reference Energy          =    -684.5241482694693786 [Eh]
	 Singles Energy            =      -0.0000000000000000 [Eh]
	 Same-Spin Energy          =      -0.3789272279861552 [Eh]
	 Opposite-Spin Energy      =      -1.1997160288424928 [Eh]
	 Correlation Energy        =      -1.5786432568286481 [Eh]
	 Total Energy              =    -686.1027915262980059 [Eh]

	 ================> DF-SCS-MP2 Energies <==================
	-----------------------------------------------------------
	 SCS Same-Spin Scale       =       0.3333333333333333 [-]
	 SCS Opposite-Spin Scale   =       1.2000000000000000 [-]
	 SCS Same-Spin Energy      =      -0.1263090759953851 [Eh]
	 SCS Opposite-Spin Energy  =      -1.4396592346109913 [Eh]
	 SCS Correlation Energy    =      -1.5659683106063764 [Eh]
	 SCS Total Energy          =    -686.0901165800758008 [Eh]
	-----------------------------------------------------------

  Dipole Moment: [D]
     X:     0.4808      Y:    -1.1912      Z:    -0.0000     Total:     1.2846

*** Psi4 exiting successfully. Buy a developer a beer!
