                               Psi4 1.4a3.dev225

  ==> Input File <==

--------------------------------------------------------------------------
#psi4
#
memory 32 gb

molecule  {
0 1
  S        1.2258560    -1.1625810    -0.0000180
  N        0.3264180     1.2510610     0.0000150
  C       -1.5198050    -0.4073720    -0.0000100
  C       -0.0697107    -0.0180917     0.0230129
  C       -2.2053760     0.1167870    -1.2644160
  C       -2.2053680     0.1167230     1.2644280
  C        2.3605110     0.1219000     0.0000040
  C        1.6961240     1.3252530     0.0000200
  H       -1.5697880    -1.5042720    -0.0000380
  H       -2.1392250     1.2073760    -1.2930360
  H       -3.2606770    -0.1742520    -1.2762350
  H       -1.7266260    -0.2804090    -2.1642060
  H       -1.7266100    -0.2805170     2.1641940
  H       -3.2606680    -0.1743180     1.2762400
  H       -2.1392170     1.2073110     1.2931010
  H        3.4272510    -0.0583780     0.0000030
  H        2.1774630     2.2973190     0.0000360
units angstrom
no_reorient  #important for SAPT in psi4, default
symmetry c1  #important for SAPT in psi4, default
}

set PROPERTIES_ORIGIN ["COM"]
properties('MP2/aug-cc-pvtz', properties = ['dipole'])
--------------------------------------------------------------------------

    Molecular point group: c1
  Charge       = 0
  Multiplicity = 1
  Basis Set: AUG-CC-PVTZ
    Blend: AUG-CC-PVTZ
  Basis Set: (AUG-CC-PVTZ AUX)
    Blend: AUG-CC-PVTZ-JKFIT

    Orbital Energies [Eh]
    ---------------------

    Doubly Occupied:

       1A    -91.995247     2A    -15.564142     3A    -11.310186
       4A    -11.268894     5A    -11.259959     6A    -11.249338
       7A    -11.219372     8A    -11.218991     9A     -8.995959
      10A     -6.676865    11A     -6.676361    12A     -6.675648
      13A     -1.272062    14A     -1.094291    15A     -1.061355
      16A     -0.981263    17A     -0.935572    18A     -0.840265
      19A     -0.791404    20A     -0.717211    21A     -0.682541
      22A     -0.625330    23A     -0.600698    24A     -0.586289
      25A     -0.566800    26A     -0.545188    27A     -0.531128
      28A     -0.504581    29A     -0.498794    30A     -0.487123
      31A     -0.482890    32A     -0.423388    33A     -0.385991
      34A     -0.327801

  @DF-RHF Final Energy:  -684.53258872864194

   => Energetics <=

    Nuclear Repulsion Energy =            437.5287625643429692
    One-Electron Energy =               -1806.0168465788340200
    Two-Electron Energy =                 683.9554952858491106
    Total Energy =                       -684.5325887286419402
  Basis Set: (AUG-CC-PVTZ AUX)
    Blend: AUG-CC-PVTZ-RI
    Molecular point group: c1

    Geometry (in Angstrom), charge = 0, multiplicity = 1:

       Center              X                  Y                   Z               Mass
    ------------   -----------------  -----------------  -----------------  -----------------
         S            1.146022753424    -1.144228182773    -0.002191714593    31.972071174400
         N            0.246584753424     1.269413817227    -0.002158714593    14.003074004430
         C           -1.599638246576    -0.389019182773    -0.002183714593    12.000000000000
         C           -0.149543946576     0.000261117227     0.020839185407    12.000000000000
         C           -2.285209246576     0.135139817227    -1.266589714593    12.000000000000
         C           -2.285201246576     0.135075817227     1.262254285407    12.000000000000
         C            2.280677753424     0.140252817227    -0.002169714593    12.000000000000
         C            1.616290753424     1.343605817227    -0.002153714593    12.000000000000
         H           -1.649621246576    -1.485919182773    -0.002211714593     1.007825032230
         H           -2.219058246576     1.225728817227    -1.295209714593     1.007825032230
         H           -3.340510246576    -0.155899182773    -1.278408714593     1.007825032230
         H           -1.806459246576    -0.262056182773    -2.166379714593     1.007825032230
         H           -1.806443246576    -0.262164182773     2.162020285407     1.007825032230
         H           -3.340501246576    -0.155965182773     1.274066285407     1.007825032230
         H           -2.219050246576     1.225663817227     1.290927285407     1.007825032230
         H            3.347417753424    -0.040025182773    -0.002170714593     1.007825032230
         H            2.097629753424     2.315671817227    -0.002137714593     1.007825032230

  Basis Set: AUG-CC-PVTZ
    Blend: AUG-CC-PVTZ
  Basis Set: (AUG-CC-PVTZ AUX)
    Blend: AUG-CC-PVTZ-JKFIT
	 Reference Energy          =    -684.5325887286419402 [Eh]
	 Singles Energy            =      -0.0000000000000000 [Eh]
	 Same-Spin Energy          =      -0.3771979679906924 [Eh]
	 Opposite-Spin Energy      =      -1.1971955310772282 [Eh]
	 Correlation Energy        =      -1.5743934990679205 [Eh]
	 Total Energy              =    -686.1069822277098638 [Eh]

	 ================> DF-SCS-MP2 Energies <==================
	-----------------------------------------------------------
	 SCS Same-Spin Scale       =       0.3333333333333333 [-]
	 SCS Opposite-Spin Scale   =       1.2000000000000000 [-]
	 SCS Same-Spin Energy      =      -0.1257326559968975 [Eh]
	 SCS Opposite-Spin Energy  =      -1.4366346372926737 [Eh]
	 SCS Correlation Energy    =      -1.5623672932895711 [Eh]
	 SCS Total Energy          =    -686.0949560219314662 [Eh]
	-----------------------------------------------------------

  Dipole Moment: [D]
     X:     0.5284      Y:    -1.1758      Z:    -0.0148     Total:     1.2891

*** Psi4 exiting successfully. Buy a developer a beer!
