                               Psi4 1.4a3.dev225

  ==> Input File <==

--------------------------------------------------------------------------
#psi4
#
memory 32 gb

molecule  {
0 1
  S        1.2258560    -1.1625810    -0.0000180
  N        0.3264180     1.2510610     0.0000150
  C       -1.5198050    -0.4073720    -0.0000100
  C       -0.0728400    -0.0059560    -0.0000040
  C       -2.2053760     0.1167870    -1.2644160
  C       -2.2053680     0.1167230     1.2644280
  C        2.3605110     0.1219000     0.0000040
  C        1.7460508     1.3279574     0.0000202
  H       -1.5697880    -1.5042720    -0.0000380
  H       -2.1392250     1.2073760    -1.2930360
  H       -3.2606770    -0.1742520    -1.2762350
  H       -1.7266260    -0.2804090    -2.1642060
  H       -1.7266100    -0.2805170     2.1641940
  H       -3.2606680    -0.1743180     1.2762400
  H       -2.1392170     1.2073110     1.2931010
  H        3.4272510    -0.0583780     0.0000030
  H        2.1774630     2.2973190     0.0000360
units angstrom
no_reorient  #important for SAPT in psi4, default
symmetry c1  #important for SAPT in psi4, default
}

set PROPERTIES_ORIGIN ["COM"]
properties('MP2/aug-cc-pvtz', properties = ['dipole'])
--------------------------------------------------------------------------

    Molecular point group: c1
  Charge       = 0
  Multiplicity = 1
  Basis Set: AUG-CC-PVTZ
    Blend: AUG-CC-PVTZ
  Basis Set: (AUG-CC-PVTZ AUX)
    Blend: AUG-CC-PVTZ-JKFIT

    Orbital Energies [Eh]
    ---------------------

    Doubly Occupied:

       1A    -91.992647     2A    -15.564887     3A    -11.309351
       4A    -11.267753     5A    -11.260735     6A    -11.249393
       7A    -11.219107     8A    -11.219091     9A     -8.993510
      10A     -6.674458    11A     -6.673884    12A     -6.673132
      13A     -1.263665    14A     -1.094047    15A     -1.058298
      16A     -0.984502    17A     -0.935522    18A     -0.841596
      19A     -0.789987    20A     -0.714362    21A     -0.685667
      22A     -0.625459    23A     -0.601203    24A     -0.584966
      25A     -0.561822    26A     -0.544445    27A     -0.529427
      28A     -0.512354    29A     -0.499160    30A     -0.487108
      31A     -0.482576    32A     -0.418195    33A     -0.382181
      34A     -0.334846

  @DF-RHF Final Energy:  -684.53203307408478

   => Energetics <=

    Nuclear Repulsion Energy =            436.8007250024203358
    One-Electron Energy =               -1804.6068452089696166
    Two-Electron Energy =                 683.2740871324643877
    Total Energy =                       -684.5320330740847794
  Basis Set: (AUG-CC-PVTZ AUX)
    Blend: AUG-CC-PVTZ-RI
    Molecular point group: c1

    Geometry (in Angstrom), charge = 0, multiplicity = 1:

       Center              X                  Y                   Z               Mass
    ------------   -----------------  -----------------  -----------------  -----------------
         S            1.141602528477    -1.145629893981    -0.000017688384    31.972071174400
         N            0.242164528477     1.268012106019     0.000015311616    14.003074004430
         C           -1.604058471523    -0.390420893981    -0.000009688384    12.000000000000
         C           -0.157093471523     0.010995106019    -0.000003688384    12.000000000000
         C           -2.289629471523     0.133738106019    -1.264415688384    12.000000000000
         C           -2.289621471523     0.133674106019     1.264428311616    12.000000000000
         C            2.276257528477     0.138851106019     0.000004311616    12.000000000000
         C            1.661797328477     1.344908506019     0.000020511616    12.000000000000
         H           -1.654041471523    -1.487320893981    -0.000037688384     1.007825032230
         H           -2.223478471523     1.224327106019    -1.293035688384     1.007825032230
         H           -3.344930471523    -0.157300893981    -1.276234688384     1.007825032230
         H           -1.810879471523    -0.263457893981    -2.164205688384     1.007825032230
         H           -1.810863471523    -0.263565893981     2.164194311616     1.007825032230
         H           -3.344921471523    -0.157366893981     1.276240311616     1.007825032230
         H           -2.223470471523     1.224262106019     1.293101311616     1.007825032230
         H            3.342997528477    -0.041426893981     0.000003311616     1.007825032230
         H            2.093209528477     2.314270106019     0.000036311616     1.007825032230

  Basis Set: AUG-CC-PVTZ
    Blend: AUG-CC-PVTZ
  Basis Set: (AUG-CC-PVTZ AUX)
    Blend: AUG-CC-PVTZ-JKFIT
	 Reference Energy          =    -684.5320330740847794 [Eh]
	 Singles Energy            =      -0.0000000000000000 [Eh]
	 Same-Spin Energy          =      -0.3758552716818636 [Eh]
	 Opposite-Spin Energy      =      -1.1965470571224142 [Eh]
	 Correlation Energy        =      -1.5724023288042779 [Eh]
	 Total Energy              =    -686.1044354028890666 [Eh]

	 ================> DF-SCS-MP2 Energies <==================
	-----------------------------------------------------------
	 SCS Same-Spin Scale       =       0.3333333333333333 [-]
	 SCS Opposite-Spin Scale   =       1.2000000000000000 [-]
	 SCS Same-Spin Energy      =      -0.1252850905606212 [Eh]
	 SCS Opposite-Spin Energy  =      -1.4358564685468969 [Eh]
	 SCS Correlation Energy    =      -1.5611415591075180 [Eh]
	 SCS Total Energy          =    -686.0931746331923478 [Eh]
	-----------------------------------------------------------

  Dipole Moment: [D]
     X:     0.5018      Y:    -1.1125      Z:    -0.0000     Total:     1.2204

*** Psi4 exiting successfully. Buy a developer a beer!
