                               Psi4 1.4a3.dev225

  ==> Input File <==

--------------------------------------------------------------------------
#psi4
#
memory 32 gb

molecule  {
0 1
  S        1.2258560    -1.1625810    -0.0000180
  N        0.3264180     1.2510610     0.0000150
  C       -1.5198050    -0.4073720    -0.0000100
  C       -0.0728400    -0.0059560    -0.0000040
  C       -2.1942625     0.1666191    -1.2486549
  C       -2.2053680     0.1167230     1.2644280
  C        2.3605110     0.1219000     0.0000040
  C        1.6961240     1.3252530     0.0000200
  H       -1.5697880    -1.5042720    -0.0000380
  H       -2.1392250     1.2073760    -1.2930360
  H       -3.2606770    -0.1742520    -1.2762350
  H       -1.7266260    -0.2804090    -2.1642060
  H       -1.7266100    -0.2805170     2.1641940
  H       -3.2606680    -0.1743180     1.2762400
  H       -2.1392170     1.2073110     1.2931010
  H        3.4272510    -0.0583780     0.0000030
  H        2.1774630     2.2973190     0.0000360
units angstrom
no_reorient  #important for SAPT in psi4, default
symmetry c1  #important for SAPT in psi4, default
}

set PROPERTIES_ORIGIN ["COM"]
properties('MP2/aug-cc-pvtz', properties = ['dipole'])
--------------------------------------------------------------------------

    Molecular point group: c1
  Charge       = 0
  Multiplicity = 1
  Basis Set: AUG-CC-PVTZ
    Blend: AUG-CC-PVTZ
  Basis Set: (AUG-CC-PVTZ AUX)
    Blend: AUG-CC-PVTZ-JKFIT

    Orbital Energies [Eh]
    ---------------------

    Doubly Occupied:

       1A    -91.993825     2A    -15.563695     3A    -11.309936
       4A    -11.268892     5A    -11.260242     6A    -11.249841
       7A    -11.219965     8A    -11.219074     9A     -8.994479
      10A     -6.675382    11A     -6.674871    12A     -6.674158
      13A     -1.274720    14A     -1.095266    15A     -1.061099
      16A     -0.980809    17A     -0.935384    18A     -0.840853
      19A     -0.792741    20A     -0.717002    21A     -0.683786
      22A     -0.625555    23A     -0.600079    24A     -0.585189
      25A     -0.567239    26A     -0.554168    27A     -0.528195
      28A     -0.505389    29A     -0.495845    30A     -0.489238
      31A     -0.480986    32A     -0.422110    33A     -0.386861
      34A     -0.327482

  @DF-RHF Final Energy:  -684.53036832848079

   => Energetics <=

    Nuclear Repulsion Energy =            437.7506192519794581
    One-Electron Energy =               -1806.4532650678479513
    Two-Electron Energy =                 684.1722774873876460
    Total Energy =                       -684.5303683284807903
  Basis Set: (AUG-CC-PVTZ AUX)
    Blend: AUG-CC-PVTZ-RI
    Molecular point group: c1

    Geometry (in Angstrom), charge = 0, multiplicity = 1:

       Center              X                  Y                   Z               Mass
    ------------   -----------------  -----------------  -----------------  -----------------
         S            1.145268611429    -1.150081307737    -0.001506373107    31.972071174400
         N            0.245830611429     1.263560692263    -0.001473373107    14.003074004430
         C           -1.600392388571    -0.394872307737    -0.001498373107    12.000000000000
         C           -0.153427388571     0.006543692263    -0.001492373107    12.000000000000
         C           -2.274849888571     0.179118792263    -1.250143273107    12.000000000000
         C           -2.285955388571     0.129222692263     1.262939626893    12.000000000000
         C            2.279923611429     0.134399692263    -0.001484373107    12.000000000000
         C            1.615536611429     1.337752692263    -0.001468373107    12.000000000000
         H           -1.650375388571    -1.491772307737    -0.001526373107     1.007825032230
         H           -2.219812388571     1.219875692263    -1.294524373107     1.007825032230
         H           -3.341264388571    -0.161752307737    -1.277723373107     1.007825032230
         H           -1.807213388571    -0.267909307737    -2.165694373107     1.007825032230
         H           -1.807197388571    -0.268017307737     2.162705626893     1.007825032230
         H           -3.341255388571    -0.161818307737     1.274751626893     1.007825032230
         H           -2.219804388571     1.219810692263     1.291612626893     1.007825032230
         H            3.346663611429    -0.045878307737    -0.001485373107     1.007825032230
         H            2.096875611429     2.309818692263    -0.001452373107     1.007825032230

  Basis Set: AUG-CC-PVTZ
    Blend: AUG-CC-PVTZ
  Basis Set: (AUG-CC-PVTZ AUX)
    Blend: AUG-CC-PVTZ-JKFIT
	 Reference Energy          =    -684.5303683284807903 [Eh]
	 Singles Energy            =      -0.0000000000000000 [Eh]
	 Same-Spin Energy          =      -0.3769339810619715 [Eh]
	 Opposite-Spin Energy      =      -1.1969674535682571 [Eh]
	 Correlation Energy        =      -1.5739014346302285 [Eh]
	 Total Energy              =    -686.1042697631110059 [Eh]

	 ================> DF-SCS-MP2 Energies <==================
	-----------------------------------------------------------
	 SCS Same-Spin Scale       =       0.3333333333333333 [-]
	 SCS Opposite-Spin Scale   =       1.2000000000000000 [-]
	 SCS Same-Spin Energy      =      -0.1256446603539905 [Eh]
	 SCS Opposite-Spin Energy  =      -1.4363609442819085 [Eh]
	 SCS Correlation Energy    =      -1.5620056046358990 [Eh]
	 SCS Total Energy          =    -686.0923739331167326 [Eh]
	-----------------------------------------------------------

  Dipole Moment: [D]
     X:     0.4891      Y:    -1.1349      Z:     0.0065     Total:     1.2358

*** Psi4 exiting successfully. Buy a developer a beer!
