                               Psi4 1.4a3.dev225

  ==> Input File <==

--------------------------------------------------------------------------
#psi4
#
memory 32 gb

molecule  {
0 1
  S        1.2258560    -1.1625810    -0.0000180
  N        0.3264180     1.2510610     0.0000150
  C       -1.5198050    -0.4073720    -0.0000100
  C        0.0551746     0.1234586    -0.0000017
  C       -2.2053760     0.1167870    -1.2644160
  C       -2.2053680     0.1167230     1.2644280
  C        2.3605110     0.1219000     0.0000040
  C        1.6961240     1.3252530     0.0000200
  H       -1.5697880    -1.5042720    -0.0000380
  H       -2.1392250     1.2073760    -1.2930360
  H       -3.2606770    -0.1742520    -1.2762350
  H       -1.7266260    -0.2804090    -2.1642060
  H       -1.7266100    -0.2805170     2.1641940
  H       -3.2606680    -0.1743180     1.2762400
  H       -2.1392170     1.2073110     1.2931010
  H        3.4272510    -0.0583780     0.0000030
  H        2.1774630     2.2973190     0.0000360
units angstrom
no_reorient  #important for SAPT in psi4, default
symmetry c1  #important for SAPT in psi4, default
}

set PROPERTIES_ORIGIN ["COM"]
properties('MP2/aug-cc-pvtz', properties = ['dipole'])
--------------------------------------------------------------------------

    Molecular point group: c1
  Charge       = 0
  Multiplicity = 1
  Basis Set: AUG-CC-PVTZ
    Blend: AUG-CC-PVTZ
  Basis Set: (AUG-CC-PVTZ AUX)
    Blend: AUG-CC-PVTZ-JKFIT

    Orbital Energies [Eh]
    ---------------------

    Doubly Occupied:

       1A    -91.986434     2A    -15.555366     3A    -11.294579
       4A    -11.271525     5A    -11.264483     6A    -11.248740
       7A    -11.214539     8A    -11.214523     9A     -8.988325
      10A     -6.669260    11A     -6.668513    12A     -6.667676
      13A     -1.339912    14A     -1.083598    15A     -1.070639
      16A     -0.980638    17A     -0.930271    18A     -0.812085
      19A     -0.810790    20A     -0.716610    21A     -0.690408
      22A     -0.616978    23A     -0.599549    24A     -0.598746
      25A     -0.572733    26A     -0.549075    27A     -0.533420
      28A     -0.509494    29A     -0.498333    30A     -0.481248
      31A     -0.477673    32A     -0.407885    33A     -0.401968
      34A     -0.334272

  @DF-RHF Final Energy:  -684.49607558199295

   => Energetics <=

    Nuclear Repulsion Energy =            438.9774447965783111
    One-Electron Energy =               -1808.8264639928183897
    Two-Electron Energy =                 685.3529436142471241
    Total Energy =                       -684.4960755819929545
  Basis Set: (AUG-CC-PVTZ AUX)
    Blend: AUG-CC-PVTZ-RI
    Molecular point group: c1

    Geometry (in Angstrom), charge = 0, multiplicity = 1:

       Center              X                  Y                   Z               Mass
    ------------   -----------------  -----------------  -----------------  -----------------
         S            1.134226800252    -1.157598216799    -0.000017886738    31.972071174400
         N            0.234788800252     1.256043783201     0.000015113262    14.003074004430
         C           -1.611434199748    -0.402389216799    -0.000009886738    12.000000000000
         C           -0.036454599748     0.128441383201    -0.000001586738    12.000000000000
         C           -2.297005199748     0.121769783201    -1.264415886738    12.000000000000
         C           -2.296997199748     0.121705783201     1.264428113262    12.000000000000
         C            2.268881800252     0.126882783201     0.000004113262    12.000000000000
         C            1.604494800252     1.330235783201     0.000020113262    12.000000000000
         H           -1.661417199748    -1.499289216799    -0.000037886738     1.007825032230
         H           -2.230854199748     1.212358783201    -1.293035886738     1.007825032230
         H           -3.352306199748    -0.169269216799    -1.276234886738     1.007825032230
         H           -1.818255199748    -0.275426216799    -2.164205886738     1.007825032230
         H           -1.818239199748    -0.275534216799     2.164194113262     1.007825032230
         H           -3.352297199748    -0.169335216799     1.276240113262     1.007825032230
         H           -2.230846199748     1.212293783201     1.293101113262     1.007825032230
         H            3.335621800252    -0.053395216799     0.000003113262     1.007825032230
         H            2.085833800252     2.302301783201     0.000036113262     1.007825032230

  Basis Set: AUG-CC-PVTZ
    Blend: AUG-CC-PVTZ
  Basis Set: (AUG-CC-PVTZ AUX)
    Blend: AUG-CC-PVTZ-JKFIT
	 Reference Energy          =    -684.4960755819929545 [Eh]
	 Singles Energy            =      -0.0000000000000000 [Eh]
	 Same-Spin Energy          =      -0.3728821317197089 [Eh]
	 Opposite-Spin Energy      =      -1.1920365629705447 [Eh]
	 Correlation Energy        =      -1.5649186946902536 [Eh]
	 Total Energy              =    -686.0609942766832319 [Eh]

	 ================> DF-SCS-MP2 Energies <==================
	-----------------------------------------------------------
	 SCS Same-Spin Scale       =       0.3333333333333333 [-]
	 SCS Opposite-Spin Scale   =       1.2000000000000000 [-]
	 SCS Same-Spin Energy      =      -0.1242940439065696 [Eh]
	 SCS Opposite-Spin Energy  =      -1.4304438755646536 [Eh]
	 SCS Correlation Energy    =      -1.5547379194712232 [Eh]
	 SCS Total Energy          =    -686.0508135014641766 [Eh]
	-----------------------------------------------------------

  Dipole Moment: [D]
     X:     0.6324      Y:    -0.9278      Z:    -0.0000     Total:     1.1229

*** Psi4 exiting successfully. Buy a developer a beer!
