                               Psi4 1.4a3.dev225

  ==> Input File <==

--------------------------------------------------------------------------
#psi4
#
memory 32 gb

molecule  {
0 1
  S        1.2258560    -1.1625810    -0.0000180
  N        0.3264180     1.2510610     0.0000150
  C       -1.5198050    -0.4073720    -0.0000100
  C       -0.0697109    -0.0180906    -0.0230216
  C       -2.2053760     0.1167870    -1.2644160
  C       -2.2053680     0.1167230     1.2644280
  C        2.3605110     0.1219000     0.0000040
  C        1.6961240     1.3252530     0.0000200
  H       -1.5697880    -1.5042720    -0.0000380
  H       -2.1392250     1.2073760    -1.2930360
  H       -3.2606770    -0.1742520    -1.2762350
  H       -1.7266260    -0.2804090    -2.1642060
  H       -1.7266100    -0.2805170     2.1641940
  H       -3.2606680    -0.1743180     1.2762400
  H       -2.1392170     1.2073110     1.2931010
  H        3.4272510    -0.0583780     0.0000030
  H        2.1774630     2.2973190     0.0000360
units angstrom
no_reorient  #important for SAPT in psi4, default
symmetry c1  #important for SAPT in psi4, default
}

set PROPERTIES_ORIGIN ["COM"]
properties('MP2/aug-cc-pvtz', properties = ['dipole'])
--------------------------------------------------------------------------

    Molecular point group: c1
  Charge       = 0
  Multiplicity = 1
  Basis Set: AUG-CC-PVTZ
    Blend: AUG-CC-PVTZ
  Basis Set: (AUG-CC-PVTZ AUX)
    Blend: AUG-CC-PVTZ-JKFIT

    Orbital Energies [Eh]
    ---------------------

    Doubly Occupied:

       1A    -91.995247     2A    -15.564142     3A    -11.310186
       4A    -11.268894     5A    -11.259959     6A    -11.249338
       7A    -11.219372     8A    -11.218991     9A     -8.995959
      10A     -6.676865    11A     -6.676361    12A     -6.675648
      13A     -1.272062    14A     -1.094291    15A     -1.061355
      16A     -0.981263    17A     -0.935572    18A     -0.840265
      19A     -0.791404    20A     -0.717211    21A     -0.682541
      22A     -0.625330    23A     -0.600698    24A     -0.586289
      25A     -0.566800    26A     -0.545188    27A     -0.531128
      28A     -0.504581    29A     -0.498794    30A     -0.487123
      31A     -0.482890    32A     -0.423387    33A     -0.385991
      34A     -0.327801

  @DF-RHF Final Energy:  -684.53258874508413

   => Energetics <=

    Nuclear Repulsion Energy =            437.5287579110192837
    One-Electron Energy =               -1806.0168374286768085
    Two-Electron Energy =                 683.9554907725733983
    Total Energy =                       -684.5325887450841265
  Basis Set: (AUG-CC-PVTZ AUX)
    Blend: AUG-CC-PVTZ-RI
    Molecular point group: c1

    Geometry (in Angstrom), charge = 0, multiplicity = 1:

       Center              X                  Y                   Z               Mass
    ------------   -----------------  -----------------  -----------------  -----------------
         S            1.146022772315    -1.144228286673     0.002156441726    31.972071174400
         N            0.246584772315     1.269413713327     0.002189441726    14.003074004430
         C           -1.599638227685    -0.389019286673     0.002164441726    12.000000000000
         C           -0.149544127685     0.000262113327    -0.020847158274    12.000000000000
         C           -2.285209227685     0.135139713327    -1.262241558274    12.000000000000
         C           -2.285201227685     0.135075713327     1.266602441726    12.000000000000
         C            2.280677772315     0.140252713327     0.002178441726    12.000000000000
         C            1.616290772315     1.343605713327     0.002194441726    12.000000000000
         H           -1.649621227685    -1.485919286673     0.002136441726     1.007825032230
         H           -2.219058227685     1.225728713327    -1.290861558274     1.007825032230
         H           -3.340510227685    -0.155899286673    -1.274060558274     1.007825032230
         H           -1.806459227685    -0.262056286673    -2.162031558274     1.007825032230
         H           -1.806443227685    -0.262164286673     2.166368441726     1.007825032230
         H           -3.340501227685    -0.155965286673     1.278414441726     1.007825032230
         H           -2.219050227685     1.225663713327     1.295275441726     1.007825032230
         H            3.347417772315    -0.040025286673     0.002177441726     1.007825032230
         H            2.097629772315     2.315671713327     0.002210441726     1.007825032230

  Basis Set: AUG-CC-PVTZ
    Blend: AUG-CC-PVTZ
  Basis Set: (AUG-CC-PVTZ AUX)
    Blend: AUG-CC-PVTZ-JKFIT
	 Reference Energy          =    -684.5325887450841265 [Eh]
	 Singles Energy            =      -0.0000000000000000 [Eh]
	 Same-Spin Energy          =      -0.3771979618297471 [Eh]
	 Opposite-Spin Energy      =      -1.1971955254596991 [Eh]
	 Correlation Energy        =      -1.5743934872894463 [Eh]
	 Total Energy              =    -686.1069822323735252 [Eh]

	 ================> DF-SCS-MP2 Energies <==================
	-----------------------------------------------------------
	 SCS Same-Spin Scale       =       0.3333333333333333 [-]
	 SCS Opposite-Spin Scale   =       1.2000000000000000 [-]
	 SCS Same-Spin Energy      =      -0.1257326539432490 [Eh]
	 SCS Opposite-Spin Energy  =      -1.4366346305516389 [Eh]
	 SCS Correlation Energy    =      -1.5623672844948879 [Eh]
	 SCS Total Energy          =    -686.0949560295790661 [Eh]
	-----------------------------------------------------------

  Dipole Moment: [D]
     X:     0.5284      Y:    -1.1758      Z:     0.0148     Total:     1.2891

*** Psi4 exiting successfully. Buy a developer a beer!
