                               Psi4 1.4a3.dev225

  ==> Input File <==

--------------------------------------------------------------------------
#psi4
#
memory 32 gb

molecule  {
0 1
  S        1.2258560    -1.1625810    -0.0000180
  N        0.3264180     1.2510610     0.0000150
  C       -1.5198050    -0.4073720    -0.0000100
  C       -0.0804197     0.0179450    -0.0460308
  C       -2.2053760     0.1167870    -1.2644160
  C       -2.2053680     0.1167230     1.2644280
  C        2.3605110     0.1219000     0.0000040
  C        1.6961240     1.3252530     0.0000200
  H       -1.5697880    -1.5042720    -0.0000380
  H       -2.1392250     1.2073760    -1.2930360
  H       -3.2606770    -0.1742520    -1.2762350
  H       -1.7266260    -0.2804090    -2.1642060
  H       -1.7266100    -0.2805170     2.1641940
  H       -3.2606680    -0.1743180     1.2762400
  H       -2.1392170     1.2073110     1.2931010
  H        3.4272510    -0.0583780     0.0000030
  H        2.1774630     2.2973190     0.0000360
units angstrom
no_reorient  #important for SAPT in psi4, default
symmetry c1  #important for SAPT in psi4, default
}

set PROPERTIES_ORIGIN ["COM"]
properties('MP2/aug-cc-pvtz', properties = ['dipole'])
--------------------------------------------------------------------------

    Molecular point group: c1
  Charge       = 0
  Multiplicity = 1
  Basis Set: AUG-CC-PVTZ
    Blend: AUG-CC-PVTZ
  Basis Set: (AUG-CC-PVTZ AUX)
    Blend: AUG-CC-PVTZ-JKFIT

    Orbital Energies [Eh]
    ---------------------

    Doubly Occupied:

       1A    -91.991315     2A    -15.563747     3A    -11.309855
       4A    -11.268887     5A    -11.261452     6A    -11.249604
       7A    -11.219935     8A    -11.219239     9A     -8.991794
      10A     -6.672686    11A     -6.672153    12A     -6.671445
      13A     -1.279666    14A     -1.095175    15A     -1.060734
      16A     -0.979750    17A     -0.936257    18A     -0.839852
      19A     -0.794857    20A     -0.715209    21A     -0.684170
      22A     -0.625826    23A     -0.603682    24A     -0.587788
      25A     -0.567285    26A     -0.546339    27A     -0.531744
      28A     -0.503634    29A     -0.500223    30A     -0.487320
      31A     -0.483457    32A     -0.418958    33A     -0.388466
      34A     -0.327656

  @DF-RHF Final Energy:  -684.53368071564819

   => Energetics <=

    Nuclear Repulsion Energy =            437.4826728750099392
    One-Electron Energy =               -1805.9323850485970979
    Two-Electron Energy =                 683.9160314579389706
    Total Energy =                       -684.5336807156481882
  Basis Set: (AUG-CC-PVTZ AUX)
    Blend: AUG-CC-PVTZ-RI
    Molecular point group: c1

    Geometry (in Angstrom), charge = 0, multiplicity = 1:

       Center              X                  Y                   Z               Mass
    ------------   -----------------  -----------------  -----------------  -----------------
         S            1.147034264487    -1.147632003925     0.004329759528    31.972071174400
         N            0.247596264487     1.266009996075     0.004362759528    14.003074004430
         C           -1.598626735513    -0.392423003925     0.004337759528    12.000000000000
         C           -0.159241435513     0.032893996075    -0.041683040472    12.000000000000
         C           -2.284197735513     0.131735996075    -1.260068240472    12.000000000000
         C           -2.284189735513     0.131671996075     1.268775759528    12.000000000000
         C            2.281689264487     0.136848996075     0.004351759528    12.000000000000
         C            1.617302264487     1.340201996075     0.004367759528    12.000000000000
         H           -1.648609735513    -1.489323003925     0.004309759528     1.007825032230
         H           -2.218046735513     1.222324996075    -1.288688240472     1.007825032230
         H           -3.339498735513    -0.159303003925    -1.271887240472     1.007825032230
         H           -1.805447735513    -0.265460003925    -2.159858240472     1.007825032230
         H           -1.805431735513    -0.265568003925     2.168541759528     1.007825032230
         H           -3.339489735513    -0.159369003925     1.280587759528     1.007825032230
         H           -2.218038735513     1.222259996075     1.297448759528     1.007825032230
         H            3.348429264487    -0.043429003925     0.004350759528     1.007825032230
         H            2.098641264487     2.312267996075     0.004383759528     1.007825032230

  Basis Set: AUG-CC-PVTZ
    Blend: AUG-CC-PVTZ
  Basis Set: (AUG-CC-PVTZ AUX)
    Blend: AUG-CC-PVTZ-JKFIT
	 Reference Energy          =    -684.5336807156481882 [Eh]
	 Singles Energy            =      -0.0000000000000000 [Eh]
	 Same-Spin Energy          =      -0.3764231345972484 [Eh]
	 Opposite-Spin Energy      =      -1.1963070291720272 [Eh]
	 Correlation Energy        =      -1.5727301637692757 [Eh]
	 Total Energy              =    -686.1064108794174672 [Eh]

	 ================> DF-SCS-MP2 Energies <==================
	-----------------------------------------------------------
	 SCS Same-Spin Scale       =       0.3333333333333333 [-]
	 SCS Opposite-Spin Scale   =       1.2000000000000000 [-]
	 SCS Same-Spin Energy      =      -0.1254743781990828 [Eh]
	 SCS Opposite-Spin Energy  =      -1.4355684350064326 [Eh]
	 SCS Correlation Energy    =      -1.5610428132055154 [Eh]
	 SCS Total Energy          =    -686.0947235288537058 [Eh]
	-----------------------------------------------------------

  Dipole Moment: [D]
     X:     0.4247      Y:    -1.0712      Z:     0.0266     Total:     1.1526

*** Psi4 exiting successfully. Buy a developer a beer!
