                               Psi4 1.4a3.dev225

  ==> Input File <==

--------------------------------------------------------------------------
#psi4
#
memory 32 gb

molecule  {
0 1
  S        1.2258560    -1.1625810    -0.0000180
  N        0.3264180     1.2510610     0.0000150
  C       -1.5198050    -0.4073720    -0.0000100
  C       -0.0425680     0.0893519    -0.0000026
  C       -2.2053760     0.1167870    -1.2644160
  C       -2.2053680     0.1167230     1.2644280
  C        2.3605110     0.1219000     0.0000040
  C        1.6961240     1.3252530     0.0000200
  H       -1.5697880    -1.5042720    -0.0000380
  H       -2.1392250     1.2073760    -1.2930360
  H       -3.2606770    -0.1742520    -1.2762350
  H       -1.7266260    -0.2804090    -2.1642060
  H       -1.7266100    -0.2805170     2.1641940
  H       -3.2606680    -0.1743180     1.2762400
  H       -2.1392170     1.2073110     1.2931010
  H        3.4272510    -0.0583780     0.0000030
  H        2.1774630     2.2973190     0.0000360
units angstrom
no_reorient  #important for SAPT in psi4, default
symmetry c1  #important for SAPT in psi4, default
}

set PROPERTIES_ORIGIN ["COM"]
properties('MP2/aug-cc-pvtz', properties = ['dipole'])
--------------------------------------------------------------------------

    Molecular point group: c1
  Charge       = 0
  Multiplicity = 1
  Basis Set: AUG-CC-PVTZ
    Blend: AUG-CC-PVTZ
  Basis Set: (AUG-CC-PVTZ AUX)
    Blend: AUG-CC-PVTZ-JKFIT

    Orbital Energies [Eh]
    ---------------------

    Doubly Occupied:

       1A    -91.985120     2A    -15.559924     3A    -11.303192
       4A    -11.269536     5A    -11.263660     6A    -11.250757
       7A    -11.218253     8A    -11.218238     9A     -8.986012
      10A     -6.666924    11A     -6.666269    12A     -6.665533
      13A     -1.308687    14A     -1.087750    15A     -1.067294
      16A     -0.978601    17A     -0.934840    18A     -0.829114
      19A     -0.804036    20A     -0.713365    21A     -0.688152
      22A     -0.623264    23A     -0.604878    24A     -0.591838
      25A     -0.569586    26A     -0.548664    27A     -0.534122
      28A     -0.504169    29A     -0.499947    30A     -0.486057
      31A     -0.482008    32A     -0.411192    33A     -0.398501
      34A     -0.329605

  @DF-RHF Final Energy:  -684.52760603296315

   => Energetics <=

    Nuclear Repulsion Energy =            437.9822153406327629
    One-Electron Energy =               -1806.9214670455266969
    Two-Electron Energy =                 684.4116456719307280
    Total Energy =                       -684.5276060329631491
  Basis Set: (AUG-CC-PVTZ AUX)
    Blend: AUG-CC-PVTZ-RI
    Molecular point group: c1

    Geometry (in Angstrom), charge = 0, multiplicity = 1:

       Center              X                  Y                   Z               Mass
    ------------   -----------------  -----------------  -----------------  -----------------
         S            1.143459008787    -1.154376692440    -0.000017801729    31.972071174400
         N            0.244021008787     1.259265307560     0.000015198271    14.003074004430
         C           -1.602201991213    -0.399167692440    -0.000009801729    12.000000000000
         C           -0.124964991213     0.097556207560    -0.000002401729    12.000000000000
         C           -2.287772991213     0.124991307560    -1.264415801729    12.000000000000
         C           -2.287764991213     0.124927307560     1.264428198271    12.000000000000
         C            2.278114008787     0.130104307560     0.000004198271    12.000000000000
         C            1.613727008787     1.333457307560     0.000020198271    12.000000000000
         H           -1.652184991213    -1.496067692440    -0.000037801729     1.007825032230
         H           -2.221621991213     1.215580307560    -1.293035801729     1.007825032230
         H           -3.343073991213    -0.166047692440    -1.276234801729     1.007825032230
         H           -1.809022991213    -0.272204692440    -2.164205801729     1.007825032230
         H           -1.809006991213    -0.272312692440     2.164194198271     1.007825032230
         H           -3.343064991213    -0.166113692440     1.276240198271     1.007825032230
         H           -2.221613991213     1.215515307560     1.293101198271     1.007825032230
         H            3.344854008787    -0.050173692440     0.000003198271     1.007825032230
         H            2.095066008787     2.305523307560     0.000036198271     1.007825032230

  Basis Set: AUG-CC-PVTZ
    Blend: AUG-CC-PVTZ
  Basis Set: (AUG-CC-PVTZ AUX)
    Blend: AUG-CC-PVTZ-JKFIT
	 Reference Energy          =    -684.5276060329631491 [Eh]
	 Singles Energy            =      -0.0000000000000000 [Eh]
	 Same-Spin Energy          =      -0.3741190267219398 [Eh]
	 Opposite-Spin Energy      =      -1.1933354355968158 [Eh]
	 Correlation Energy        =      -1.5674544623187554 [Eh]
	 Total Energy              =    -686.0950604952819276 [Eh]

	 ================> DF-SCS-MP2 Energies <==================
	-----------------------------------------------------------
	 SCS Same-Spin Scale       =       0.3333333333333333 [-]
	 SCS Opposite-Spin Scale   =       1.2000000000000000 [-]
	 SCS Same-Spin Energy      =      -0.1247063422406466 [Eh]
	 SCS Opposite-Spin Energy  =      -1.4320025227161788 [Eh]
	 SCS Correlation Energy    =      -1.5567088649568253 [Eh]
	 SCS Total Energy          =    -686.0843148979199668 [Eh]
	-----------------------------------------------------------

  Dipole Moment: [D]
     X:     0.3701      Y:    -0.9035      Z:    -0.0000     Total:     0.9764

*** Psi4 exiting successfully. Buy a developer a beer!
