                               Psi4 1.4a3.dev225

  ==> Input File <==

--------------------------------------------------------------------------
#psi4
#
memory 32 gb

molecule  {
0 1
  S        1.2258560    -1.1625810    -0.0000180
  N        0.3264180     1.2510610     0.0000150
  C       -1.5198050    -0.4073720    -0.0000100
  C       -0.0728400    -0.0059560    -0.0000040
  C       -2.1829840     0.0996670    -1.2231182
  C       -2.2053680     0.1167230     1.2644280
  C        2.3605110     0.1219000     0.0000040
  C        1.6961240     1.3252530     0.0000200
  H       -1.5697880    -1.5042720    -0.0000380
  H       -2.1392250     1.2073760    -1.2930360
  H       -3.2606770    -0.1742520    -1.2762350
  H       -1.7266260    -0.2804090    -2.1642060
  H       -1.7266100    -0.2805170     2.1641940
  H       -3.2606680    -0.1743180     1.2762400
  H       -2.1392170     1.2073110     1.2931010
  H        3.4272510    -0.0583780     0.0000030
  H        2.1774630     2.2973190     0.0000360
units angstrom
no_reorient  #important for SAPT in psi4, default
symmetry c1  #important for SAPT in psi4, default
}

set PROPERTIES_ORIGIN ["COM"]
properties('MP2/aug-cc-pvtz', properties = ['dipole'])
--------------------------------------------------------------------------

    Molecular point group: c1
  Charge       = 0
  Multiplicity = 1
  Basis Set: AUG-CC-PVTZ
    Blend: AUG-CC-PVTZ
  Basis Set: (AUG-CC-PVTZ AUX)
    Blend: AUG-CC-PVTZ-JKFIT

    Orbital Energies [Eh]
    ---------------------

    Doubly Occupied:

       1A    -91.994237     2A    -15.564238     3A    -11.310244
       4A    -11.269063     5A    -11.260677     6A    -11.247515
       7A    -11.221213     8A    -11.219435     9A     -8.994863
      10A     -6.675762    11A     -6.675254    12A     -6.674540
      13A     -1.275154    14A     -1.101279    15A     -1.061469
      16A     -0.981848    17A     -0.935409    18A     -0.838660
      19A     -0.793104    20A     -0.717820    21A     -0.684187
      22A     -0.628627    23A     -0.602009    24A     -0.588754
      25A     -0.566566    26A     -0.543308    27A     -0.528166
      28A     -0.505164    29A     -0.499949    30A     -0.488645
      31A     -0.478740    32A     -0.422321    33A     -0.387040
      34A     -0.328441

  @DF-RHF Final Energy:  -684.53057225254315

   => Energetics <=

    Nuclear Repulsion Energy =            438.3940976894578512
    One-Electron Energy =               -1807.7219364954873981
    Two-Electron Energy =                 684.7972665534864518
    Total Energy =                       -684.5305722525431520
  Basis Set: (AUG-CC-PVTZ AUX)
    Blend: AUG-CC-PVTZ-RI
    Molecular point group: c1

    Geometry (in Angstrom), charge = 0, multiplicity = 1:

       Center              X                  Y                   Z               Mass
    ------------   -----------------  -----------------  -----------------  -----------------
         S            1.144203308644    -1.143757394223    -0.003918424144    31.972071174400
         N            0.244765308644     1.269884605777    -0.003885424144    14.003074004430
         C           -1.601457691356    -0.388548394223    -0.003910424144    12.000000000000
         C           -0.154492691356     0.012867605777    -0.003904424144    12.000000000000
         C           -2.264636691356     0.118490605777    -1.227018624144    12.000000000000
         C           -2.287020691356     0.135546605777     1.260527575856    12.000000000000
         C            2.278858308644     0.140723605777    -0.003896424144    12.000000000000
         C            1.614471308644     1.344076605777    -0.003880424144    12.000000000000
         H           -1.651440691356    -1.485448394223    -0.003938424144     1.007825032230
         H           -2.220877691356     1.226199605777    -1.296936424144     1.007825032230
         H           -3.342329691356    -0.155428394223    -1.280135424144     1.007825032230
         H           -1.808278691356    -0.261585394223    -2.168106424144     1.007825032230
         H           -1.808262691356    -0.261693394223     2.160293575856     1.007825032230
         H           -3.342320691356    -0.155494394223     1.272339575856     1.007825032230
         H           -2.220869691356     1.226134605777     1.289200575856     1.007825032230
         H            3.345598308644    -0.039554394223    -0.003897424144     1.007825032230
         H            2.095810308644     2.316142605777    -0.003864424144     1.007825032230

  Basis Set: AUG-CC-PVTZ
    Blend: AUG-CC-PVTZ
  Basis Set: (AUG-CC-PVTZ AUX)
    Blend: AUG-CC-PVTZ-JKFIT
	 Reference Energy          =    -684.5305722525431520 [Eh]
	 Singles Energy            =      -0.0000000000000000 [Eh]
	 Same-Spin Energy          =      -0.3773361246802462 [Eh]
	 Opposite-Spin Energy      =      -1.1973063560335762 [Eh]
	 Correlation Energy        =      -1.5746424807138224 [Eh]
	 Total Energy              =    -686.1052147332569575 [Eh]

	 ================> DF-SCS-MP2 Energies <==================
	-----------------------------------------------------------
	 SCS Same-Spin Scale       =       0.3333333333333333 [-]
	 SCS Opposite-Spin Scale   =       1.2000000000000000 [-]
	 SCS Same-Spin Energy      =      -0.1257787082267487 [Eh]
	 SCS Opposite-Spin Energy  =      -1.4367676272402914 [Eh]
	 SCS Correlation Energy    =      -1.5625463354670401 [Eh]
	 SCS Total Energy          =    -686.0931185880101566 [Eh]
	-----------------------------------------------------------

  Dipole Moment: [D]
     X:     0.5116      Y:    -1.1397      Z:     0.0038     Total:     1.2493

*** Psi4 exiting successfully. Buy a developer a beer!
