                               Psi4 1.4a3.dev225

  ==> Input File <==

--------------------------------------------------------------------------
#psi4
#
memory 32 gb

molecule  {
0 1
  S        1.2258560    -1.1625810    -0.0000180
  N        0.3264180     1.2510610     0.0000150
  C       -1.4876979    -0.2545207    -0.0358040
  C       -0.0728400    -0.0059560    -0.0000040
  C       -2.2053760     0.1167870    -1.2644160
  C       -2.2053680     0.1167230     1.2644280
  C        2.3605110     0.1219000     0.0000040
  C        1.6961240     1.3252530     0.0000200
  H       -1.5697880    -1.5042720    -0.0000380
  H       -2.1392250     1.2073760    -1.2930360
  H       -3.2606770    -0.1742520    -1.2762350
  H       -1.7266260    -0.2804090    -2.1642060
  H       -1.7266100    -0.2805170     2.1641940
  H       -3.2606680    -0.1743180     1.2762400
  H       -2.1392170     1.2073110     1.2931010
  H        3.4272510    -0.0583780     0.0000030
  H        2.1774630     2.2973190     0.0000360
units angstrom
no_reorient  #important for SAPT in psi4, default
symmetry c1  #important for SAPT in psi4, default
}

set PROPERTIES_ORIGIN ["COM"]
properties('MP2/aug-cc-pvtz', properties = ['dipole'])
--------------------------------------------------------------------------

    Molecular point group: c1
  Charge       = 0
  Multiplicity = 1
  Basis Set: AUG-CC-PVTZ
    Blend: AUG-CC-PVTZ
  Basis Set: (AUG-CC-PVTZ AUX)
    Blend: AUG-CC-PVTZ-JKFIT

    Orbital Energies [Eh]
    ---------------------

    Doubly Occupied:

       1A    -91.998471     2A    -15.564399     3A    -11.307865
       4A    -11.269427     5A    -11.262827     6A    -11.255019
       7A    -11.221094     8A    -11.218323     9A     -8.998700
      10A     -6.679559    11A     -6.679110    12A     -6.678348
      13A     -1.278971    14A     -1.105187    15A     -1.063086
      16A     -0.985673    17A     -0.942469    18A     -0.845956
      19A     -0.792031    20A     -0.711874    21A     -0.678139
      22A     -0.630548    23A     -0.605261    24A     -0.596449
      25A     -0.567360    26A     -0.542188    27A     -0.535776
      28A     -0.518180    29A     -0.503907    30A     -0.496483
      31A     -0.439190    32A     -0.420505    33A     -0.388594
      34A     -0.330044

  @DF-RHF Final Energy:  -684.50568445274234

   => Energetics <=

    Nuclear Repulsion Energy =            438.9942558858889470
    One-Electron Energy =               -1808.7778471753044869
    Two-Electron Energy =                 685.2779068366733100
    Total Energy =                       -684.5056844527423436
  Basis Set: (AUG-CC-PVTZ AUX)
    Blend: AUG-CC-PVTZ-RI
    Molecular point group: c1

    Geometry (in Angstrom), charge = 0, multiplicity = 1:

       Center              X                  Y                   Z               Mass
    ------------   -----------------  -----------------  -----------------  -----------------
         S            1.143285675707    -1.159811913813     0.003363227601    31.972071174400
         N            0.243847675707     1.253830086187     0.003396227601    14.003074004430
         C           -1.570268224293    -0.251751613813    -0.032422772399    12.000000000000
         C           -0.155410324293    -0.003186913813     0.003377227601    12.000000000000
         C           -2.287946324293     0.119556086187    -1.261034772399    12.000000000000
         C           -2.287938324293     0.119492086187     1.267809227601    12.000000000000
         C            2.277940675707     0.124669086187     0.003385227601    12.000000000000
         C            1.613553675707     1.328022086187     0.003401227601    12.000000000000
         H           -1.652358324293    -1.501502913813     0.003343227601     1.007825032230
         H           -2.221795324293     1.210145086187    -1.289654772399     1.007825032230
         H           -3.343247324293    -0.171482913813    -1.272853772399     1.007825032230
         H           -1.809196324293    -0.277639913813    -2.160824772399     1.007825032230
         H           -1.809180324293    -0.277747913813     2.167575227601     1.007825032230
         H           -3.343238324293    -0.171548913813     1.279621227601     1.007825032230
         H           -2.221787324293     1.210080086187     1.296482227601     1.007825032230
         H            3.344680675707    -0.055608913813     0.003384227601     1.007825032230
         H            2.094892675707     2.300088086187     0.003417227601     1.007825032230

  Basis Set: AUG-CC-PVTZ
    Blend: AUG-CC-PVTZ
  Basis Set: (AUG-CC-PVTZ AUX)
    Blend: AUG-CC-PVTZ-JKFIT
	 Reference Energy          =    -684.5056844527423436 [Eh]
	 Singles Energy            =      -0.0000000000000000 [Eh]
	 Same-Spin Energy          =      -0.3784150360817315 [Eh]
	 Opposite-Spin Energy      =      -1.1997296941587772 [Eh]
	 Correlation Energy        =      -1.5781447302405087 [Eh]
	 Total Energy              =    -686.0838291829828677 [Eh]

	 ================> DF-SCS-MP2 Energies <==================
	-----------------------------------------------------------
	 SCS Same-Spin Scale       =       0.3333333333333333 [-]
	 SCS Opposite-Spin Scale   =       1.2000000000000000 [-]
	 SCS Same-Spin Energy      =      -0.1261383453605772 [Eh]
	 SCS Opposite-Spin Energy  =      -1.4396756329905325 [Eh]
	 SCS Correlation Energy    =      -1.5658139783511096 [Eh]
	 SCS Total Energy          =    -686.0714984310934597 [Eh]
	-----------------------------------------------------------

  Dipole Moment: [D]
     X:     0.6254      Y:    -1.0387      Z:    -0.0263     Total:     1.2127

*** Psi4 exiting successfully. Buy a developer a beer!
