                               Psi4 1.4a3.dev225

  ==> Input File <==

--------------------------------------------------------------------------
#psi4
#
memory 32 gb

molecule  {
0 1
  S        1.2258560    -1.1625810    -0.0000180
  N        0.3264180     1.2510610     0.0000150
  C       -1.5198050    -0.4073720    -0.0000100
  C       -0.0728400    -0.0059560    -0.0000040
  C       -2.2949439     0.1852669    -1.4296071
  C       -2.2053680     0.1167230     1.2644280
  C        2.3605110     0.1219000     0.0000040
  C        1.6961240     1.3252530     0.0000200
  H       -1.5697880    -1.5042720    -0.0000380
  H       -2.1392250     1.2073760    -1.2930360
  H       -3.2606770    -0.1742520    -1.2762350
  H       -1.7266260    -0.2804090    -2.1642060
  H       -1.7266100    -0.2805170     2.1641940
  H       -3.2606680    -0.1743180     1.2762400
  H       -2.1392170     1.2073110     1.2931010
  H        3.4272510    -0.0583780     0.0000030
  H        2.1774630     2.2973190     0.0000360
units angstrom
no_reorient  #important for SAPT in psi4, default
symmetry c1  #important for SAPT in psi4, default
}

set PROPERTIES_ORIGIN ["COM"]
properties('MP2/aug-cc-pvtz', properties = ['dipole'])
--------------------------------------------------------------------------

    Molecular point group: c1
  Charge       = 0
  Multiplicity = 1
  Basis Set: AUG-CC-PVTZ
    Blend: AUG-CC-PVTZ
  Basis Set: (AUG-CC-PVTZ AUX)
    Blend: AUG-CC-PVTZ-JKFIT

    Orbital Energies [Eh]
    ---------------------

    Doubly Occupied:

       1A    -91.993015     2A    -15.562645     3A    -11.309585
       4A    -11.268283     5A    -11.259500     6A    -11.254887
       7A    -11.219775     8A    -11.219608     9A     -8.993698
      10A     -6.674600    11A     -6.674087    12A     -6.673371
      13A     -1.273318    14A     -1.077014    15A     -1.060112
      16A     -0.977924    17A     -0.940126    18A     -0.843321
      19A     -0.791264    20A     -0.713122    21A     -0.679938
      22A     -0.621161    23A     -0.607545    24A     -0.582495
      25A     -0.573493    26A     -0.560427    27A     -0.543312
      28A     -0.506119    29A     -0.505137    30A     -0.492995
      31A     -0.444514    32A     -0.416521    33A     -0.385811
      34A     -0.324076

  @DF-RHF Final Energy:  -684.50792975836839

   => Energetics <=

    Nuclear Repulsion Energy =            434.2792540536070192
    One-Electron Energy =               -1799.5287638114725723
    Two-Electron Energy =                 680.7415799994971621
    Total Energy =                       -684.5079297583683910
  Basis Set: (AUG-CC-PVTZ AUX)
    Blend: AUG-CC-PVTZ-RI
    Molecular point group: c1

    Geometry (in Angstrom), charge = 0, multiplicity = 1:

       Center              X                  Y                   Z               Mass
    ------------   -----------------  -----------------  -----------------  -----------------
         S            1.154778402251    -1.151842672570     0.015585339669    31.972071174400
         N            0.255340402251     1.261799327430     0.015618339669    14.003074004430
         C           -1.590882597749    -0.396633672570     0.015593339669    12.000000000000
         C           -0.143917597749     0.004782327430     0.015599339669    12.000000000000
         C           -2.366021497749     0.196005227430    -1.414003760331    12.000000000000
         C           -2.276445597749     0.127461327430     1.280031339669    12.000000000000
         C            2.289433402251     0.132638327430     0.015607339669    12.000000000000
         C            1.625046402251     1.335991327430     0.015623339669    12.000000000000
         H           -1.640865597749    -1.493533672570     0.015565339669     1.007825032230
         H           -2.210302597749     1.218114327430    -1.277432660331     1.007825032230
         H           -3.331754597749    -0.163513672570    -1.260631660331     1.007825032230
         H           -1.797703597749    -0.269670672570    -2.148602660331     1.007825032230
         H           -1.797687597749    -0.269778672570     2.179797339669     1.007825032230
         H           -3.331745597749    -0.163579672570     1.291843339669     1.007825032230
         H           -2.210294597749     1.218049327430     1.308704339669     1.007825032230
         H            3.356173402251    -0.047639672570     0.015606339669     1.007825032230
         H            2.106385402251     2.308057327430     0.015639339669     1.007825032230

  Basis Set: AUG-CC-PVTZ
    Blend: AUG-CC-PVTZ
  Basis Set: (AUG-CC-PVTZ AUX)
    Blend: AUG-CC-PVTZ-JKFIT
	 Reference Energy          =    -684.5079297583683910 [Eh]
	 Singles Energy            =      -0.0000000000000000 [Eh]
	 Same-Spin Energy          =      -0.3768755457708047 [Eh]
	 Opposite-Spin Energy      =      -1.1978558024509693 [Eh]
	 Correlation Energy        =      -1.5747313482217740 [Eh]
	 Total Energy              =    -686.0826611065901943 [Eh]

	 ================> DF-SCS-MP2 Energies <==================
	-----------------------------------------------------------
	 SCS Same-Spin Scale       =       0.3333333333333333 [-]
	 SCS Opposite-Spin Scale   =       1.2000000000000000 [-]
	 SCS Same-Spin Energy      =      -0.1256251819236016 [Eh]
	 SCS Opposite-Spin Energy  =      -1.4374269629411631 [Eh]
	 SCS Correlation Energy    =      -1.5630521448647647 [Eh]
	 SCS Total Energy          =    -686.0709819032331325 [Eh]
	-----------------------------------------------------------

  Dipole Moment: [D]
     X:     0.4701      Y:    -1.1764      Z:     0.0484     Total:     1.2678

*** Psi4 exiting successfully. Buy a developer a beer!
