                               Psi4 1.4a3.dev225

  ==> Input File <==

--------------------------------------------------------------------------
#psi4
#
memory 32 gb

molecule  {
0 1
  S        1.2258560    -1.1625810    -0.0000180
  N        0.3264180     1.2510610     0.0000150
  C       -1.6261679    -0.3211669     0.0832439
  C       -0.0728400    -0.0059560    -0.0000040
  C       -2.2053760     0.1167870    -1.2644160
  C       -2.2053680     0.1167230     1.2644280
  C        2.3605110     0.1219000     0.0000040
  C        1.6961240     1.3252530     0.0000200
  H       -1.5697880    -1.5042720    -0.0000380
  H       -2.1392250     1.2073760    -1.2930360
  H       -3.2606770    -0.1742520    -1.2762350
  H       -1.7266260    -0.2804090    -2.1642060
  H       -1.7266100    -0.2805170     2.1641940
  H       -3.2606680    -0.1743180     1.2762400
  H       -2.1392170     1.2073110     1.2931010
  H        3.4272510    -0.0583780     0.0000030
  H        2.1774630     2.2973190     0.0000360
units angstrom
no_reorient  #important for SAPT in psi4, default
symmetry c1  #important for SAPT in psi4, default
}

set PROPERTIES_ORIGIN ["COM"]
properties('MP2/aug-cc-pvtz', properties = ['dipole'])
--------------------------------------------------------------------------

    Molecular point group: c1
  Charge       = 0
  Multiplicity = 1
  Basis Set: AUG-CC-PVTZ
    Blend: AUG-CC-PVTZ
  Basis Set: (AUG-CC-PVTZ AUX)
    Blend: AUG-CC-PVTZ-JKFIT

    Orbital Energies [Eh]
    ---------------------

    Doubly Occupied:

       1A    -91.994987     2A    -15.561993     3A    -11.309538
       4A    -11.267666     5A    -11.260060     6A    -11.257535
       7A    -11.220746     8A    -11.213745     9A     -8.995357
      10A     -6.676244    11A     -6.675779    12A     -6.675038
      13A     -1.272325    14A     -1.107303    15A     -1.060151
      16A     -0.983822    17A     -0.949428    18A     -0.821807
      19A     -0.788723    20A     -0.714464    21A     -0.679792
      22A     -0.637128    23A     -0.608440    24A     -0.588821
      25A     -0.566648    26A     -0.549874    27A     -0.533845
      28A     -0.525474    29A     -0.501625    30A     -0.478221
      31A     -0.450142    32A     -0.418645    33A     -0.386351
      34A     -0.328742

  @DF-RHF Final Energy:  -684.50485950223208

   => Energetics <=

    Nuclear Repulsion Energy =            437.1354800716645173
    One-Electron Energy =               -1805.1597637522897912
    Two-Electron Energy =                 683.5194241783932512
    Total Energy =                       -684.5048595022320796
  Basis Set: (AUG-CC-PVTZ AUX)
    Blend: AUG-CC-PVTZ-RI
    Molecular point group: c1

    Geometry (in Angstrom), charge = 0, multiplicity = 1:

       Center              X                  Y                   Z               Mass
    ------------   -----------------  -----------------  -----------------  -----------------
         S            1.156364762163    -1.153516893869    -0.007881358060    31.972071174400
         N            0.256926762163     1.260125106131    -0.007848358060    14.003074004430
         C           -1.695659137837    -0.312102793869     0.075380541940    12.000000000000
         C           -0.142331237837     0.003108106131    -0.007867358060    12.000000000000
         C           -2.274867237837     0.125851106131    -1.272279358060    12.000000000000
         C           -2.274859237837     0.125787106131     1.256564641940    12.000000000000
         C            2.291019762163     0.130964106131    -0.007859358060    12.000000000000
         C            1.626632762163     1.334317106131    -0.007843358060    12.000000000000
         H           -1.639279237837    -1.495207893869    -0.007901358060     1.007825032230
         H           -2.208716237837     1.216440106131    -1.300899358060     1.007825032230
         H           -3.330168237837    -0.165187893869    -1.284098358060     1.007825032230
         H           -1.796117237837    -0.271344893869    -2.172069358060     1.007825032230
         H           -1.796101237837    -0.271452893869     2.156330641940     1.007825032230
         H           -3.330159237837    -0.165253893869     1.268376641940     1.007825032230
         H           -2.208708237837     1.216375106131     1.285237641940     1.007825032230
         H            3.357759762163    -0.049313893869    -0.007860358060     1.007825032230
         H            2.107971762163     2.306383106131    -0.007827358060     1.007825032230

  Basis Set: AUG-CC-PVTZ
    Blend: AUG-CC-PVTZ
  Basis Set: (AUG-CC-PVTZ AUX)
    Blend: AUG-CC-PVTZ-JKFIT
	 Reference Energy          =    -684.5048595022320796 [Eh]
	 Singles Energy            =      -0.0000000000000000 [Eh]
	 Same-Spin Energy          =      -0.3780076843138093 [Eh]
	 Opposite-Spin Energy      =      -1.1987289450359233 [Eh]
	 Correlation Energy        =      -1.5767366293497327 [Eh]
	 Total Energy              =    -686.0815961315818186 [Eh]

	 ================> DF-SCS-MP2 Energies <==================
	-----------------------------------------------------------
	 SCS Same-Spin Scale       =       0.3333333333333333 [-]
	 SCS Opposite-Spin Scale   =       1.2000000000000000 [-]
	 SCS Same-Spin Energy      =      -0.1260025614379364 [Eh]
	 SCS Opposite-Spin Energy  =      -1.4384747340431079 [Eh]
	 SCS Correlation Energy    =      -1.5644772954810444 [Eh]
	 SCS Total Energy          =    -686.0693367977131629 [Eh]
	-----------------------------------------------------------

  Dipole Moment: [D]
     X:     0.4738      Y:    -1.0658      Z:     0.0793     Total:     1.1690

*** Psi4 exiting successfully. Buy a developer a beer!
