                               Psi4 1.4a3.dev225

  ==> Input File <==

--------------------------------------------------------------------------
#psi4
#
memory 32 gb

molecule  {
0 1
  S        1.2258560    -1.1625810    -0.0000180
  N        0.3264180     1.2510610     0.0000150
  C       -1.5198050    -0.4073720    -0.0000100
  C       -0.1031120    -0.1012639    -0.0000054
  C       -2.2053760     0.1167870    -1.2644160
  C       -2.2053680     0.1167230     1.2644280
  C        2.3605110     0.1219000     0.0000040
  C        1.6961240     1.3252530     0.0000200
  H       -1.5697880    -1.5042720    -0.0000380
  H       -2.1392250     1.2073760    -1.2930360
  H       -3.2606770    -0.1742520    -1.2762350
  H       -1.7266260    -0.2804090    -2.1642060
  H       -1.7266100    -0.2805170     2.1641940
  H       -3.2606680    -0.1743180     1.2762400
  H       -2.1392170     1.2073110     1.2931010
  H        3.4272510    -0.0583780     0.0000030
  H        2.1774630     2.2973190     0.0000360
units angstrom
no_reorient  #important for SAPT in psi4, default
symmetry c1  #important for SAPT in psi4, default
}

set PROPERTIES_ORIGIN ["COM"]
properties('MP2/aug-cc-pvtz', properties = ['dipole'])
--------------------------------------------------------------------------

    Molecular point group: c1
  Charge       = 0
  Multiplicity = 1
  Basis Set: AUG-CC-PVTZ
    Blend: AUG-CC-PVTZ
  Basis Set: (AUG-CC-PVTZ AUX)
    Blend: AUG-CC-PVTZ-JKFIT

    Orbital Energies [Eh]
    ---------------------

    Doubly Occupied:

       1A    -92.002208     2A    -15.565792     3A    -11.315056
       4A    -11.268983     5A    -11.257423     6A    -11.247730
       7A    -11.220579     8A    -11.220563     9A     -9.002575
      10A     -6.683491    11A     -6.683055    12A     -6.682408
      13A     -1.250440    14A     -1.102545    15A     -1.057116
      16A     -0.980736    17A     -0.936769    18A     -0.851557
      19A     -0.781304    20A     -0.719233    21A     -0.678757
      22A     -0.628006    23A     -0.601852    24A     -0.586246
      25A     -0.560831    26A     -0.543916    27A     -0.528480
      28A     -0.506116    29A     -0.503606    30A     -0.488708
      31A     -0.483351    32A     -0.420222    33A     -0.380478
      34A     -0.322333

  @DF-RHF Final Energy:  -684.51550899140625

   => Energetics <=

    Nuclear Repulsion Energy =            437.2060337182913372
    One-Electron Energy =               -1805.3181591978061533
    Two-Electron Energy =                 683.5966164881085660
    Total Energy =                       -684.5155089914062501
  Basis Set: (AUG-CC-PVTZ AUX)
    Blend: AUG-CC-PVTZ-RI
    Molecular point group: c1

    Geometry (in Angstrom), charge = 0, multiplicity = 1:

       Center              X                  Y                   Z               Mass
    ------------   -----------------  -----------------  -----------------  -----------------
         S            1.149177649723    -1.136372211122    -0.000017537257    31.972071174400
         N            0.249739649723     1.277269788878     0.000015462743    14.003074004430
         C           -1.596483350277    -0.381163211122    -0.000009537257    12.000000000000
         C           -0.179790350277    -0.075055111122    -0.000004937257    12.000000000000
         C           -2.282054350277     0.142995788878    -1.264415537257    12.000000000000
         C           -2.282046350277     0.142931788878     1.264428462743    12.000000000000
         C            2.283832649723     0.148108788878     0.000004462743    12.000000000000
         C            1.619445649723     1.351461788878     0.000020462743    12.000000000000
         H           -1.646466350277    -1.478063211122    -0.000037537257     1.007825032230
         H           -2.215903350277     1.233584788878    -1.293035537257     1.007825032230
         H           -3.337355350277    -0.148043211122    -1.276234537257     1.007825032230
         H           -1.803304350277    -0.254200211122    -2.164205537257     1.007825032230
         H           -1.803288350277    -0.254308211122     2.164194462743     1.007825032230
         H           -3.337346350277    -0.148109211122     1.276240462743     1.007825032230
         H           -2.215895350277     1.233519788878     1.293101462743     1.007825032230
         H            3.350572649723    -0.032169211122     0.000003462743     1.007825032230
         H            2.100784649723     2.323527788878     0.000036462743     1.007825032230

  Basis Set: AUG-CC-PVTZ
    Blend: AUG-CC-PVTZ
  Basis Set: (AUG-CC-PVTZ AUX)
    Blend: AUG-CC-PVTZ-JKFIT
	 Reference Energy          =    -684.5155089914062501 [Eh]
	 Singles Energy            =      -0.0000000000000000 [Eh]
	 Same-Spin Energy          =      -0.3802201732502284 [Eh]
	 Opposite-Spin Energy      =      -1.2014791781660179 [Eh]
	 Correlation Energy        =      -1.5816993514162463 [Eh]
	 Total Energy              =    -686.0972083428224551 [Eh]

	 ================> DF-SCS-MP2 Energies <==================
	-----------------------------------------------------------
	 SCS Same-Spin Scale       =       0.3333333333333333 [-]
	 SCS Opposite-Spin Scale   =       1.2000000000000000 [-]
	 SCS Same-Spin Energy      =      -0.1267400577500761 [Eh]
	 SCS Opposite-Spin Energy  =      -1.4417750137992213 [Eh]
	 SCS Correlation Energy    =      -1.5685150715492975 [Eh]
	 SCS Total Energy          =    -686.0840240629555637 [Eh]
	-----------------------------------------------------------

  Dipole Moment: [D]
     X:     0.5979      Y:    -1.2795      Z:    -0.0000     Total:     1.4123

*** Psi4 exiting successfully. Buy a developer a beer!
