                               Psi4 1.4a3.dev225

  ==> Input File <==

--------------------------------------------------------------------------
#psi4
#
memory 32 gb

molecule  {
0 1
  S        1.2258560    -1.1625810    -0.0000180
  N        0.3264180     1.2510610     0.0000150
  C       -1.5198050    -0.4073720    -0.0000100
  C       -0.0728400    -0.0059560    -0.0000040
  C       -2.2053760     0.1167870    -1.2644160
  C       -2.2053680     0.1167230     1.2644280
  C        2.3605110     0.1219000     0.0000040
  C        1.6961240     1.3252530     0.0000200
  H       -1.5697880    -1.5042720    -0.0000380
  H       -2.1392250     1.2073760    -1.2930360
  H       -3.3088747    -0.1875443    -1.2767748
  H       -1.7266260    -0.2804090    -2.1642060
  H       -1.7266100    -0.2805170     2.1641940
  H       -3.2606680    -0.1743180     1.2762400
  H       -2.1392170     1.2073110     1.2931010
  H        3.4272510    -0.0583780     0.0000030
  H        2.1774630     2.2973190     0.0000360
units angstrom
no_reorient  #important for SAPT in psi4, default
symmetry c1  #important for SAPT in psi4, default
}

set PROPERTIES_ORIGIN ["COM"]
properties('MP2/aug-cc-pvtz', properties = ['dipole'])
--------------------------------------------------------------------------

    Molecular point group: c1
  Charge       = 0
  Multiplicity = 1
  Basis Set: AUG-CC-PVTZ
    Blend: AUG-CC-PVTZ
  Basis Set: (AUG-CC-PVTZ AUX)
    Blend: AUG-CC-PVTZ-JKFIT

    Orbital Energies [Eh]
    ---------------------

    Doubly Occupied:

       1A    -91.994303     2A    -15.564319     3A    -11.310386
       4A    -11.269164     5A    -11.260769     6A    -11.249882
       7A    -11.225374     8A    -11.219288     9A     -8.994936
      10A     -6.675835    11A     -6.675326    12A     -6.674613
      13A     -1.275061    14A     -1.094266    15A     -1.061510
      16A     -0.980573    17A     -0.933420    18A     -0.838570
      19A     -0.792981    20A     -0.716769    21A     -0.683280
      22A     -0.625286    23A     -0.600634    24A     -0.584546
      25A     -0.567299    26A     -0.545799    27A     -0.527785
      28A     -0.504507    29A     -0.496572    30A     -0.487733
      31A     -0.483459    32A     -0.422345    33A     -0.387162
      34A     -0.328137

  @DF-RHF Final Energy:  -684.53154161624548

   => Energetics <=

    Nuclear Repulsion Energy =            437.3031794339896692
    One-Electron Energy =               -1805.5656629393281492
    Two-Electron Energy =                 683.7309418890929464
    Total Energy =                       -684.5315416162454767
  Basis Set: (AUG-CC-PVTZ AUX)
    Blend: AUG-CC-PVTZ-RI
    Molecular point group: c1

    Geometry (in Angstrom), charge = 0, multiplicity = 1:

       Center              X                  Y                   Z               Mass
    ------------   -----------------  -----------------  -----------------  -----------------
         S            1.146700671184    -1.145269006840    -0.000013387376    31.972071174400
         N            0.247262671184     1.268372993160     0.000019612624    14.003074004430
         C           -1.598960328816    -0.390060006840    -0.000005387376    12.000000000000
         C           -0.151995328816     0.011355993160     0.000000612624    12.000000000000
         C           -2.284531328816     0.134098993160    -1.264411387376    12.000000000000
         C           -2.284523328816     0.134034993160     1.264432612624    12.000000000000
         C            2.281355671184     0.139211993160     0.000008612624    12.000000000000
         C            1.616968671184     1.342564993160     0.000024612624    12.000000000000
         H           -1.648943328816    -1.486960006840    -0.000033387376     1.007825032230
         H           -2.218380328816     1.224687993160    -1.293031387376     1.007825032230
         H           -3.388030028816    -0.170232306840    -1.276770187376     1.007825032230
         H           -1.805781328816    -0.263097006840    -2.164201387376     1.007825032230
         H           -1.805765328816    -0.263205006840     2.164198612624     1.007825032230
         H           -3.339823328816    -0.157006006840     1.276244612624     1.007825032230
         H           -2.218372328816     1.224622993160     1.293105612624     1.007825032230
         H            3.348095671184    -0.041066006840     0.000007612624     1.007825032230
         H            2.098307671184     2.314630993160     0.000040612624     1.007825032230

  Basis Set: AUG-CC-PVTZ
    Blend: AUG-CC-PVTZ
  Basis Set: (AUG-CC-PVTZ AUX)
    Blend: AUG-CC-PVTZ-JKFIT
	 Reference Energy          =    -684.5315416162454767 [Eh]
	 Singles Energy            =      -0.0000000000000000 [Eh]
	 Same-Spin Energy          =      -0.3768982661364205 [Eh]
	 Opposite-Spin Energy      =      -1.1971481770469017 [Eh]
	 Correlation Energy        =      -1.5740464431833221 [Eh]
	 Total Energy              =    -686.1055880594287828 [Eh]

	 ================> DF-SCS-MP2 Energies <==================
	-----------------------------------------------------------
	 SCS Same-Spin Scale       =       0.3333333333333333 [-]
	 SCS Opposite-Spin Scale   =       1.2000000000000000 [-]
	 SCS Same-Spin Energy      =      -0.1256327553788068 [Eh]
	 SCS Opposite-Spin Energy  =      -1.4365778124562820 [Eh]
	 SCS Correlation Energy    =      -1.5622105678350888 [Eh]
	 SCS Total Energy          =    -686.0937521840805857 [Eh]
	-----------------------------------------------------------

  Dipole Moment: [D]
     X:     0.5390      Y:    -1.1384      Z:     0.0090     Total:     1.2596

*** Psi4 exiting successfully. Buy a developer a beer!
