                               Psi4 1.4a3.dev225

  ==> Input File <==

--------------------------------------------------------------------------
#psi4
#
memory 32 gb

molecule  {
0 1
  S        1.2258560    -1.1625810    -0.0000180
  N        0.3264180     1.2510610     0.0000150
  C       -1.5198050    -0.4073720    -0.0000100
  C       -0.0788944    -0.0250176    -0.0000043
  C       -2.2053760     0.1167870    -1.2644160
  C       -2.2053680     0.1167230     1.2644280
  C        2.3605110     0.1219000     0.0000040
  C        1.6961240     1.3252530     0.0000200
  H       -1.5697880    -1.5042720    -0.0000380
  H       -2.1392250     1.2073760    -1.2930360
  H       -3.2606770    -0.1742520    -1.2762350
  H       -1.7266260    -0.2804090    -2.1642060
  H       -1.7266100    -0.2805170     2.1641940
  H       -3.2606680    -0.1743180     1.2762400
  H       -2.1392170     1.2073110     1.2931010
  H        3.4272510    -0.0583780     0.0000030
  H        2.1774630     2.2973190     0.0000360
units angstrom
no_reorient  #important for SAPT in psi4, default
symmetry c1  #important for SAPT in psi4, default
}

set PROPERTIES_ORIGIN ["COM"]
properties('MP2/aug-cc-pvtz', properties = ['dipole'])
--------------------------------------------------------------------------

    Molecular point group: c1
  Charge       = 0
  Multiplicity = 1
  Basis Set: AUG-CC-PVTZ
    Blend: AUG-CC-PVTZ
  Basis Set: (AUG-CC-PVTZ AUX)
    Blend: AUG-CC-PVTZ-JKFIT

    Orbital Energies [Eh]
    ---------------------

    Doubly Occupied:

       1A    -91.995640     2A    -15.564449     3A    -11.311147
       4A    -11.268850     5A    -11.259805     6A    -11.249077
       7A    -11.219551     8A    -11.219535     9A     -8.996229
      10A     -6.677128    11A     -6.676642    12A     -6.675937
      13A     -1.269109    14A     -1.096085    15A     -1.060148
      16A     -0.981011    17A     -0.935970    18A     -0.842390
      19A     -0.790330    20A     -0.717141    21A     -0.682181
      22A     -0.625953    23A     -0.601337    24A     -0.586427
      25A     -0.566147    26A     -0.545117    27A     -0.530682
      28A     -0.504142    29A     -0.500147    30A     -0.487638
      31A     -0.483258    32A     -0.422634    33A     -0.385116
      34A     -0.327031

  @DF-RHF Final Energy:  -684.53162098046289

   => Energetics <=

    Nuclear Repulsion Energy =            437.4576828513486930
    One-Electron Energy =               -1805.8706366297376462
    Two-Electron Energy =                 683.8813327979261203
    Total Energy =                       -684.5316209804628897
  Basis Set: (AUG-CC-PVTZ AUX)
    Blend: AUG-CC-PVTZ-RI
    Molecular point group: c1

    Geometry (in Angstrom), charge = 0, multiplicity = 1:

       Center              X                  Y                   Z               Mass
    ------------   -----------------  -----------------  -----------------  -----------------
         S            1.146890193348    -1.143574001760    -0.000017641156    31.972071174400
         N            0.247452193348     1.270067998240     0.000015358844    14.003074004430
         C           -1.598770806652    -0.388365001760    -0.000009641156    12.000000000000
         C           -0.157860206652    -0.006010601760    -0.000003941156    12.000000000000
         C           -2.284341806652     0.135793998240    -1.264415641156    12.000000000000
         C           -2.284333806652     0.135729998240     1.264428358844    12.000000000000
         C            2.281545193348     0.140906998240     0.000004358844    12.000000000000
         C            1.617158193348     1.344259998240     0.000020358844    12.000000000000
         H           -1.648753806652    -1.485265001760    -0.000037641156     1.007825032230
         H           -2.218190806652     1.226382998240    -1.293035641156     1.007825032230
         H           -3.339642806652    -0.155245001760    -1.276234641156     1.007825032230
         H           -1.805591806652    -0.261402001760    -2.164205641156     1.007825032230
         H           -1.805575806652    -0.261510001760     2.164194358844     1.007825032230
         H           -3.339633806652    -0.155311001760     1.276240358844     1.007825032230
         H           -2.218182806652     1.226317998240     1.293101358844     1.007825032230
         H            3.348285193348    -0.039371001760     0.000003358844     1.007825032230
         H            2.098497193348     2.316325998240     0.000036358844     1.007825032230

  Basis Set: AUG-CC-PVTZ
    Blend: AUG-CC-PVTZ
  Basis Set: (AUG-CC-PVTZ AUX)
    Blend: AUG-CC-PVTZ-JKFIT
	 Reference Energy          =    -684.5316209804628897 [Eh]
	 Singles Energy            =      -0.0000000000000000 [Eh]
	 Same-Spin Energy          =      -0.3775246477592435 [Eh]
	 Opposite-Spin Energy      =      -1.1976500363909877 [Eh]
	 Correlation Energy        =      -1.5751746841502312 [Eh]
	 Total Energy              =    -686.1067956646131734 [Eh]

	 ================> DF-SCS-MP2 Energies <==================
	-----------------------------------------------------------
	 SCS Same-Spin Scale       =       0.3333333333333333 [-]
	 SCS Opposite-Spin Scale   =       1.2000000000000000 [-]
	 SCS Same-Spin Energy      =      -0.1258415492530812 [Eh]
	 SCS Opposite-Spin Energy  =      -1.4371800436691851 [Eh]
	 SCS Correlation Energy    =      -1.5630215929222662 [Eh]
	 SCS Total Energy          =    -686.0946425733851584 [Eh]
	-----------------------------------------------------------

  Dipole Moment: [D]
     X:     0.5166      Y:    -1.1795      Z:    -0.0000     Total:     1.2877

*** Psi4 exiting successfully. Buy a developer a beer!
