                               Psi4 1.4a3.dev225

  ==> Input File <==

--------------------------------------------------------------------------
#psi4
#
memory 32 gb

molecule  {
0 1
  S        1.2458441    -1.1397395    -0.0000176
  N        0.3264180     1.2510610     0.0000150
  C       -1.5198050    -0.4073720    -0.0000100
  C       -0.0728400    -0.0059560    -0.0000040
  C       -2.2053760     0.1167870    -1.2644160
  C       -2.2053680     0.1167230     1.2644280
  C        2.3605110     0.1219000     0.0000040
  C        1.6961240     1.3252530     0.0000200
  H       -1.5697880    -1.5042720    -0.0000380
  H       -2.1392250     1.2073760    -1.2930360
  H       -3.2606770    -0.1742520    -1.2762350
  H       -1.7266260    -0.2804090    -2.1642060
  H       -1.7266100    -0.2805170     2.1641940
  H       -3.2606680    -0.1743180     1.2762400
  H       -2.1392170     1.2073110     1.2931010
  H        3.4272510    -0.0583780     0.0000030
  H        2.1774630     2.2973190     0.0000360
units angstrom
no_reorient  #important for SAPT in psi4, default
symmetry c1  #important for SAPT in psi4, default
}

set PROPERTIES_ORIGIN ["COM"]
properties('MP2/aug-cc-pvtz', properties = ['dipole'])
--------------------------------------------------------------------------

    Molecular point group: c1
  Charge       = 0
  Multiplicity = 1
  Basis Set: AUG-CC-PVTZ
    Blend: AUG-CC-PVTZ
  Basis Set: (AUG-CC-PVTZ AUX)
    Blend: AUG-CC-PVTZ-JKFIT

    Orbital Energies [Eh]
    ---------------------

    Doubly Occupied:

       1A    -91.992751     2A    -15.563994     3A    -11.308681
       4A    -11.267742     5A    -11.258131     6A    -11.249607
       7A    -11.219240     8A    -11.219225     9A     -8.994080
      10A     -6.675013    11A     -6.674525    12A     -6.673759
      13A     -1.276093    14A     -1.094744    15A     -1.066731
      16A     -0.979867    17A     -0.935705    18A     -0.840252
      19A     -0.791660    20A     -0.719013    21A     -0.683594
      22A     -0.625980    23A     -0.601920    24A     -0.587251
      25A     -0.567267    26A     -0.545881    27A     -0.532291
      28A     -0.504252    29A     -0.499913    30A     -0.487612
      31A     -0.483700    32A     -0.421744    33A     -0.388129
      34A     -0.326428

  @DF-RHF Final Energy:  -684.53315274273405

   => Energetics <=

    Nuclear Repulsion Energy =            438.2577493578006624
    One-Electron Energy =               -1807.4682505789862716
    Two-Electron Energy =                 684.6773484784514494
    Total Energy =                       -684.5331527427340461
  Basis Set: (AUG-CC-PVTZ AUX)
    Blend: AUG-CC-PVTZ-RI
    Molecular point group: c1

    Geometry (in Angstrom), charge = 0, multiplicity = 1:

       Center              X                  Y                   Z               Mass
    ------------   -----------------  -----------------  -----------------  -----------------
         S            1.161276258164    -1.128281204641    -0.000017370156    31.972071174400
         N            0.241850158164     1.262519295359     0.000015229844    14.003074004430
         C           -1.604372841836    -0.395913704641    -0.000009770156    12.000000000000
         C           -0.157407841836     0.005502295359    -0.000003770156    12.000000000000
         C           -2.289943841836     0.128245295359    -1.264415770156    12.000000000000
         C           -2.289935841836     0.128181295359     1.264428229844    12.000000000000
         C            2.275943158164     0.133358295359     0.000004229844    12.000000000000
         C            1.611556158164     1.336711295359     0.000020229844    12.000000000000
         H           -1.654355841836    -1.492813704641    -0.000037770156     1.007825032230
         H           -2.223792841836     1.218834295359    -1.293035770156     1.007825032230
         H           -3.345244841836    -0.162793704641    -1.276234770156     1.007825032230
         H           -1.811193841836    -0.268950704641    -2.164205770156     1.007825032230
         H           -1.811177841836    -0.269058704641     2.164194229844     1.007825032230
         H           -3.345235841836    -0.162859704641     1.276240229844     1.007825032230
         H           -2.223784841836     1.218769295359     1.293101229844     1.007825032230
         H            3.342683158164    -0.046919704641     0.000003229844     1.007825032230
         H            2.092895158164     2.308777295359     0.000036229844     1.007825032230

  Basis Set: AUG-CC-PVTZ
    Blend: AUG-CC-PVTZ
  Basis Set: (AUG-CC-PVTZ AUX)
    Blend: AUG-CC-PVTZ-JKFIT
	 Reference Energy          =    -684.5331527427340461 [Eh]
	 Singles Energy            =      -0.0000000000000000 [Eh]
	 Same-Spin Energy          =      -0.3772865629687680 [Eh]
	 Opposite-Spin Energy      =      -1.1966777624303386 [Eh]
	 Correlation Energy        =      -1.5739643253991067 [Eh]
	 Total Energy              =    -686.1071170681331068 [Eh]

	 ================> DF-SCS-MP2 Energies <==================
	-----------------------------------------------------------
	 SCS Same-Spin Scale       =       0.3333333333333333 [-]
	 SCS Opposite-Spin Scale   =       1.2000000000000000 [-]
	 SCS Same-Spin Energy      =      -0.1257621876562560 [Eh]
	 SCS Opposite-Spin Energy  =      -1.4360133149164063 [Eh]
	 SCS Correlation Energy    =      -1.5617755025726623 [Eh]
	 SCS Total Energy          =    -686.0949282453067326 [Eh]
	-----------------------------------------------------------

  Dipole Moment: [D]
     X:     0.5090      Y:    -1.1587      Z:    -0.0000     Total:     1.2656

*** Psi4 exiting successfully. Buy a developer a beer!
