                               Psi4 1.4a3.dev225

  ==> Input File <==

--------------------------------------------------------------------------
#psi4
#
memory 32 gb

molecule  {
0 1
  S        1.2258560    -1.1625810    -0.0000180
  N        0.3264180     1.2510610     0.0000150
  C       -1.5198050    -0.4073720    -0.0000100
  C       -0.0316832     0.0386633    -0.0000032
  C       -2.2053760     0.1167870    -1.2644160
  C       -2.2053680     0.1167230     1.2644280
  C        2.3605110     0.1219000     0.0000040
  C        1.6961240     1.3252530     0.0000200
  H       -1.5697880    -1.5042720    -0.0000380
  H       -2.1392250     1.2073760    -1.2930360
  H       -3.2606770    -0.1742520    -1.2762350
  H       -1.7266260    -0.2804090    -2.1642060
  H       -1.7266100    -0.2805170     2.1641940
  H       -3.2606680    -0.1743180     1.2762400
  H       -2.1392170     1.2073110     1.2931010
  H        3.4272510    -0.0583780     0.0000030
  H        2.1774630     2.2973190     0.0000360
units angstrom
no_reorient  #important for SAPT in psi4, default
symmetry c1  #important for SAPT in psi4, default
}

set PROPERTIES_ORIGIN ["COM"]
properties('MP2/aug-cc-pvtz', properties = ['dipole'])
--------------------------------------------------------------------------

    Molecular point group: c1
  Charge       = 0
  Multiplicity = 1
  Basis Set: AUG-CC-PVTZ
    Blend: AUG-CC-PVTZ
  Basis Set: (AUG-CC-PVTZ AUX)
    Blend: AUG-CC-PVTZ-JKFIT

    Orbital Energies [Eh]
    ---------------------

    Doubly Occupied:

       1A    -91.990923     2A    -15.561456     3A    -11.304826
       4A    -11.269246     5A    -11.261571     6A    -11.250255
       7A    -11.217792     8A    -11.217776     9A     -8.992039
      10A     -6.672960    11A     -6.672363    12A     -6.671613
      13A     -1.293718    14A     -1.086956    15A     -1.067092
      16A     -0.981230    17A     -0.934086    18A     -0.830272
      19A     -0.799019    20A     -0.716157    21A     -0.685496
      22A     -0.622663    23A     -0.600046    24A     -0.588068
      25A     -0.569937    26A     -0.546720    27A     -0.533000
      28A     -0.505847    29A     -0.495360    30A     -0.485537
      31A     -0.481600    32A     -0.420789    33A     -0.393065
      34A     -0.330683

  @DF-RHF Final Energy:  -684.53318768336112

   => Energetics <=

    Nuclear Repulsion Energy =            437.9406394396372093
    One-Electron Energy =               -1806.8473358460678355
    Two-Electron Energy =                 684.3735087230695626
    Total Energy =                       -684.5331876833611204
  Basis Set: (AUG-CC-PVTZ AUX)
    Blend: AUG-CC-PVTZ-RI
    Molecular point group: c1

    Geometry (in Angstrom), charge = 0, multiplicity = 1:

       Center              X                  Y                   Z               Mass
    ------------   -----------------  -----------------  -----------------  -----------------
         S            1.142430892659    -1.149588936379    -0.000017745056    31.972071174400
         N            0.242992892659     1.264053063621     0.000015254944    14.003074004430
         C           -1.603230107341    -0.394379936379    -0.000009745056    12.000000000000
         C           -0.115108307341     0.051655363621    -0.000002945056    12.000000000000
         C           -2.288801107341     0.129779063621    -1.264415745056    12.000000000000
         C           -2.288793107341     0.129715063621     1.264428254944    12.000000000000
         C            2.277085892659     0.134892063621     0.000004254944    12.000000000000
         C            1.612698892659     1.338245063621     0.000020254944    12.000000000000
         H           -1.653213107341    -1.491279936379    -0.000037745056     1.007825032230
         H           -2.222650107341     1.220368063621    -1.293035745056     1.007825032230
         H           -3.344102107341    -0.161259936379    -1.276234745056     1.007825032230
         H           -1.810051107341    -0.267416936379    -2.164205745056     1.007825032230
         H           -1.810035107341    -0.267524936379     2.164194254944     1.007825032230
         H           -3.344093107341    -0.161325936379     1.276240254944     1.007825032230
         H           -2.222642107341     1.220303063621     1.293101254944     1.007825032230
         H            3.343825892659    -0.045385936379     0.000003254944     1.007825032230
         H            2.094037892659     2.310311063621     0.000036254944     1.007825032230

  Basis Set: AUG-CC-PVTZ
    Blend: AUG-CC-PVTZ
  Basis Set: (AUG-CC-PVTZ AUX)
    Blend: AUG-CC-PVTZ-JKFIT
	 Reference Energy          =    -684.5331876833611204 [Eh]
	 Singles Energy            =      -0.0000000000000000 [Eh]
	 Same-Spin Energy          =      -0.3751756191161666 [Eh]
	 Opposite-Spin Energy      =      -1.1945340575075383 [Eh]
	 Correlation Energy        =      -1.5697096766237049 [Eh]
	 Total Energy              =    -686.1028973599848086 [Eh]

	 ================> DF-SCS-MP2 Energies <==================
	-----------------------------------------------------------
	 SCS Same-Spin Scale       =       0.3333333333333333 [-]
	 SCS Opposite-Spin Scale   =       1.2000000000000000 [-]
	 SCS Same-Spin Energy      =      -0.1250585397053889 [Eh]
	 SCS Opposite-Spin Energy  =      -1.4334408690090459 [Eh]
	 SCS Correlation Energy    =      -1.5584994087144348 [Eh]
	 SCS Total Energy          =    -686.0916870920755173 [Eh]
	-----------------------------------------------------------

  Dipole Moment: [D]
     X:     0.5162      Y:    -1.0847      Z:    -0.0000     Total:     1.2013

*** Psi4 exiting successfully. Buy a developer a beer!
