                               Psi4 1.4a3.dev225

  ==> Input File <==

--------------------------------------------------------------------------
#psi4
#
memory 32 gb

molecule  {
0 1
  S        1.2258560    -1.1625810    -0.0000180
  N        0.3264180     1.2510610     0.0000150
  C       -1.5198050    -0.4073720    -0.0000100
  C       -0.1008287     0.0641640    -0.1378603
  C       -2.2053760     0.1167870    -1.2644160
  C       -2.2053680     0.1167230     1.2644280
  C        2.3605110     0.1219000     0.0000040
  C        1.6961240     1.3252530     0.0000200
  H       -1.5697880    -1.5042720    -0.0000380
  H       -2.1392250     1.2073760    -1.2930360
  H       -3.2606770    -0.1742520    -1.2762350
  H       -1.7266260    -0.2804090    -2.1642060
  H       -1.7266100    -0.2805170     2.1641940
  H       -3.2606680    -0.1743180     1.2762400
  H       -2.1392170     1.2073110     1.2931010
  H        3.4272510    -0.0583780     0.0000030
  H        2.1774630     2.2973190     0.0000360
units angstrom
no_reorient  #important for SAPT in psi4, default
symmetry c1  #important for SAPT in psi4, default
}

set PROPERTIES_ORIGIN ["COM"]
properties('MP2/aug-cc-pvtz', properties = ['dipole'])
--------------------------------------------------------------------------

    Molecular point group: c1
  Charge       = 0
  Multiplicity = 1
  Basis Set: AUG-CC-PVTZ
    Blend: AUG-CC-PVTZ
  Basis Set: (AUG-CC-PVTZ AUX)
    Blend: AUG-CC-PVTZ-JKFIT

    Orbital Energies [Eh]
    ---------------------

    Doubly Occupied:

       1A    -91.985789     2A    -15.565043     3A    -11.310751
       4A    -11.269109     5A    -11.263900     6A    -11.250331
       7A    -11.221176     8A    -11.219381     9A     -8.985948
      10A     -6.666827    11A     -6.666212    12A     -6.665531
      13A     -1.288017    14A     -1.096898    15A     -1.059604
      16A     -0.976651    17A     -0.937498    18A     -0.839253
      19A     -0.798154    20A     -0.712638    21A     -0.686065
      22A     -0.627112    23A     -0.608485    24A     -0.589686
      25A     -0.566212    26A     -0.548121    27A     -0.533220
      28A     -0.505092    29A     -0.499719    30A     -0.485451
      31A     -0.483716    32A     -0.411368    33A     -0.390676
      34A     -0.326534

  @DF-RHF Final Energy:  -684.52581023659400

   => Energetics <=

    Nuclear Repulsion Energy =            437.1800614709268302
    One-Electron Energy =               -1805.3314097368206603
    Two-Electron Energy =                 683.6255380292998325
    Total Energy =                       -684.5258102365939976
  Basis Set: (AUG-CC-PVTZ AUX)
    Blend: AUG-CC-PVTZ-RI
    Molecular point group: c1

    Geometry (in Angstrom), charge = 0, multiplicity = 1:

       Center              X                  Y                   Z               Mass
    ------------   -----------------  -----------------  -----------------  -----------------
         S            1.148961982227    -1.151997587062     0.013003450361    31.972071174400
         N            0.249523982227     1.261644412938     0.013036450361    14.003074004430
         C           -1.596699017773    -0.396788587062     0.013011450361    12.000000000000
         C           -0.177722717773     0.074747412938    -0.124838849639    12.000000000000
         C           -2.282270017773     0.127370412938    -1.251394549639    12.000000000000
         C           -2.282262017773     0.127306412938     1.277449450361    12.000000000000
         C            2.283616982227     0.132483412938     0.013025450361    12.000000000000
         C            1.619229982227     1.335836412938     0.013041450361    12.000000000000
         H           -1.646682017773    -1.493688587062     0.012983450361     1.007825032230
         H           -2.216119017773     1.217959412938    -1.280014549639     1.007825032230
         H           -3.337571017773    -0.163668587062    -1.263213549639     1.007825032230
         H           -1.803520017773    -0.269825587062    -2.151184549639     1.007825032230
         H           -1.803504017773    -0.269933587062     2.177215450361     1.007825032230
         H           -3.337562017773    -0.163734587062     1.289261450361     1.007825032230
         H           -2.216111017773     1.217894412938     1.306122450361     1.007825032230
         H            3.350356982227    -0.047794587062     0.013024450361     1.007825032230
         H            2.100568982227     2.307902412938     0.013057450361     1.007825032230

  Basis Set: AUG-CC-PVTZ
    Blend: AUG-CC-PVTZ
  Basis Set: (AUG-CC-PVTZ AUX)
    Blend: AUG-CC-PVTZ-JKFIT
	 Reference Energy          =    -684.5258102365939976 [Eh]
	 Singles Energy            =      -0.0000000000000000 [Eh]
	 Same-Spin Energy          =      -0.3760973530972720 [Eh]
	 Opposite-Spin Energy      =      -1.1964982793346923 [Eh]
	 Correlation Energy        =      -1.5725956324319643 [Eh]
	 Total Energy              =    -686.0984058690260099 [Eh]

	 ================> DF-SCS-MP2 Energies <==================
	-----------------------------------------------------------
	 SCS Same-Spin Scale       =       0.3333333333333333 [-]
	 SCS Opposite-Spin Scale   =       1.2000000000000000 [-]
	 SCS Same-Spin Energy      =      -0.1253657843657573 [Eh]
	 SCS Opposite-Spin Energy  =      -1.4357979352016308 [Eh]
	 SCS Correlation Energy    =      -1.5611637195673882 [Eh]
	 SCS Total Energy          =    -686.0869739561613869 [Eh]
	-----------------------------------------------------------

  Dipole Moment: [D]
     X:     0.2863      Y:    -0.8841      Z:     0.0691     Total:     0.9318

*** Psi4 exiting successfully. Buy a developer a beer!
