                               Psi4 1.4a3.dev225

  ==> Input File <==

--------------------------------------------------------------------------
#psi4
#
memory 32 gb

molecule  {
0 1
  S        1.2258560    -1.1625810    -0.0000180
  N        0.3264180     1.2510610     0.0000150
  C       -1.5198050    -0.4073720    -0.0000100
  C       -0.0728400    -0.0059560    -0.0000040
  C       -2.1823274     0.2157519    -1.2313725
  C       -2.2053680     0.1167230     1.2644280
  C        2.3605110     0.1219000     0.0000040
  C        1.6961240     1.3252530     0.0000200
  H       -1.5697880    -1.5042720    -0.0000380
  H       -2.1392250     1.2073760    -1.2930360
  H       -3.2606770    -0.1742520    -1.2762350
  H       -1.7266260    -0.2804090    -2.1642060
  H       -1.7266100    -0.2805170     2.1641940
  H       -3.2606680    -0.1743180     1.2762400
  H       -2.1392170     1.2073110     1.2931010
  H        3.4272510    -0.0583780     0.0000030
  H        2.1774630     2.2973190     0.0000360
units angstrom
no_reorient  #important for SAPT in psi4, default
symmetry c1  #important for SAPT in psi4, default
}

set PROPERTIES_ORIGIN ["COM"]
properties('MP2/aug-cc-pvtz', properties = ['dipole'])
--------------------------------------------------------------------------

    Molecular point group: c1
  Charge       = 0
  Multiplicity = 1
  Basis Set: AUG-CC-PVTZ
    Blend: AUG-CC-PVTZ
  Basis Set: (AUG-CC-PVTZ AUX)
    Blend: AUG-CC-PVTZ-JKFIT

    Orbital Energies [Eh]
    ---------------------

    Doubly Occupied:

       1A    -91.993763     2A    -15.563563     3A    -11.309979
       4A    -11.268968     5A    -11.260125     6A    -11.250758
       7A    -11.221536     8A    -11.218958     9A     -8.994431
      10A     -6.675337    11A     -6.674825    12A     -6.674112
      13A     -1.274833    14A     -1.096286    15A     -1.061091
      16A     -0.980930    17A     -0.935680    18A     -0.842335
      19A     -0.792898    20A     -0.718054    21A     -0.684718
      22A     -0.625357    23A     -0.601629    24A     -0.584571
      25A     -0.569011    26A     -0.560384    27A     -0.525158
      28A     -0.507051    29A     -0.494317    30A     -0.490141
      31A     -0.473523    32A     -0.422111    33A     -0.386891
      34A     -0.327177

  @DF-RHF Final Energy:  -684.51982633798889

   => Energetics <=

    Nuclear Repulsion Energy =            437.9882920592759774
    One-Electron Energy =               -1806.8952352573853659
    Two-Electron Energy =                 684.3871168601203863
    Total Energy =                       -684.5198263379888886
  Basis Set: (AUG-CC-PVTZ AUX)
    Blend: AUG-CC-PVTZ-RI
    Molecular point group: c1

    Geometry (in Angstrom), charge = 0, multiplicity = 1:

       Center              X                  Y                   Z               Mass
    ------------   -----------------  -----------------  -----------------  -----------------
         S            1.144141289953    -1.154722111803    -0.003138770044    31.972071174400
         N            0.244703289953     1.258919888197    -0.003105770044    14.003074004430
         C           -1.601519710047    -0.399513111803    -0.003130770044    12.000000000000
         C           -0.154554710047     0.001902888197    -0.003124770044    12.000000000000
         C           -2.264042110047     0.223610788197    -1.234493270044    12.000000000000
         C           -2.287082710047     0.124581888197     1.261307229956    12.000000000000
         C            2.278796289953     0.129758888197    -0.003116770044    12.000000000000
         C            1.614409289953     1.333111888197    -0.003100770044    12.000000000000
         H           -1.651502710047    -1.496413111803    -0.003158770044     1.007825032230
         H           -2.220939710047     1.215234888197    -1.296156770044     1.007825032230
         H           -3.342391710047    -0.166393111803    -1.279355770044     1.007825032230
         H           -1.808340710047    -0.272550111803    -2.167326770044     1.007825032230
         H           -1.808324710047    -0.272658111803     2.161073229956     1.007825032230
         H           -3.342382710047    -0.166459111803     1.273119229956     1.007825032230
         H           -2.220931710047     1.215169888197     1.289980229956     1.007825032230
         H            3.345536289953    -0.050519111803    -0.003117770044     1.007825032230
         H            2.095748289953     2.305177888197    -0.003084770044     1.007825032230

  Basis Set: AUG-CC-PVTZ
    Blend: AUG-CC-PVTZ
  Basis Set: (AUG-CC-PVTZ AUX)
    Blend: AUG-CC-PVTZ-JKFIT
	 Reference Energy          =    -684.5198263379888886 [Eh]
	 Singles Energy            =      -0.0000000000000000 [Eh]
	 Same-Spin Energy          =      -0.3770846920747485 [Eh]
	 Opposite-Spin Energy      =      -1.1974524523728696 [Eh]
	 Correlation Energy        =      -1.5745371444476182 [Eh]
	 Total Energy              =    -686.0943634824365063 [Eh]

	 ================> DF-SCS-MP2 Energies <==================
	-----------------------------------------------------------
	 SCS Same-Spin Scale       =       0.3333333333333333 [-]
	 SCS Opposite-Spin Scale   =       1.2000000000000000 [-]
	 SCS Same-Spin Energy      =      -0.1256948973582495 [Eh]
	 SCS Opposite-Spin Energy  =      -1.4369429428474434 [Eh]
	 SCS Correlation Energy    =      -1.5626378402056929 [Eh]
	 SCS Total Energy          =    -686.0824641781945274 [Eh]
	-----------------------------------------------------------

  Dipole Moment: [D]
     X:     0.4902      Y:    -1.1315      Z:     0.0207     Total:     1.2333

*** Psi4 exiting successfully. Buy a developer a beer!
