                               Psi4 1.4a3.dev225

  ==> Input File <==

--------------------------------------------------------------------------
#psi4
#
memory 32 gb

molecule  {
0 1
  S        1.2258560    -1.1625810    -0.0000180
  N        0.3264180     1.2510610     0.0000150
  C       -1.5198050    -0.4073720    -0.0000100
  C       -0.0728400    -0.0059560    -0.0000040
  C       -2.1605920     0.0825471    -1.1818205
  C       -2.2053680     0.1167230     1.2644280
  C        2.3605110     0.1219000     0.0000040
  C        1.6961240     1.3252530     0.0000200
  H       -1.5697880    -1.5042720    -0.0000380
  H       -2.1392250     1.2073760    -1.2930360
  H       -3.2606770    -0.1742520    -1.2762350
  H       -1.7266260    -0.2804090    -2.1642060
  H       -1.7266100    -0.2805170     2.1641940
  H       -3.2606680    -0.1743180     1.2762400
  H       -2.1392170     1.2073110     1.2931010
  H        3.4272510    -0.0583780     0.0000030
  H        2.1774630     2.2973190     0.0000360
units angstrom
no_reorient  #important for SAPT in psi4, default
symmetry c1  #important for SAPT in psi4, default
}

set PROPERTIES_ORIGIN ["COM"]
properties('MP2/aug-cc-pvtz', properties = ['dipole'])
--------------------------------------------------------------------------

    Molecular point group: c1
  Charge       = 0
  Multiplicity = 1
  Basis Set: AUG-CC-PVTZ
    Blend: AUG-CC-PVTZ
  Basis Set: (AUG-CC-PVTZ AUX)
    Blend: AUG-CC-PVTZ-JKFIT

    Orbital Energies [Eh]
    ---------------------

    Doubly Occupied:

       1A    -91.994544     2A    -15.564596     3A    -11.310582
       4A    -11.269273     5A    -11.260954     6A    -11.245381
       7A    -11.223823     8A    -11.219670     9A     -8.995157
      10A     -6.676056    11A     -6.675549    12A     -6.674834
      13A     -1.275693    14A     -1.109290    15A     -1.061781
      16A     -0.982974    17A     -0.935507    18A     -0.836804
      19A     -0.793621    20A     -0.719284    21A     -0.685406
      22A     -0.632836    23A     -0.603019    24A     -0.591099
      25A     -0.566343    26A     -0.542504    27A     -0.526045
      28A     -0.509750    29A     -0.501690    30A     -0.482765
      31A     -0.471711    32A     -0.422288    33A     -0.387197
      34A     -0.328977

  @DF-RHF Final Energy:  -684.52195569596790

   => Energetics <=

    Nuclear Repulsion Energy =            439.2871834715854789
    One-Electron Energy =               -1809.4642677004096640
    Two-Electron Energy =                 685.6551285328563381
    Total Energy =                       -684.5219556959679039
  Basis Set: (AUG-CC-PVTZ AUX)
    Blend: AUG-CC-PVTZ-RI
    Molecular point group: c1

    Geometry (in Angstrom), charge = 0, multiplicity = 1:

       Center              X                  Y                   Z               Mass
    ------------   -----------------  -----------------  -----------------  -----------------
         S            1.142088288034    -1.142140346110    -0.007819169351    31.972071174400
         N            0.242650288034     1.271501653890    -0.007786169351    14.003074004430
         C           -1.603572711966    -0.386931346110    -0.007811169351    12.000000000000
         C           -0.156607711966     0.014484653890    -0.007805169351    12.000000000000
         C           -2.244359711966     0.102987753890    -1.189621669351    12.000000000000
         C           -2.289135711966     0.137163653890     1.256626830649    12.000000000000
         C            2.276743288034     0.142340653890    -0.007797169351    12.000000000000
         C            1.612356288034     1.345693653890    -0.007781169351    12.000000000000
         H           -1.653555711966    -1.483831346110    -0.007839169351     1.007825032230
         H           -2.222992711966     1.227816653890    -1.300837169351     1.007825032230
         H           -3.344444711966    -0.153811346110    -1.284036169351     1.007825032230
         H           -1.810393711966    -0.259968346110    -2.172007169351     1.007825032230
         H           -1.810377711966    -0.260076346110     2.156392830649     1.007825032230
         H           -3.344435711966    -0.153877346110     1.268438830649     1.007825032230
         H           -2.222984711966     1.227751653890     1.285299830649     1.007825032230
         H            3.343483288034    -0.037937346110    -0.007798169351     1.007825032230
         H            2.093695288034     2.317759653890    -0.007765169351     1.007825032230

  Basis Set: AUG-CC-PVTZ
    Blend: AUG-CC-PVTZ
  Basis Set: (AUG-CC-PVTZ AUX)
    Blend: AUG-CC-PVTZ-JKFIT
	 Reference Energy          =    -684.5219556959679039 [Eh]
	 Singles Energy            =      -0.0000000000000000 [Eh]
	 Same-Spin Energy          =      -0.3779901842502318 [Eh]
	 Opposite-Spin Energy      =      -1.1981678441464536 [Eh]
	 Correlation Energy        =      -1.5761580283966854 [Eh]
	 Total Energy              =    -686.0981137243645662 [Eh]

	 ================> DF-SCS-MP2 Energies <==================
	-----------------------------------------------------------
	 SCS Same-Spin Scale       =       0.3333333333333333 [-]
	 SCS Opposite-Spin Scale   =       1.2000000000000000 [-]
	 SCS Same-Spin Energy      =      -0.1259967280834106 [Eh]
	 SCS Opposite-Spin Energy  =      -1.4378014129757444 [Eh]
	 SCS Correlation Energy    =      -1.5637981410591550 [Eh]
	 SCS Total Energy          =    -686.0857538370270277 [Eh]
	-----------------------------------------------------------

  Dipole Moment: [D]
     X:     0.5335      Y:    -1.1358      Z:     0.0133     Total:     1.2549

*** Psi4 exiting successfully. Buy a developer a beer!
