                               Psi4 1.4a3.dev225

  ==> Input File <==

--------------------------------------------------------------------------
#psi4
#
memory 32 gb

molecule  {
0 1
  S        1.2258560    -1.1625810    -0.0000180
  N        0.3264180     1.2510610     0.0000150
  C       -1.5198050    -0.4073720    -0.0000100
  C       -0.1866258    -0.1480428    -0.0000064
  C       -2.2053760     0.1167870    -1.2644160
  C       -2.2053680     0.1167230     1.2644280
  C        2.3605110     0.1219000     0.0000040
  C        1.6961240     1.3252530     0.0000200
  H       -1.5697880    -1.5042720    -0.0000380
  H       -2.1392250     1.2073760    -1.2930360
  H       -3.2606770    -0.1742520    -1.2762350
  H       -1.7266260    -0.2804090    -2.1642060
  H       -1.7266100    -0.2805170     2.1641940
  H       -3.2606680    -0.1743180     1.2762400
  H       -2.1392170     1.2073110     1.2931010
  H        3.4272510    -0.0583780     0.0000030
  H        2.1774630     2.2973190     0.0000360
units angstrom
no_reorient  #important for SAPT in psi4, default
symmetry c1  #important for SAPT in psi4, default
}

set PROPERTIES_ORIGIN ["COM"]
properties('MP2/aug-cc-pvtz', properties = ['dipole'])
--------------------------------------------------------------------------

    Molecular point group: c1
  Charge       = 0
  Multiplicity = 1
  Basis Set: AUG-CC-PVTZ
    Blend: AUG-CC-PVTZ
  Basis Set: (AUG-CC-PVTZ AUX)
    Blend: AUG-CC-PVTZ-JKFIT

    Orbital Energies [Eh]
    ---------------------

    Doubly Occupied:

       1A    -92.004460     2A    -15.566159     3A    -11.322330
       4A    -11.268634     5A    -11.256472     6A    -11.244151
       7A    -11.224673     8A    -11.224656     9A     -9.003375
      10A     -6.684190    11A     -6.683948    12A     -6.683338
      13A     -1.234314    14A     -1.121740    15A     -1.047201
      16A     -0.976556    17A     -0.941104    18A     -0.870148
      19A     -0.773405    20A     -0.717356    21A     -0.676195
      22A     -0.634009    23A     -0.609173    24A     -0.591817
      25A     -0.555074    26A     -0.545828    27A     -0.524020
      28A     -0.520187    29A     -0.497101    30A     -0.492592
      31A     -0.486530    32A     -0.404800    33A     -0.375892
      34A     -0.312696

  @DF-RHF Final Energy:  -684.48028130716023

   => Energetics <=

    Nuclear Repulsion Energy =            436.6663601716770131
    One-Electron Energy =               -1804.1450324120373807
    Two-Electron Energy =                 682.9983909332000849
    Total Energy =                       -684.4802813071602259
  Basis Set: (AUG-CC-PVTZ AUX)
    Blend: AUG-CC-PVTZ-RI
    Molecular point group: c1

    Geometry (in Angstrom), charge = 0, multiplicity = 1:

       Center              X                  Y                   Z               Mass
    ------------   -----------------  -----------------  -----------------  -----------------
         S            1.157065886962    -1.131953743025    -0.000017442802    31.972071174400
         N            0.257627886962     1.281688256975     0.000015557198    14.003074004430
         C           -1.588595113038    -0.376744743025    -0.000009442802    12.000000000000
         C           -0.255415913038    -0.117415543025    -0.000005842802    12.000000000000
         C           -2.274166113038     0.147414256975    -1.264415442802    12.000000000000
         C           -2.274158113038     0.147350256975     1.264428557198    12.000000000000
         C            2.291720886962     0.152527256975     0.000004557198    12.000000000000
         C            1.627333886962     1.355880256975     0.000020557198    12.000000000000
         H           -1.638578113038    -1.473644743025    -0.000037442802     1.007825032230
         H           -2.208015113038     1.238003256975    -1.293035442802     1.007825032230
         H           -3.329467113038    -0.143624743025    -1.276234442802     1.007825032230
         H           -1.795416113038    -0.249781743025    -2.164205442802     1.007825032230
         H           -1.795400113038    -0.249889743025     2.164194557198     1.007825032230
         H           -3.329458113038    -0.143690743025     1.276240557198     1.007825032230
         H           -2.208007113038     1.237938256975     1.293101557198     1.007825032230
         H            3.358460886962    -0.027750743025     0.000003557198     1.007825032230
         H            2.108672886962     2.327946256975     0.000036557198     1.007825032230

  Basis Set: AUG-CC-PVTZ
    Blend: AUG-CC-PVTZ
  Basis Set: (AUG-CC-PVTZ AUX)
    Blend: AUG-CC-PVTZ-JKFIT
	 Reference Energy          =    -684.4802813071602259 [Eh]
	 Singles Energy            =      -0.0000000000000000 [Eh]
	 Same-Spin Energy          =      -0.3837560437155869 [Eh]
	 Opposite-Spin Energy      =      -1.2072128911961557 [Eh]
	 Correlation Energy        =      -1.5909689349117426 [Eh]
	 Total Energy              =    -686.0712502420719829 [Eh]

	 ================> DF-SCS-MP2 Energies <==================
	-----------------------------------------------------------
	 SCS Same-Spin Scale       =       0.3333333333333333 [-]
	 SCS Opposite-Spin Scale   =       1.2000000000000000 [-]
	 SCS Same-Spin Energy      =      -0.1279186812385290 [Eh]
	 SCS Opposite-Spin Energy  =      -1.4486554694353868 [Eh]
	 SCS Correlation Energy    =      -1.5765741506739157 [Eh]
	 SCS Total Energy          =    -686.0568554578341036 [Eh]
	-----------------------------------------------------------

  Dipole Moment: [D]
     X:     0.4577      Y:    -1.2480      Z:    -0.0000     Total:     1.3293

*** Psi4 exiting successfully. Buy a developer a beer!
