                               Psi4 1.4a3.dev225

  ==> Input File <==

--------------------------------------------------------------------------
#psi4
#
memory 32 gb

molecule  {
0 1
  S        1.2258560    -1.1625810    -0.0000180
  N        0.3264180     1.2510610     0.0000150
  C       -1.5198050    -0.4073720    -0.0000100
  C       -0.0728400    -0.0059560    -0.0000040
  C       -2.2053760     0.1167870    -1.2644160
  C       -2.2053680     0.1167230     1.2644280
  C        2.3605110     0.1219000     0.0000040
  C        1.6961240     1.3252530     0.0000200
  H       -1.5697880    -1.5042720    -0.0000380
  H       -2.1392250     1.2073760    -1.2930360
  H       -3.1642815    -0.1476673    -1.2751554
  H       -1.7266260    -0.2804090    -2.1642060
  H       -1.7266100    -0.2805170     2.1641940
  H       -3.2606680    -0.1743180     1.2762400
  H       -2.1392170     1.2073110     1.2931010
  H        3.4272510    -0.0583780     0.0000030
  H        2.1774630     2.2973190     0.0000360
units angstrom
no_reorient  #important for SAPT in psi4, default
symmetry c1  #important for SAPT in psi4, default
}

set PROPERTIES_ORIGIN ["COM"]
properties('MP2/aug-cc-pvtz', properties = ['dipole'])
--------------------------------------------------------------------------

    Molecular point group: c1
  Charge       = 0
  Multiplicity = 1
  Basis Set: AUG-CC-PVTZ
    Blend: AUG-CC-PVTZ
  Basis Set: (AUG-CC-PVTZ AUX)
    Blend: AUG-CC-PVTZ-JKFIT

    Orbital Energies [Eh]
    ---------------------

    Doubly Occupied:

       1A    -91.993378     2A    -15.563183     3A    -11.309357
       4A    -11.268393     5A    -11.259822     6A    -11.248625
       7A    -11.219384     8A    -11.206790     9A     -8.994024
      10A     -6.674926    11A     -6.674416    12A     -6.673702
      13A     -1.274065    14A     -1.095716    15A     -1.060624
      16A     -0.982107    17A     -0.942031    18A     -0.843853
      19A     -0.792090    20A     -0.716278    21A     -0.682896
      22A     -0.626961    23A     -0.605600    24A     -0.590999
      25A     -0.566847    26A     -0.545594    27A     -0.537572
      28A     -0.503698    29A     -0.502586    30A     -0.486712
      31A     -0.482597    32A     -0.421562    33A     -0.386373
      34A     -0.327308

  @DF-RHF Final Energy:  -684.52769162307129

   => Energetics <=

    Nuclear Repulsion Energy =            438.0284093277792294
    One-Electron Energy =               -1806.9920620004966167
    Two-Electron Energy =                 684.4359610496461528
    Total Energy =                       -684.5276916230712914
  Basis Set: (AUG-CC-PVTZ AUX)
    Blend: AUG-CC-PVTZ-RI
    Molecular point group: c1

    Geometry (in Angstrom), charge = 0, multiplicity = 1:

       Center              X                  Y                   Z               Mass
    ------------   -----------------  -----------------  -----------------  -----------------
         S            1.145553644602    -1.145585342456    -0.000026233726    31.972071174400
         N            0.246115644602     1.268056657544     0.000006766274    14.003074004430
         C           -1.600107355398    -0.390376342456    -0.000018233726    12.000000000000
         C           -0.153142355398     0.011039657544    -0.000012233726    12.000000000000
         C           -2.285678355398     0.133782657544    -1.264424233726    12.000000000000
         C           -2.285670355398     0.133718657544     1.264419766274    12.000000000000
         C            2.280208644602     0.138895657544    -0.000004233726    12.000000000000
         C            1.615821644602     1.342248657544     0.000011766274    12.000000000000
         H           -1.650090355398    -1.487276342456    -0.000046233726     1.007825032230
         H           -2.219527355398     1.224371657544    -1.293044233726     1.007825032230
         H           -3.244583855398    -0.130671642456    -1.275163633726     1.007825032230
         H           -1.806928355398    -0.263413342456    -2.164214233726     1.007825032230
         H           -1.806912355398    -0.263521342456     2.164185766274     1.007825032230
         H           -3.340970355398    -0.157322342456     1.276231766274     1.007825032230
         H           -2.219519355398     1.224306657544     1.293092766274     1.007825032230
         H            3.346948644602    -0.041382342456    -0.000005233726     1.007825032230
         H            2.097160644602     2.314314657544     0.000027766274     1.007825032230

  Basis Set: AUG-CC-PVTZ
    Blend: AUG-CC-PVTZ
  Basis Set: (AUG-CC-PVTZ AUX)
    Blend: AUG-CC-PVTZ-JKFIT
	 Reference Energy          =    -684.5276916230712914 [Eh]
	 Singles Energy            =      -0.0000000000000000 [Eh]
	 Same-Spin Energy          =      -0.3769008401650811 [Eh]
	 Opposite-Spin Energy      =      -1.1962978272940594 [Eh]
	 Correlation Energy        =      -1.5731986674591405 [Eh]
	 Total Energy              =    -686.1008902905304012 [Eh]

	 ================> DF-SCS-MP2 Energies <==================
	-----------------------------------------------------------
	 SCS Same-Spin Scale       =       0.3333333333333333 [-]
	 SCS Opposite-Spin Scale   =       1.2000000000000000 [-]
	 SCS Same-Spin Energy      =      -0.1256336133883604 [Eh]
	 SCS Opposite-Spin Energy  =      -1.4355573927528713 [Eh]
	 SCS Correlation Energy    =      -1.5611910061412317 [Eh]
	 SCS Total Energy          =    -686.0888826292125486 [Eh]
	-----------------------------------------------------------

  Dipole Moment: [D]
     X:     0.4182      Y:    -1.1546      Z:    -0.0151     Total:     1.2281

*** Psi4 exiting successfully. Buy a developer a beer!
