                               Psi4 1.4a3.dev225

  ==> Input File <==

--------------------------------------------------------------------------
#psi4
#
memory 32 gb

molecule  {
0 1
  S        1.2258560    -1.1625810    -0.0000180
  N        0.3264180     1.2510610     0.0000150
  C       -1.5198050    -0.4073720    -0.0000100
  C       -0.0728400    -0.0059560    -0.0000040
  C       -2.2277680     0.1339070    -1.3057138
  C       -2.2053680     0.1167230     1.2644280
  C        2.3605110     0.1219000     0.0000040
  C        1.6961240     1.3252530     0.0000200
  H       -1.5697880    -1.5042720    -0.0000380
  H       -2.1392250     1.2073760    -1.2930360
  H       -3.2606770    -0.1742520    -1.2762350
  H       -1.7266260    -0.2804090    -2.1642060
  H       -1.7266100    -0.2805170     2.1641940
  H       -3.2606680    -0.1743180     1.2762400
  H       -2.1392170     1.2073110     1.2931010
  H        3.4272510    -0.0583780     0.0000030
  H        2.1774630     2.2973190     0.0000360
units angstrom
no_reorient  #important for SAPT in psi4, default
symmetry c1  #important for SAPT in psi4, default
}

set PROPERTIES_ORIGIN ["COM"]
properties('MP2/aug-cc-pvtz', properties = ['dipole'])
--------------------------------------------------------------------------

    Molecular point group: c1
  Charge       = 0
  Multiplicity = 1
  Basis Set: AUG-CC-PVTZ
    Blend: AUG-CC-PVTZ
  Basis Set: (AUG-CC-PVTZ AUX)
    Blend: AUG-CC-PVTZ-JKFIT

    Orbital Energies [Eh]
    ---------------------

    Doubly Occupied:

       1A    -91.993691     2A    -15.563562     3A    -11.309811
       4A    -11.268700     5A    -11.260164     6A    -11.251047
       7A    -11.219269     8A    -11.218184     9A     -8.994341
      10A     -6.675242    11A     -6.674732    12A     -6.674018
      13A     -1.274277    14A     -1.088913    15A     -1.060892
      16A     -0.979959    17A     -0.936530    18A     -0.841264
      19A     -0.792237    20A     -0.715449    21A     -0.682134
      22A     -0.623259    23A     -0.601946    24A     -0.585197
      25A     -0.568008    26A     -0.549046    27A     -0.534869
      28A     -0.504341    29A     -0.501678    30A     -0.488560
      31A     -0.476322    32A     -0.421504    33A     -0.386667
      34A     -0.327110

  @DF-RHF Final Energy:  -684.53210437683185

   => Energetics <=

    Nuclear Repulsion Energy =            436.6917050864439602
    One-Electron Energy =               -1804.3617688060846831
    Two-Electron Energy =                 683.1379593428088128
    Total Energy =                       -684.5321043768318532
  Basis Set: (AUG-CC-PVTZ AUX)
    Blend: AUG-CC-PVTZ-RI
    Molecular point group: c1

    Geometry (in Angstrom), charge = 0, multiplicity = 1:

       Center              X                  Y                   Z               Mass
    ------------   -----------------  -----------------  -----------------  -----------------
         S            1.148433349865    -1.146991509340     0.003883085159    31.972071174400
         N            0.248995349865     1.266650490660     0.003916085159    14.003074004430
         C           -1.597227650135    -0.391782509340     0.003891085159    12.000000000000
         C           -0.150262650135     0.009633490660     0.003897085159    12.000000000000
         C           -2.305190650135     0.149496490660    -1.301812714841    12.000000000000
         C           -2.282790650135     0.132312490660     1.268329085159    12.000000000000
         C            2.283088349865     0.137489490660     0.003905085159    12.000000000000
         C            1.618701349865     1.340842490660     0.003921085159    12.000000000000
         H           -1.647210650135    -1.488682509340     0.003863085159     1.007825032230
         H           -2.216647650135     1.222965490660    -1.289134914841     1.007825032230
         H           -3.338099650135    -0.158662509340    -1.272333914841     1.007825032230
         H           -1.804048650135    -0.264819509340    -2.160304914841     1.007825032230
         H           -1.804032650135    -0.264927509340     2.168095085159     1.007825032230
         H           -3.338090650135    -0.158728509340     1.280141085159     1.007825032230
         H           -2.216639650135     1.222900490660     1.297002085159     1.007825032230
         H            3.349828349865    -0.042788509340     0.003904085159     1.007825032230
         H            2.100040349865     2.312908490660     0.003937085159     1.007825032230

  Basis Set: AUG-CC-PVTZ
    Blend: AUG-CC-PVTZ
  Basis Set: (AUG-CC-PVTZ AUX)
    Blend: AUG-CC-PVTZ-JKFIT
	 Reference Energy          =    -684.5321043768318532 [Eh]
	 Singles Energy            =      -0.0000000000000000 [Eh]
	 Same-Spin Energy          =      -0.3766386156041887 [Eh]
	 Opposite-Spin Energy      =      -1.1966256620316240 [Eh]
	 Correlation Energy        =      -1.5732642776358126 [Eh]
	 Total Energy              =    -686.1053686544676111 [Eh]

	 ================> DF-SCS-MP2 Energies <==================
	-----------------------------------------------------------
	 SCS Same-Spin Scale       =       0.3333333333333333 [-]
	 SCS Opposite-Spin Scale   =       1.2000000000000000 [-]
	 SCS Same-Spin Energy      =      -0.1255462052013962 [Eh]
	 SCS Opposite-Spin Energy  =      -1.4359507944379488 [Eh]
	 SCS Correlation Energy    =      -1.5614969996393451 [Eh]
	 SCS Total Energy          =    -686.0936013764711561 [Eh]
	-----------------------------------------------------------

  Dipole Moment: [D]
     X:     0.4797      Y:    -1.1506      Z:     0.0015     Total:     1.2466

*** Psi4 exiting successfully. Buy a developer a beer!
