                               Psi4 1.4a3.dev225

  ==> Input File <==

--------------------------------------------------------------------------
#psi4
#
memory 32 gb

molecule  {
0 1
  S        1.2258560    -1.1625810    -0.0000180
  N        0.3264180     1.2510610     0.0000150
  C       -1.5198050    -0.4073720    -0.0000100
  C        0.0110056     0.0818190    -0.0000025
  C       -2.2053760     0.1167870    -1.2644160
  C       -2.2053680     0.1167230     1.2644280
  C        2.3605110     0.1219000     0.0000040
  C        1.6961240     1.3252530     0.0000200
  H       -1.5697880    -1.5042720    -0.0000380
  H       -2.1392250     1.2073760    -1.2930360
  H       -3.2606770    -0.1742520    -1.2762350
  H       -1.7266260    -0.2804090    -2.1642060
  H       -1.7266100    -0.2805170     2.1641940
  H       -3.2606680    -0.1743180     1.2762400
  H       -2.1392170     1.2073110     1.2931010
  H        3.4272510    -0.0583780     0.0000030
  H        2.1774630     2.2973190     0.0000360
units angstrom
no_reorient  #important for SAPT in psi4, default
symmetry c1  #important for SAPT in psi4, default
}

set PROPERTIES_ORIGIN ["COM"]
properties('MP2/aug-cc-pvtz', properties = ['dipole'])
--------------------------------------------------------------------------

    Molecular point group: c1
  Charge       = 0
  Multiplicity = 1
  Basis Set: AUG-CC-PVTZ
    Blend: AUG-CC-PVTZ
  Basis Set: (AUG-CC-PVTZ AUX)
    Blend: AUG-CC-PVTZ-JKFIT

    Orbital Energies [Eh]
    ---------------------

    Doubly Occupied:

       1A    -91.988353     2A    -15.558501     3A    -11.299539
       4A    -11.270056     5A    -11.262864     6A    -11.250152
       7A    -11.216243     8A    -11.216228     9A     -8.989889
      10A     -6.670823    11A     -6.670146    12A     -6.669355
      13A     -1.315537    14A     -1.081259    15A     -1.072360
      16A     -0.981102    17A     -0.932291    18A     -0.820862
      19A     -0.805094    20A     -0.716029    21A     -0.687970
      22A     -0.619862    23A     -0.599097    24A     -0.592029
      25A     -0.571831    26A     -0.548186    27A     -0.533696
      28A     -0.507565    29A     -0.495026    30A     -0.483540
      31A     -0.479810    32A     -0.414037    33A     -0.400193
      34A     -0.332698

  @DF-RHF Final Energy:  -684.52123064025318

   => Energetics <=

    Nuclear Repulsion Energy =            438.4219689885325693
    One-Electron Energy =               -1807.7819537085440516
    Two-Electron Energy =                 684.8387540797582460
    Total Energy =                       -684.5212306402531794
  Basis Set: (AUG-CC-PVTZ AUX)
    Blend: AUG-CC-PVTZ-RI
    Molecular point group: c1

    Geometry (in Angstrom), charge = 0, multiplicity = 1:

       Center              X                  Y                   Z               Mass
    ------------   -----------------  -----------------  -----------------  -----------------
         S            1.138398752080    -1.153665177669    -0.000017811174    31.972071174400
         N            0.238960752080     1.259976822331     0.000015188826    14.003074004430
         C           -1.607262247920    -0.398456177669    -0.000009811174    12.000000000000
         C           -0.076451647920     0.090734822331    -0.000002311174    12.000000000000
         C           -2.292833247920     0.125702822331    -1.264415811174    12.000000000000
         C           -2.292825247920     0.125638822331     1.264428188826    12.000000000000
         C            2.273053752080     0.130815822331     0.000004188826    12.000000000000
         C            1.608666752080     1.334168822331     0.000020188826    12.000000000000
         H           -1.657245247920    -1.495356177669    -0.000037811174     1.007825032230
         H           -2.226682247920     1.216291822331    -1.293035811174     1.007825032230
         H           -3.348134247920    -0.165336177669    -1.276234811174     1.007825032230
         H           -1.814083247920    -0.271493177669    -2.164205811174     1.007825032230
         H           -1.814067247920    -0.271601177669     2.164194188826     1.007825032230
         H           -3.348125247920    -0.165402177669     1.276240188826     1.007825032230
         H           -2.226674247920     1.216226822331     1.293101188826     1.007825032230
         H            3.339793752080    -0.049462177669     0.000003188826     1.007825032230
         H            2.090005752080     2.306234822331     0.000036188826     1.007825032230

  Basis Set: AUG-CC-PVTZ
    Blend: AUG-CC-PVTZ
  Basis Set: (AUG-CC-PVTZ AUX)
    Blend: AUG-CC-PVTZ-JKFIT
	 Reference Energy          =    -684.5212306402531794 [Eh]
	 Singles Energy            =      -0.0000000000000000 [Eh]
	 Same-Spin Energy          =      -0.3738267742411475 [Eh]
	 Opposite-Spin Energy      =      -1.1929442021626586 [Eh]
	 Correlation Energy        =      -1.5667709764038062 [Eh]
	 Total Energy              =    -686.0880016166570385 [Eh]

	 ================> DF-SCS-MP2 Energies <==================
	-----------------------------------------------------------
	 SCS Same-Spin Scale       =       0.3333333333333333 [-]
	 SCS Opposite-Spin Scale   =       1.2000000000000000 [-]
	 SCS Same-Spin Energy      =      -0.1246089247470492 [Eh]
	 SCS Opposite-Spin Energy  =      -1.4315330425951902 [Eh]
	 SCS Correlation Energy    =      -1.5561419673422394 [Eh]
	 SCS Total Energy          =    -686.0773726075954073 [Eh]
	-----------------------------------------------------------

  Dipole Moment: [D]
     X:     0.5583      Y:    -1.0120      Z:    -0.0000     Total:     1.1558

*** Psi4 exiting successfully. Buy a developer a beer!
