                               Psi4 1.4a3.dev225

  ==> Input File <==

--------------------------------------------------------------------------
#psi4
#
memory 32 gb

molecule  {
0 1
  S        1.2258560    -1.1625810    -0.0000180
  N        0.3264180     1.2510610     0.0000150
  C       -1.5139217    -0.3822510    -0.0069502
  C       -0.0728400    -0.0059560    -0.0000040
  C       -2.2053760     0.1167870    -1.2644160
  C       -2.2053680     0.1167230     1.2644280
  C        2.3605110     0.1219000     0.0000040
  C        1.6961240     1.3252530     0.0000200
  H       -1.5697880    -1.5042720    -0.0000380
  H       -2.1392250     1.2073760    -1.2930360
  H       -3.2606770    -0.1742520    -1.2762350
  H       -1.7266260    -0.2804090    -2.1642060
  H       -1.7266100    -0.2805170     2.1641940
  H       -3.2606680    -0.1743180     1.2762400
  H       -2.1392170     1.2073110     1.2931010
  H        3.4272510    -0.0583780     0.0000030
  H        2.1774630     2.2973190     0.0000360
units angstrom
no_reorient  #important for SAPT in psi4, default
symmetry c1  #important for SAPT in psi4, default
}

set PROPERTIES_ORIGIN ["COM"]
properties('MP2/aug-cc-pvtz', properties = ['dipole'])
--------------------------------------------------------------------------

    Molecular point group: c1
  Charge       = 0
  Multiplicity = 1
  Basis Set: AUG-CC-PVTZ
    Blend: AUG-CC-PVTZ
  Basis Set: (AUG-CC-PVTZ AUX)
    Blend: AUG-CC-PVTZ-JKFIT

    Orbital Energies [Eh]
    ---------------------

    Doubly Occupied:

       1A    -91.994711     2A    -15.563943     3A    -11.309500
       4A    -11.268967     5A    -11.260812     6A    -11.249850
       7A    -11.219364     8A    -11.218900     9A     -8.995282
      10A     -6.676176    11A     -6.675678    12A     -6.674957
      13A     -1.275307    14A     -1.096190    15A     -1.061499
      16A     -0.981538    17A     -0.936826    18A     -0.840523
      19A     -0.792636    20A     -0.715193    21A     -0.682371
      22A     -0.626208    23A     -0.602191    24A     -0.588258
      25A     -0.567093    26A     -0.544825    27A     -0.531781
      28A     -0.503763    29A     -0.502262    30A     -0.489696
      31A     -0.475860    32A     -0.422947    33A     -0.387137
      34A     -0.328206

  @DF-RHF Final Energy:  -684.53244681217438

   => Energetics <=

    Nuclear Repulsion Energy =            437.7944387520387863
    One-Electron Energy =               -1806.5328727532398716
    Two-Electron Energy =                 684.2059871890267004
    Total Energy =                       -684.5324468121743848
  Basis Set: (AUG-CC-PVTZ AUX)
    Blend: AUG-CC-PVTZ-RI
    Molecular point group: c1

    Geometry (in Angstrom), charge = 0, multiplicity = 1:

       Center              X                  Y                   Z               Mass
    ------------   -----------------  -----------------  -----------------  -----------------
         S            1.145762626291    -1.147747238167     0.000637862217    31.972071174400
         N            0.246324626291     1.265894761833     0.000670862217    14.003074004430
         C           -1.594015073709    -0.367417238167    -0.006294337783    12.000000000000
         C           -0.152933373709     0.008877761833     0.000651862217    12.000000000000
         C           -2.285469373709     0.131620761833    -1.263760137783    12.000000000000
         C           -2.285461373709     0.131556761833     1.265083862217    12.000000000000
         C            2.280417626291     0.136733761833     0.000659862217    12.000000000000
         C            1.616030626291     1.340086761833     0.000675862217    12.000000000000
         H           -1.649881373709    -1.489438238167     0.000617862217     1.007825032230
         H           -2.219318373709     1.222209761833    -1.292380137783     1.007825032230
         H           -3.340770373709    -0.159418238167    -1.275579137783     1.007825032230
         H           -1.806719373709    -0.265575238167    -2.163550137783     1.007825032230
         H           -1.806703373709    -0.265683238167     2.164849862217     1.007825032230
         H           -3.340761373709    -0.159484238167     1.276895862217     1.007825032230
         H           -2.219310373709     1.222144761833     1.293756862217     1.007825032230
         H            3.347157626291    -0.043544238167     0.000658862217     1.007825032230
         H            2.097369626291     2.312152761833     0.000691862217     1.007825032230

  Basis Set: AUG-CC-PVTZ
    Blend: AUG-CC-PVTZ
  Basis Set: (AUG-CC-PVTZ AUX)
    Blend: AUG-CC-PVTZ-JKFIT
	 Reference Energy          =    -684.5324468121743848 [Eh]
	 Singles Energy            =      -0.0000000000000000 [Eh]
	 Same-Spin Energy          =      -0.3770667772074749 [Eh]
	 Opposite-Spin Energy      =      -1.1970802380467092 [Eh]
	 Correlation Energy        =      -1.5741470152541841 [Eh]
	 Total Energy              =    -686.1065938274285827 [Eh]

	 ================> DF-SCS-MP2 Energies <==================
	-----------------------------------------------------------
	 SCS Same-Spin Scale       =       0.3333333333333333 [-]
	 SCS Opposite-Spin Scale   =       1.2000000000000000 [-]
	 SCS Same-Spin Energy      =      -0.1256889257358250 [Eh]
	 SCS Opposite-Spin Energy  =      -1.4364962856560510 [Eh]
	 SCS Correlation Energy    =      -1.5621852113918759 [Eh]
	 SCS Total Energy          =    -686.0946320235663052 [Eh]
	-----------------------------------------------------------

  Dipole Moment: [D]
     X:     0.5157      Y:    -1.1328      Z:    -0.0049     Total:     1.2447

*** Psi4 exiting successfully. Buy a developer a beer!
