                               Psi4 1.4a3.dev225

  ==> Input File <==

--------------------------------------------------------------------------
#psi4
#
memory 32 gb

molecule  {
0 1
  S        1.2258560    -1.1625810    -0.0000180
  N        0.3264180     1.2510610     0.0000150
  C       -1.5198050    -0.4073720    -0.0000100
  C       -0.0607045    -0.0804739     0.1378522
  C       -2.2053760     0.1167870    -1.2644160
  C       -2.2053680     0.1167230     1.2644280
  C        2.3605110     0.1219000     0.0000040
  C        1.6961240     1.3252530     0.0000200
  H       -1.5697880    -1.5042720    -0.0000380
  H       -2.1392250     1.2073760    -1.2930360
  H       -3.2606770    -0.1742520    -1.2762350
  H       -1.7266260    -0.2804090    -2.1642060
  H       -1.7266100    -0.2805170     2.1641940
  H       -3.2606680    -0.1743180     1.2762400
  H       -2.1392170     1.2073110     1.2931010
  H        3.4272510    -0.0583780     0.0000030
  H        2.1774630     2.2973190     0.0000360
units angstrom
no_reorient  #important for SAPT in psi4, default
symmetry c1  #important for SAPT in psi4, default
}

set PROPERTIES_ORIGIN ["COM"]
properties('MP2/aug-cc-pvtz', properties = ['dipole'])
--------------------------------------------------------------------------

    Molecular point group: c1
  Charge       = 0
  Multiplicity = 1
  Basis Set: AUG-CC-PVTZ
    Blend: AUG-CC-PVTZ
  Basis Set: (AUG-CC-PVTZ AUX)
    Blend: AUG-CC-PVTZ-JKFIT

    Orbital Energies [Eh]
    ---------------------

    Doubly Occupied:

       1A    -92.001456     2A    -15.566759     3A    -11.312021
       4A    -11.269325     5A    -11.258524     6A    -11.249248
       7A    -11.219918     8A    -11.217338     9A     -9.002422
      10A     -6.683367    11A     -6.682824    12A     -6.682162
      13A     -1.258272    14A     -1.093514    15A     -1.061754
      16A     -0.982002    17A     -0.934810    18A     -0.840915
      19A     -0.783992    20A     -0.720405    21A     -0.679682
      22A     -0.625085    23A     -0.597939    24A     -0.583929
      25A     -0.562977    26A     -0.543626    27A     -0.531202
      28A     -0.506030    29A     -0.497999    30A     -0.484565
      31A     -0.479202    32A     -0.427596    33A     -0.381375
      34A     -0.326536

  @DF-RHF Final Energy:  -684.51680184464499

   => Energetics <=

    Nuclear Repulsion Energy =            437.2664292501667092
    One-Electron Energy =               -1805.4689244782582591
    Two-Electron Energy =                 683.6856933834465053
    Total Energy =                       -684.5168018446449878
  Basis Set: (AUG-CC-PVTZ AUX)
    Blend: AUG-CC-PVTZ-RI
    Molecular point group: c1

    Geometry (in Angstrom), charge = 0, multiplicity = 1:

       Center              X                  Y                   Z               Mass
    ------------   -----------------  -----------------  -----------------  -----------------
         S            1.145172079138    -1.138335915950    -0.013038779901    31.972071174400
         N            0.245734079138     1.275306084050    -0.013005779901    14.003074004430
         C           -1.600488920862    -0.383126915950    -0.013030779901    12.000000000000
         C           -0.141388420862    -0.056228815950     0.124831420099    12.000000000000
         C           -2.286059920862     0.141032084050    -1.277436779901    12.000000000000
         C           -2.286051920862     0.140968084050     1.251407220099    12.000000000000
         C            2.279827079138     0.146145084050    -0.013016779901    12.000000000000
         C            1.615440079138     1.349498084050    -0.013000779901    12.000000000000
         H           -1.650471920862    -1.480026915950    -0.013058779901     1.007825032230
         H           -2.219908920862     1.231621084050    -1.306056779901     1.007825032230
         H           -3.341360920862    -0.150006915950    -1.289255779901     1.007825032230
         H           -1.807309920862    -0.256163915950    -2.177226779901     1.007825032230
         H           -1.807293920862    -0.256271915950     2.151173220099     1.007825032230
         H           -3.341351920862    -0.150072915950     1.263219220099     1.007825032230
         H           -2.219900920862     1.231556084050     1.280080220099     1.007825032230
         H            3.346567079138    -0.034132915950    -0.013017779901     1.007825032230
         H            2.096779079138     2.321564084050    -0.012984779901     1.007825032230

  Basis Set: AUG-CC-PVTZ
    Blend: AUG-CC-PVTZ
  Basis Set: (AUG-CC-PVTZ AUX)
    Blend: AUG-CC-PVTZ-JKFIT
	 Reference Energy          =    -684.5168018446449878 [Eh]
	 Singles Energy            =      -0.0000000000000000 [Eh]
	 Same-Spin Energy          =      -0.3794070289031604 [Eh]
	 Opposite-Spin Energy      =      -1.2006189627755597 [Eh]
	 Correlation Energy        =      -1.5800259916787200 [Eh]
	 Total Energy              =    -686.0968278363236550 [Eh]

	 ================> DF-SCS-MP2 Energies <==================
	-----------------------------------------------------------
	 SCS Same-Spin Scale       =       0.3333333333333333 [-]
	 SCS Opposite-Spin Scale   =       1.2000000000000000 [-]
	 SCS Same-Spin Energy      =      -0.1264690096343868 [Eh]
	 SCS Opposite-Spin Energy  =      -1.4407427553306715 [Eh]
	 SCS Correlation Energy    =      -1.5672117649650583 [Eh]
	 SCS Total Energy          =    -686.0840136096099968 [Eh]
	-----------------------------------------------------------

  Dipole Moment: [D]
     X:     0.7077      Y:    -1.2706      Z:    -0.1031     Total:     1.4581

*** Psi4 exiting successfully. Buy a developer a beer!
