                               Psi4 1.4a3.dev225

  ==> Input File <==

--------------------------------------------------------------------------
#psi4
#
memory 32 gb

molecule  {
0 1
  S        1.2258560    -1.1625810    -0.0000180
  N        0.3264180     1.2510610     0.0000150
  C       -1.5198050    -0.4073720    -0.0000100
  C       -0.0728400    -0.0059560    -0.0000040
  C       -2.1695850     0.2641255    -1.2125898
  C       -2.2053680     0.1167230     1.2644280
  C        2.3605110     0.1219000     0.0000040
  C        1.6961240     1.3252530     0.0000200
  H       -1.5697880    -1.5042720    -0.0000380
  H       -2.1392250     1.2073760    -1.2930360
  H       -3.2606770    -0.1742520    -1.2762350
  H       -1.7266260    -0.2804090    -2.1642060
  H       -1.7266100    -0.2805170     2.1641940
  H       -3.2606680    -0.1743180     1.2762400
  H       -2.1392170     1.2073110     1.2931010
  H        3.4272510    -0.0583780     0.0000030
  H        2.1774630     2.2973190     0.0000360
units angstrom
no_reorient  #important for SAPT in psi4, default
symmetry c1  #important for SAPT in psi4, default
}

set PROPERTIES_ORIGIN ["COM"]
properties('MP2/aug-cc-pvtz', properties = ['dipole'])
--------------------------------------------------------------------------

    Molecular point group: c1
  Charge       = 0
  Multiplicity = 1
  Basis Set: AUG-CC-PVTZ
    Blend: AUG-CC-PVTZ
  Basis Set: (AUG-CC-PVTZ AUX)
    Blend: AUG-CC-PVTZ-JKFIT

    Orbital Energies [Eh]
    ---------------------

    Doubly Occupied:

       1A    -91.993771     2A    -15.563507     3A    -11.310129
       4A    -11.269105     5A    -11.260072     6A    -11.252175
       7A    -11.224009     8A    -11.218968     9A     -8.994454
      10A     -6.675363    11A     -6.674849    12A     -6.674137
      13A     -1.275035    14A     -1.097607    15A     -1.061154
      16A     -0.981229    17A     -0.936845    18A     -0.844700
      19A     -0.793107    20A     -0.719771    21A     -0.685762
      22A     -0.624820    23A     -0.607527    24A     -0.584947
      25A     -0.571233    26A     -0.562373    27A     -0.522892
      28A     -0.509079    29A     -0.496319    30A     -0.485435
      31A     -0.464735    32A     -0.422059    33A     -0.386960
      34A     -0.326913

  @DF-RHF Final Energy:  -684.50108238266068

   => Energetics <=

    Nuclear Repulsion Energy =            438.2462393299222754
    One-Electron Energy =               -1807.3525553420354299
    Two-Electron Energy =                 684.6052336294525276
    Total Energy =                       -684.5010823826606838
  Basis Set: (AUG-CC-PVTZ AUX)
    Blend: AUG-CC-PVTZ-RI
    Molecular point group: c1

    Geometry (in Angstrom), charge = 0, multiplicity = 1:

       Center              X                  Y                   Z               Mass
    ------------   -----------------  -----------------  -----------------  -----------------
         S            1.142937715524    -1.159291206167    -0.004912876761    31.972071174400
         N            0.243499715524     1.254350793833    -0.004879876761    14.003074004430
         C           -1.602723284476    -0.404082206167    -0.004904876761    12.000000000000
         C           -0.155758284476    -0.002666206167    -0.004898876761    12.000000000000
         C           -2.252503284476     0.267415293833    -1.217484676761    12.000000000000
         C           -2.288286284476     0.120012793833     1.259533123239    12.000000000000
         C            2.277592715524     0.125189793833    -0.004890876761    12.000000000000
         C            1.613205715524     1.328542793833    -0.004874876761    12.000000000000
         H           -1.652706284476    -1.500982206167    -0.004932876761     1.007825032230
         H           -2.222143284476     1.210665793833    -1.297930876761     1.007825032230
         H           -3.343595284476    -0.170962206167    -1.281129876761     1.007825032230
         H           -1.809544284476    -0.277119206167    -2.169100876761     1.007825032230
         H           -1.809528284476    -0.277227206167     2.159299123239     1.007825032230
         H           -3.343586284476    -0.171028206167     1.271345123239     1.007825032230
         H           -2.222135284476     1.210600793833     1.288206123239     1.007825032230
         H            3.344332715524    -0.055088206167    -0.004891876761     1.007825032230
         H            2.094544715524     2.300608793833    -0.004858876761     1.007825032230

  Basis Set: AUG-CC-PVTZ
    Blend: AUG-CC-PVTZ
  Basis Set: (AUG-CC-PVTZ AUX)
    Blend: AUG-CC-PVTZ-JKFIT
	 Reference Energy          =    -684.5010823826606838 [Eh]
	 Singles Energy            =      -0.0000000000000000 [Eh]
	 Same-Spin Energy          =      -0.3773487129485400 [Eh]
	 Opposite-Spin Energy      =      -1.1982837755227005 [Eh]
	 Correlation Energy        =      -1.5756324884712405 [Eh]
	 Total Energy              =    -686.0767148711319123 [Eh]

	 ================> DF-SCS-MP2 Energies <==================
	-----------------------------------------------------------
	 SCS Same-Spin Scale       =       0.3333333333333333 [-]
	 SCS Opposite-Spin Scale   =       1.2000000000000000 [-]
	 SCS Same-Spin Energy      =      -0.1257829043161800 [Eh]
	 SCS Opposite-Spin Energy  =      -1.4379405306272406 [Eh]
	 SCS Correlation Energy    =      -1.5637234349434206 [Eh]
	 SCS Total Energy          =    -686.0648058176041104 [Eh]
	-----------------------------------------------------------

  Dipole Moment: [D]
     X:     0.4975      Y:    -1.1345      Z:     0.0432     Total:     1.2395

*** Psi4 exiting successfully. Buy a developer a beer!
