                               Psi4 1.4a3.dev225

  ==> Input File <==

--------------------------------------------------------------------------
#psi4
#
memory 32 gb

molecule  {
0 1
  S        1.2258560    -1.1625810    -0.0000180
  N        0.3264180     1.2510610     0.0000150
  C       -1.4859646    -0.4348758    -0.0308893
  C       -0.0728400    -0.0059560    -0.0000040
  C       -2.2053760     0.1167870    -1.2644160
  C       -2.2053680     0.1167230     1.2644280
  C        2.3605110     0.1219000     0.0000040
  C        1.6961240     1.3252530     0.0000200
  H       -1.5697880    -1.5042720    -0.0000380
  H       -2.1392250     1.2073760    -1.2930360
  H       -3.2606770    -0.1742520    -1.2762350
  H       -1.7266260    -0.2804090    -2.1642060
  H       -1.7266100    -0.2805170     2.1641940
  H       -3.2606680    -0.1743180     1.2762400
  H       -2.1392170     1.2073110     1.2931010
  H        3.4272510    -0.0583780     0.0000030
  H        2.1774630     2.2973190     0.0000360
units angstrom
no_reorient  #important for SAPT in psi4, default
symmetry c1  #important for SAPT in psi4, default
}

set PROPERTIES_ORIGIN ["COM"]
properties('MP2/aug-cc-pvtz', properties = ['dipole'])
--------------------------------------------------------------------------

    Molecular point group: c1
  Charge       = 0
  Multiplicity = 1
  Basis Set: AUG-CC-PVTZ
    Blend: AUG-CC-PVTZ
  Basis Set: (AUG-CC-PVTZ AUX)
    Blend: AUG-CC-PVTZ-JKFIT

    Orbital Energies [Eh]
    ---------------------

    Doubly Occupied:

       1A    -91.993303     2A    -15.564296     3A    -11.310095
       4A    -11.269136     5A    -11.260290     6A    -11.248067
       7A    -11.221379     8A    -11.219599     9A     -8.994052
      10A     -6.674958    11A     -6.674426    12A     -6.673722
      13A     -1.275316    14A     -1.093214    15A     -1.061399
      16A     -0.980052    17A     -0.931700    18A     -0.845672
      19A     -0.793630    20A     -0.718084    21A     -0.684831
      22A     -0.622706    23A     -0.600560    24A     -0.586865
      25A     -0.567366    26A     -0.544854    27A     -0.530859
      28A     -0.507540    29A     -0.503491    30A     -0.489945
      31A     -0.474254    32A     -0.421952    33A     -0.386832
      34A     -0.326759

  @DF-RHF Final Energy:  -684.53113464032765

   => Energetics <=

    Nuclear Repulsion Energy =            437.6664971832818765
    One-Electron Energy =               -1806.2928613065807895
    Two-Electron Energy =                 684.0952294829713765
    Total Energy =                       -684.5311346403276502
  Basis Set: (AUG-CC-PVTZ AUX)
    Blend: AUG-CC-PVTZ-RI
    Molecular point group: c1

    Geometry (in Angstrom), charge = 0, multiplicity = 1:

       Center              X                  Y                   Z               Mass
    ------------   -----------------  -----------------  -----------------  -----------------
         S            1.143121958075    -1.142776599697     0.002899013070    31.972071174400
         N            0.243683958075     1.270865400303     0.002932013070    14.003074004430
         C           -1.568698641925    -0.415071399697    -0.027972286930    12.000000000000
         C           -0.155574041925     0.013848400303     0.002913013070    12.000000000000
         C           -2.288110041925     0.136591400303    -1.261498986930    12.000000000000
         C           -2.288102041925     0.136527400303     1.267345013070    12.000000000000
         C            2.277776958075     0.141704400303     0.002921013070    12.000000000000
         C            1.613389958075     1.345057400303     0.002937013070    12.000000000000
         H           -1.652522041925    -1.484467599697     0.002879013070     1.007825032230
         H           -2.221959041925     1.227180400303    -1.290118986930     1.007825032230
         H           -3.343411041925    -0.154447599697    -1.273317986930     1.007825032230
         H           -1.809360041925    -0.260604599697    -2.161288986930     1.007825032230
         H           -1.809344041925    -0.260712599697     2.167111013070     1.007825032230
         H           -3.343402041925    -0.154513599697     1.279157013070     1.007825032230
         H           -2.221951041925     1.227115400303     1.296018013070     1.007825032230
         H            3.344516958075    -0.038573599697     0.002920013070     1.007825032230
         H            2.094728958075     2.317123400303     0.002953013070     1.007825032230

  Basis Set: AUG-CC-PVTZ
    Blend: AUG-CC-PVTZ
  Basis Set: (AUG-CC-PVTZ AUX)
    Blend: AUG-CC-PVTZ-JKFIT
	 Reference Energy          =    -684.5311346403276502 [Eh]
	 Singles Energy            =      -0.0000000000000000 [Eh]
	 Same-Spin Energy          =      -0.3770003227031737 [Eh]
	 Opposite-Spin Energy      =      -1.1970092945437698 [Eh]
	 Correlation Energy        =      -1.5740096172469435 [Eh]
	 Total Energy              =    -686.1051442575745796 [Eh]

	 ================> DF-SCS-MP2 Energies <==================
	-----------------------------------------------------------
	 SCS Same-Spin Scale       =       0.3333333333333333 [-]
	 SCS Opposite-Spin Scale   =       1.2000000000000000 [-]
	 SCS Same-Spin Energy      =      -0.1256667742343912 [Eh]
	 SCS Opposite-Spin Energy  =      -1.4364111534525237 [Eh]
	 SCS Correlation Energy    =      -1.5620779276869150 [Eh]
	 SCS Total Energy          =    -686.0932125680145646 [Eh]
	-----------------------------------------------------------

  Dipole Moment: [D]
     X:     0.4788      Y:    -1.1590      Z:    -0.0201     Total:     1.2541

*** Psi4 exiting successfully. Buy a developer a beer!
