                               Psi4 1.4a3.dev225

  ==> Input File <==

--------------------------------------------------------------------------
#psi4
#
memory 32 gb

molecule  {
0 1
  S        1.3033745    -1.0691711    -0.0000165
  N        0.3264180     1.2510610     0.0000150
  C       -1.5198050    -0.4073720    -0.0000100
  C       -0.0728400    -0.0059560    -0.0000040
  C       -2.2053760     0.1167870    -1.2644160
  C       -2.2053680     0.1167230     1.2644280
  C        2.3605110     0.1219000     0.0000040
  C        1.6961240     1.3252530     0.0000200
  H       -1.5697880    -1.5042720    -0.0000380
  H       -2.1392250     1.2073760    -1.2930360
  H       -3.2606770    -0.1742520    -1.2762350
  H       -1.7266260    -0.2804090    -2.1642060
  H       -1.7266100    -0.2805170     2.1641940
  H       -3.2606680    -0.1743180     1.2762400
  H       -2.1392170     1.2073110     1.2931010
  H        3.4272510    -0.0583780     0.0000030
  H        2.1774630     2.2973190     0.0000360
units angstrom
no_reorient  #important for SAPT in psi4, default
symmetry c1  #important for SAPT in psi4, default
}

set PROPERTIES_ORIGIN ["COM"]
properties('MP2/aug-cc-pvtz', properties = ['dipole'])
--------------------------------------------------------------------------

    Molecular point group: c1
  Charge       = 0
  Multiplicity = 1
  Basis Set: AUG-CC-PVTZ
    Blend: AUG-CC-PVTZ
  Basis Set: (AUG-CC-PVTZ AUX)
    Blend: AUG-CC-PVTZ-JKFIT

    Orbital Energies [Eh]
    ---------------------

    Doubly Occupied:

       1A    -91.988433     2A    -15.564359     3A    -11.304309
       4A    -11.264474     5A    -11.251181     6A    -11.250054
       7A    -11.218877     8A    -11.218862     9A     -8.992393
      10A     -6.673636    11A     -6.672766    12A     -6.671986
      13A     -1.281506    14A     -1.099732    15A     -1.081161
      16A     -0.976768    17A     -0.935355    18A     -0.840400
      19A     -0.789063    20A     -0.726860    21A     -0.685334
      22A     -0.628186    23A     -0.603117    24A     -0.589222
      25A     -0.568325    26A     -0.547522    27A     -0.535239
      28A     -0.506705    29A     -0.497537    30A     -0.488255
      31A     -0.484255    32A     -0.420284    33A     -0.393181
      34A     -0.321398

  @DF-RHF Final Energy:  -684.52319311462497

   => Energetics <=

    Nuclear Repulsion Energy =            440.6539252316495663
    One-Electron Energy =               -1812.2127629118174355
    Two-Electron Energy =                 687.0356445655429525
    Total Energy =                       -684.5231931146249735
  Basis Set: (AUG-CC-PVTZ AUX)
    Blend: AUG-CC-PVTZ-RI
    Molecular point group: c1

    Geometry (in Angstrom), charge = 0, multiplicity = 1:

       Center              X                  Y                   Z               Mass
    ------------   -----------------  -----------------  -----------------  -----------------
         S            1.204328656005    -1.075471927601    -0.000016546980    31.972071174400
         N            0.227372156005     1.244760172399     0.000014953020    14.003074004430
         C           -1.618850843995    -0.413672827601    -0.000010046980    12.000000000000
         C           -0.171885843995    -0.012256827601    -0.000004046980    12.000000000000
         C           -2.304421843995     0.110486172399    -1.264416046980    12.000000000000
         C           -2.304413843995     0.110422172399     1.264427953020    12.000000000000
         C            2.261465156005     0.115599172399     0.000003953020    12.000000000000
         C            1.597078156005     1.318952172399     0.000019953020    12.000000000000
         H           -1.668833843995    -1.510572827601    -0.000038046980     1.007825032230
         H           -2.238270843995     1.201075172399    -1.293036046980     1.007825032230
         H           -3.359722843995    -0.180552827601    -1.276235046980     1.007825032230
         H           -1.825671843995    -0.286709827601    -2.164206046980     1.007825032230
         H           -1.825655843995    -0.286817827601     2.164193953020     1.007825032230
         H           -3.359713843995    -0.180618827601     1.276239953020     1.007825032230
         H           -2.238262843995     1.201010172399     1.293100953020     1.007825032230
         H            3.328205156005    -0.064678827601     0.000002953020     1.007825032230
         H            2.078417156005     2.291018172399     0.000035953020     1.007825032230

  Basis Set: AUG-CC-PVTZ
    Blend: AUG-CC-PVTZ
  Basis Set: (AUG-CC-PVTZ AUX)
    Blend: AUG-CC-PVTZ-JKFIT
	 Reference Energy          =    -684.5231931146249735 [Eh]
	 Singles Energy            =      -0.0000000000000000 [Eh]
	 Same-Spin Energy          =      -0.3787002393859880 [Eh]
	 Opposite-Spin Energy      =      -1.1966721286780215 [Eh]
	 Correlation Energy        =      -1.5753723680640095 [Eh]
	 Total Energy              =    -686.0985654826889686 [Eh]

	 ================> DF-SCS-MP2 Energies <==================
	-----------------------------------------------------------
	 SCS Same-Spin Scale       =       0.3333333333333333 [-]
	 SCS Opposite-Spin Scale   =       1.2000000000000000 [-]
	 SCS Same-Spin Energy      =      -0.1262334131286627 [Eh]
	 SCS Opposite-Spin Energy  =      -1.4360065544136258 [Eh]
	 SCS Correlation Energy    =      -1.5622399675422884 [Eh]
	 SCS Total Energy          =    -686.0854330821672420 [Eh]
	-----------------------------------------------------------

  Dipole Moment: [D]
     X:     0.5722      Y:    -1.1894      Z:    -0.0000     Total:     1.3198

*** Psi4 exiting successfully. Buy a developer a beer!
