                               Psi4 1.4a3.dev225

  ==> Input File <==

--------------------------------------------------------------------------
#psi4
#
memory 32 gb

molecule  {
0 1
  S        1.2258560    -1.1625810    -0.0000180
  N        0.3264180     1.2510610     0.0000150
  C       -1.5198050    -0.4073720    -0.0000100
  C       -0.0728400    -0.0059560    -0.0000040
  C       -2.2053760     0.1167870    -1.2644160
  C       -2.2053680     0.1167230     1.2644280
  C        2.3605110     0.1219000     0.0000040
  C        1.6461972     1.3225486     0.0000198
  H       -1.5697880    -1.5042720    -0.0000380
  H       -2.1392250     1.2073760    -1.2930360
  H       -3.2606770    -0.1742520    -1.2762350
  H       -1.7266260    -0.2804090    -2.1642060
  H       -1.7266100    -0.2805170     2.1641940
  H       -3.2606680    -0.1743180     1.2762400
  H       -2.1392170     1.2073110     1.2931010
  H        3.4272510    -0.0583780     0.0000030
  H        2.1774630     2.2973190     0.0000360
units angstrom
no_reorient  #important for SAPT in psi4, default
symmetry c1  #important for SAPT in psi4, default
}

set PROPERTIES_ORIGIN ["COM"]
properties('MP2/aug-cc-pvtz', properties = ['dipole'])
--------------------------------------------------------------------------

    Molecular point group: c1
  Charge       = 0
  Multiplicity = 1
  Basis Set: AUG-CC-PVTZ
    Blend: AUG-CC-PVTZ
  Basis Set: (AUG-CC-PVTZ AUX)
    Blend: AUG-CC-PVTZ-JKFIT

    Orbital Energies [Eh]
    ---------------------

    Doubly Occupied:

       1A    -91.995620     2A    -15.562561     3A    -11.310566
       4A    -11.270148     5A    -11.260050     6A    -11.249424
       7A    -11.219533     8A    -11.219517     9A     -8.995983
      10A     -6.676831    11A     -6.676386    12A     -6.675718
      13A     -1.287761    14A     -1.095719    15A     -1.064059
      16A     -0.977105    17A     -0.936052    18A     -0.838428
      19A     -0.796592    20A     -0.718352    21A     -0.681206
      22A     -0.625519    23A     -0.601712    24A     -0.589178
      25A     -0.571717    26A     -0.547036    27A     -0.533265
      28A     -0.500357    29A     -0.495266    30A     -0.487718
      31A     -0.482712    32A     -0.424899    33A     -0.392177
      34A     -0.320634

  @DF-RHF Final Energy:  -684.52948997755709

   => Energetics <=

    Nuclear Repulsion Energy =            438.2967516845448586
    One-Electron Energy =               -1807.4928849727996294
    Two-Electron Energy =                 684.6666433106976228
    Total Energy =                       -684.5294899775570912
  Basis Set: (AUG-CC-PVTZ AUX)
    Blend: AUG-CC-PVTZ-RI
    Molecular point group: c1

    Geometry (in Angstrom), charge = 0, multiplicity = 1:

       Center              X                  Y                   Z               Mass
    ------------   -----------------  -----------------  -----------------  -----------------
         S            1.151034130032    -1.145119009581    -0.000017650602    31.972071174400
         N            0.251596130032     1.268522990419     0.000015349398    14.003074004430
         C           -1.594626869968    -0.389910009581    -0.000009650602    12.000000000000
         C           -0.147661869968     0.011505990419    -0.000003650602    12.000000000000
         C           -2.280197869968     0.134248990419    -1.264415650602    12.000000000000
         C           -2.280189869968     0.134184990419     1.264428349398    12.000000000000
         C            2.285689130032     0.139361990419     0.000004349398    12.000000000000
         C            1.571375330032     1.340010590419     0.000020149398    12.000000000000
         H           -1.644609869968    -1.486810009581    -0.000037650602     1.007825032230
         H           -2.214046869968     1.224837990419    -1.293035650602     1.007825032230
         H           -3.335498869968    -0.156790009581    -1.276234650602     1.007825032230
         H           -1.801447869968    -0.262947009581    -2.164205650602     1.007825032230
         H           -1.801431869968    -0.263055009581     2.164194349398     1.007825032230
         H           -3.335489869968    -0.156856009581     1.276240349398     1.007825032230
         H           -2.214038869968     1.224772990419     1.293101349398     1.007825032230
         H            3.352429130032    -0.040916009581     0.000003349398     1.007825032230
         H            2.102641130032     2.314780990419     0.000036349398     1.007825032230

  Basis Set: AUG-CC-PVTZ
    Blend: AUG-CC-PVTZ
  Basis Set: (AUG-CC-PVTZ AUX)
    Blend: AUG-CC-PVTZ-JKFIT
	 Reference Energy          =    -684.5294899775570912 [Eh]
	 Singles Energy            =      -0.0000000000000000 [Eh]
	 Same-Spin Energy          =      -0.3781074305331316 [Eh]
	 Opposite-Spin Energy      =      -1.1974330788179253 [Eh]
	 Correlation Energy        =      -1.5755405093510568 [Eh]
	 Total Energy              =    -686.1050304869081629 [Eh]

	 ================> DF-SCS-MP2 Energies <==================
	-----------------------------------------------------------
	 SCS Same-Spin Scale       =       0.3333333333333333 [-]
	 SCS Opposite-Spin Scale   =       1.2000000000000000 [-]
	 SCS Same-Spin Energy      =      -0.1260358101777105 [Eh]
	 SCS Opposite-Spin Energy  =      -1.4369196945815104 [Eh]
	 SCS Correlation Energy    =      -1.5629555047592210 [Eh]
	 SCS Total Energy          =    -686.0924454823162932 [Eh]
	-----------------------------------------------------------

  Dipole Moment: [D]
     X:     0.4819      Y:    -1.1749      Z:    -0.0000     Total:     1.2699

*** Psi4 exiting successfully. Buy a developer a beer!
