                               Psi4 1.4a3.dev225

  ==> Input File <==

--------------------------------------------------------------------------
#psi4
#
memory 32 gb

molecule  {
0 1
  S        1.2258560    -1.1625810    -0.0000180
  N        0.3264180     1.2510610     0.0000150
  C       -1.4876975    -0.2545226     0.0357915
  C       -0.0728400    -0.0059560    -0.0000040
  C       -2.2053760     0.1167870    -1.2644160
  C       -2.2053680     0.1167230     1.2644280
  C        2.3605110     0.1219000     0.0000040
  C        1.6961240     1.3252530     0.0000200
  H       -1.5697880    -1.5042720    -0.0000380
  H       -2.1392250     1.2073760    -1.2930360
  H       -3.2606770    -0.1742520    -1.2762350
  H       -1.7266260    -0.2804090    -2.1642060
  H       -1.7266100    -0.2805170     2.1641940
  H       -3.2606680    -0.1743180     1.2762400
  H       -2.1392170     1.2073110     1.2931010
  H        3.4272510    -0.0583780     0.0000030
  H        2.1774630     2.2973190     0.0000360
units angstrom
no_reorient  #important for SAPT in psi4, default
symmetry c1  #important for SAPT in psi4, default
}

set PROPERTIES_ORIGIN ["COM"]
properties('MP2/aug-cc-pvtz', properties = ['dipole'])
--------------------------------------------------------------------------

    Molecular point group: c1
  Charge       = 0
  Multiplicity = 1
  Basis Set: AUG-CC-PVTZ
    Blend: AUG-CC-PVTZ
  Basis Set: (AUG-CC-PVTZ AUX)
    Blend: AUG-CC-PVTZ-JKFIT

    Orbital Energies [Eh]
    ---------------------

    Doubly Occupied:

       1A    -91.998471     2A    -15.564399     3A    -11.307865
       4A    -11.269427     5A    -11.262827     6A    -11.255019
       7A    -11.221094     8A    -11.218323     9A     -8.998700
      10A     -6.679559    11A     -6.679110    12A     -6.678348
      13A     -1.278971    14A     -1.105187    15A     -1.063086
      16A     -0.985673    17A     -0.942469    18A     -0.845956
      19A     -0.792031    20A     -0.711874    21A     -0.678139
      22A     -0.630548    23A     -0.605261    24A     -0.596449
      25A     -0.567360    26A     -0.542188    27A     -0.535776
      28A     -0.518180    29A     -0.503907    30A     -0.496484
      31A     -0.439190    32A     -0.420505    33A     -0.388594
      34A     -0.330044

  @DF-RHF Final Energy:  -684.50568451050265

   => Energetics <=

    Nuclear Repulsion Energy =            438.9942588040679539
    One-Electron Energy =               -1808.7778532660570363
    Two-Electron Energy =                 685.2779099514865493
    Total Energy =                       -684.5056845105026468
  Basis Set: (AUG-CC-PVTZ AUX)
    Blend: AUG-CC-PVTZ-RI
    Molecular point group: c1

    Geometry (in Angstrom), charge = 0, multiplicity = 1:

       Center              X                  Y                   Z               Mass
    ------------   -----------------  -----------------  -----------------  -----------------
         S            1.143285637925    -1.159811734350    -0.003399274994    31.972071174400
         N            0.243847637925     1.253830265650    -0.003366274994    14.003074004430
         C           -1.570267862075    -0.251753334350     0.032410225006    12.000000000000
         C           -0.155410362075    -0.003186734350    -0.003385274994    12.000000000000
         C           -2.287946362075     0.119556265650    -1.267797274994    12.000000000000
         C           -2.287938362075     0.119492265650     1.261046725006    12.000000000000
         C            2.277940637925     0.124669265650    -0.003377274994    12.000000000000
         C            1.613553637925     1.328022265650    -0.003361274994    12.000000000000
         H           -1.652358362075    -1.501502734350    -0.003419274994     1.007825032230
         H           -2.221795362075     1.210145265650    -1.296417274994     1.007825032230
         H           -3.343247362075    -0.171482734350    -1.279616274994     1.007825032230
         H           -1.809196362075    -0.277639734350    -2.167587274994     1.007825032230
         H           -1.809180362075    -0.277747734350     2.160812725006     1.007825032230
         H           -3.343238362075    -0.171548734350     1.272858725006     1.007825032230
         H           -2.221787362075     1.210080265650     1.289719725006     1.007825032230
         H            3.344680637925    -0.055608734350    -0.003378274994     1.007825032230
         H            2.094892637925     2.300088265650    -0.003345274994     1.007825032230

  Basis Set: AUG-CC-PVTZ
    Blend: AUG-CC-PVTZ
  Basis Set: (AUG-CC-PVTZ AUX)
    Blend: AUG-CC-PVTZ-JKFIT
	 Reference Energy          =    -684.5056845105026468 [Eh]
	 Singles Energy            =      -0.0000000000000000 [Eh]
	 Same-Spin Energy          =      -0.3784150376739601 [Eh]
	 Opposite-Spin Energy      =      -1.1997296958513854 [Eh]
	 Correlation Energy        =      -1.5781447335253456 [Eh]
	 Total Energy              =    -686.0838292440280384 [Eh]

	 ================> DF-SCS-MP2 Energies <==================
	-----------------------------------------------------------
	 SCS Same-Spin Scale       =       0.3333333333333333 [-]
	 SCS Opposite-Spin Scale   =       1.2000000000000000 [-]
	 SCS Same-Spin Energy      =      -0.1261383458913200 [Eh]
	 SCS Opposite-Spin Energy  =      -1.4396756350216624 [Eh]
	 SCS Correlation Energy    =      -1.5658139809129825 [Eh]
	 SCS Total Energy          =    -686.0714984914155821 [Eh]
	-----------------------------------------------------------

  Dipole Moment: [D]
     X:     0.6254      Y:    -1.0387      Z:     0.0263     Total:     1.2127

*** Psi4 exiting successfully. Buy a developer a beer!
