                               Psi4 1.4a3.dev225

  ==> Input File <==

--------------------------------------------------------------------------
#psi4
#
memory 32 gb

molecule  {
0 1
  S        1.2258560    -1.1625810    -0.0000180
  N        0.3264180     1.2510610     0.0000150
  C       -1.5198050    -0.4073720    -0.0000100
  C       -0.0728400    -0.0059560    -0.0000040
  C       -2.2336557    -0.0362943    -1.3023891
  C       -2.2053680     0.1167230     1.2644280
  C        2.3605110     0.1219000     0.0000040
  C        1.6961240     1.3252530     0.0000200
  H       -1.5697880    -1.5042720    -0.0000380
  H       -2.1392250     1.2073760    -1.2930360
  H       -3.2606770    -0.1742520    -1.2762350
  H       -1.7266260    -0.2804090    -2.1642060
  H       -1.7266100    -0.2805170     2.1641940
  H       -3.2606680    -0.1743180     1.2762400
  H       -2.1392170     1.2073110     1.2931010
  H        3.4272510    -0.0583780     0.0000030
  H        2.1774630     2.2973190     0.0000360
units angstrom
no_reorient  #important for SAPT in psi4, default
symmetry c1  #important for SAPT in psi4, default
}

set PROPERTIES_ORIGIN ["COM"]
properties('MP2/aug-cc-pvtz', properties = ['dipole'])
--------------------------------------------------------------------------

    Molecular point group: c1
  Charge       = 0
  Multiplicity = 1
  Basis Set: AUG-CC-PVTZ
    Blend: AUG-CC-PVTZ
  Basis Set: (AUG-CC-PVTZ AUX)
    Blend: AUG-CC-PVTZ-JKFIT

    Orbital Energies [Eh]
    ---------------------

    Doubly Occupied:

       1A    -91.994699     2A    -15.564847     3A    -11.310708
       4A    -11.269124     5A    -11.261236     6A    -11.250705
       7A    -11.223054     8A    -11.220636     9A     -8.995289
      10A     -6.676181    11A     -6.675676    12A     -6.674961
      13A     -1.275017    14A     -1.094150    15A     -1.061756
      16A     -0.981754    17A     -0.939567    18A     -0.840943
      19A     -0.792829    20A     -0.717733    21A     -0.683076
      22A     -0.626024    23A     -0.615683    24A     -0.592623
      25A     -0.569018    26A     -0.544459    27A     -0.522993
      28A     -0.505967    29A     -0.501948    30A     -0.499468
      31A     -0.450503    32A     -0.420506    33A     -0.387009
      34A     -0.329073

  @DF-RHF Final Energy:  -684.51005546491990

   => Energetics <=

    Nuclear Repulsion Energy =            436.9433297271082779
    One-Electron Energy =               -1804.7683419821223652
    Two-Electron Energy =                 683.3149567900942429
    Total Energy =                       -684.5100554649199012
  Basis Set: (AUG-CC-PVTZ AUX)
    Blend: AUG-CC-PVTZ-RI
    Molecular point group: c1

    Geometry (in Angstrom), charge = 0, multiplicity = 1:

       Center              X                  Y                   Z               Mass
    ------------   -----------------  -----------------  -----------------  -----------------
         S            1.148989468428    -1.130915265261     0.003569052959    31.972071174400
         N            0.249551468428     1.282726734739     0.003602052959    14.003074004430
         C           -1.596671531572    -0.375706265261     0.003577052959    12.000000000000
         C           -0.149706531572     0.025709734739     0.003583052959    12.000000000000
         C           -2.310522231572    -0.004628565261    -1.298802047041    12.000000000000
         C           -2.282234531572     0.148388734739     1.268015052959    12.000000000000
         C            2.283644468428     0.153565734739     0.003591052959    12.000000000000
         C            1.619257468428     1.356918734739     0.003607052959    12.000000000000
         H           -1.646654531572    -1.472606265261     0.003549052959     1.007825032230
         H           -2.216091531572     1.239041734739    -1.289448947041     1.007825032230
         H           -3.337543531572    -0.142586265261    -1.272647947041     1.007825032230
         H           -1.803492531572    -0.248743265261    -2.160618947041     1.007825032230
         H           -1.803476531572    -0.248851265261     2.167781052959     1.007825032230
         H           -3.337534531572    -0.142652265261     1.279827052959     1.007825032230
         H           -2.216083531572     1.238976734739     1.296688052959     1.007825032230
         H            3.350384468428    -0.026712265261     0.003590052959     1.007825032230
         H            2.100596468428     2.328984734739     0.003623052959     1.007825032230

  Basis Set: AUG-CC-PVTZ
    Blend: AUG-CC-PVTZ
  Basis Set: (AUG-CC-PVTZ AUX)
    Blend: AUG-CC-PVTZ-JKFIT
	 Reference Energy          =    -684.5100554649199012 [Eh]
	 Singles Energy            =      -0.0000000000000000 [Eh]
	 Same-Spin Energy          =      -0.3773659192635266 [Eh]
	 Opposite-Spin Energy      =      -1.1980574652444305 [Eh]
	 Correlation Energy        =      -1.5754233845079570 [Eh]
	 Total Energy              =    -686.0854788494278864 [Eh]

	 ================> DF-SCS-MP2 Energies <==================
	-----------------------------------------------------------
	 SCS Same-Spin Scale       =       0.3333333333333333 [-]
	 SCS Opposite-Spin Scale   =       1.2000000000000000 [-]
	 SCS Same-Spin Energy      =      -0.1257886397545089 [Eh]
	 SCS Opposite-Spin Energy  =      -1.4376689582933164 [Eh]
	 SCS Correlation Energy    =      -1.5634575980478254 [Eh]
	 SCS Total Energy          =    -686.0735130629677769 [Eh]
	-----------------------------------------------------------

  Dipole Moment: [D]
     X:     0.5362      Y:    -1.2054      Z:     0.0207     Total:     1.3195

*** Psi4 exiting successfully. Buy a developer a beer!
