                               Psi4 1.4a3.dev225

  ==> Input File <==

--------------------------------------------------------------------------
#psi4
#
memory 32 gb

molecule  {
0 1
  S        1.2258560    -1.1625810    -0.0000180
  N        0.3264180     1.2510610     0.0000150
  C       -1.4530007    -0.4617074    -0.0632714
  C       -0.0728400    -0.0059560    -0.0000040
  C       -2.2053760     0.1167870    -1.2644160
  C       -2.2053680     0.1167230     1.2644280
  C        2.3605110     0.1219000     0.0000040
  C        1.6961240     1.3252530     0.0000200
  H       -1.5697880    -1.5042720    -0.0000380
  H       -2.1392250     1.2073760    -1.2930360
  H       -3.2606770    -0.1742520    -1.2762350
  H       -1.7266260    -0.2804090    -2.1642060
  H       -1.7266100    -0.2805170     2.1641940
  H       -3.2606680    -0.1743180     1.2762400
  H       -2.1392170     1.2073110     1.2931010
  H        3.4272510    -0.0583780     0.0000030
  H        2.1774630     2.2973190     0.0000360
units angstrom
no_reorient  #important for SAPT in psi4, default
symmetry c1  #important for SAPT in psi4, default
}

set PROPERTIES_ORIGIN ["COM"]
properties('MP2/aug-cc-pvtz', properties = ['dipole'])
--------------------------------------------------------------------------

    Molecular point group: c1
  Charge       = 0
  Multiplicity = 1
  Basis Set: AUG-CC-PVTZ
    Blend: AUG-CC-PVTZ
  Basis Set: (AUG-CC-PVTZ AUX)
    Blend: AUG-CC-PVTZ-JKFIT

    Orbital Energies [Eh]
    ---------------------

    Doubly Occupied:

       1A    -91.992515     2A    -15.564552     3A    -11.310266
       4A    -11.269332     5A    -11.260044     6A    -11.247488
       7A    -11.223492     8A    -11.220224     9A     -8.993387
      10A     -6.674297    11A     -6.673741    12A     -6.673046
      13A     -1.275858    14A     -1.092904    15A     -1.061531
      16A     -0.979429    17A     -0.928066    18A     -0.850786
      19A     -0.794482    20A     -0.720164    21A     -0.686585
      22A     -0.620763    23A     -0.599929    24A     -0.587208
      25A     -0.567645    26A     -0.544503    27A     -0.530672
      28A     -0.514039    29A     -0.505002    30A     -0.493753
      31A     -0.461664    32A     -0.421236    33A     -0.386694
      34A     -0.325141

  @DF-RHF Final Energy:  -684.52366742382571

   => Energetics <=

    Nuclear Repulsion Energy =            437.7962132853150479
    One-Electron Energy =               -1806.5388934844449977
    Two-Electron Energy =                 684.2190127753043498
    Total Energy =                       -684.5236674238257137
  Basis Set: (AUG-CC-PVTZ AUX)
    Blend: AUG-CC-PVTZ-RI
    Molecular point group: c1

    Geometry (in Angstrom), charge = 0, multiplicity = 1:

       Center              X                  Y                   Z               Mass
    ------------   -----------------  -----------------  -----------------  -----------------
         S            1.140008376086    -1.140242239791     0.005957641549    31.972071174400
         N            0.240570376086     1.273399760209     0.005990641549    14.003074004430
         C           -1.538848323914    -0.439368639791    -0.057295758451    12.000000000000
         C           -0.158687623914     0.016382760209     0.005971641549    12.000000000000
         C           -2.291223623914     0.139125760209    -1.258440358451    12.000000000000
         C           -2.291215623914     0.139061760209     1.270403641549    12.000000000000
         C            2.274663376086     0.144238760209     0.005979641549    12.000000000000
         C            1.610276376086     1.347591760209     0.005995641549    12.000000000000
         H           -1.655635623914    -1.481933239791     0.005937641549     1.007825032230
         H           -2.225072623914     1.229714760209    -1.287060358451     1.007825032230
         H           -3.346524623914    -0.151913239791    -1.270259358451     1.007825032230
         H           -1.812473623914    -0.258070239791    -2.158230358451     1.007825032230
         H           -1.812457623914    -0.258178239791     2.170169641549     1.007825032230
         H           -3.346515623914    -0.151979239791     1.282215641549     1.007825032230
         H           -2.225064623914     1.229649760209     1.299076641549     1.007825032230
         H            3.341403376086    -0.036039239791     0.005978641549     1.007825032230
         H            2.091615376086     2.319657760209     0.006011641549     1.007825032230

  Basis Set: AUG-CC-PVTZ
    Blend: AUG-CC-PVTZ
  Basis Set: (AUG-CC-PVTZ AUX)
    Blend: AUG-CC-PVTZ-JKFIT
	 Reference Energy          =    -684.5236674238257137 [Eh]
	 Singles Energy            =      -0.0000000000000000 [Eh]
	 Same-Spin Energy          =      -0.3773280525533887 [Eh]
	 Opposite-Spin Energy      =      -1.1976185869353015 [Eh]
	 Correlation Energy        =      -1.5749466394886902 [Eh]
	 Total Energy              =    -686.0986140633143577 [Eh]

	 ================> DF-SCS-MP2 Energies <==================
	-----------------------------------------------------------
	 SCS Same-Spin Scale       =       0.3333333333333333 [-]
	 SCS Opposite-Spin Scale   =       1.2000000000000000 [-]
	 SCS Same-Spin Energy      =      -0.1257760175177962 [Eh]
	 SCS Opposite-Spin Energy  =      -1.4371423043223619 [Eh]
	 SCS Correlation Energy    =      -1.5629183218401581 [Eh]
	 SCS Total Energy          =    -686.0865857456658432 [Eh]
	-----------------------------------------------------------

  Dipole Moment: [D]
     X:     0.4543      Y:    -1.1690      Z:    -0.0382     Total:     1.2547

*** Psi4 exiting successfully. Buy a developer a beer!
