                               Psi4 1.4a3.dev225

  ==> Input File <==

--------------------------------------------------------------------------
#psi4
#
memory 32 gb

molecule  {
0 1
  S        1.1846992    -1.2072003    -0.0000187
  N        0.3264180     1.2510610     0.0000150
  C       -1.5198050    -0.4073720    -0.0000100
  C       -0.0728400    -0.0059560    -0.0000040
  C       -2.2053760     0.1167870    -1.2644160
  C       -2.2053680     0.1167230     1.2644280
  C        2.3605110     0.1219000     0.0000040
  C        1.6961240     1.3252530     0.0000200
  H       -1.5697880    -1.5042720    -0.0000380
  H       -2.1392250     1.2073760    -1.2930360
  H       -3.2606770    -0.1742520    -1.2762350
  H       -1.7266260    -0.2804090    -2.1642060
  H       -1.7266100    -0.2805170     2.1641940
  H       -3.2606680    -0.1743180     1.2762400
  H       -2.1392170     1.2073110     1.2931010
  H        3.4272510    -0.0583780     0.0000030
  H        2.1774630     2.2973190     0.0000360
units angstrom
no_reorient  #important for SAPT in psi4, default
symmetry c1  #important for SAPT in psi4, default
}

set PROPERTIES_ORIGIN ["COM"]
properties('MP2/aug-cc-pvtz', properties = ['dipole'])
--------------------------------------------------------------------------

    Molecular point group: c1
  Charge       = 0
  Multiplicity = 1
  Basis Set: AUG-CC-PVTZ
    Blend: AUG-CC-PVTZ
  Basis Set: (AUG-CC-PVTZ AUX)
    Blend: AUG-CC-PVTZ-JKFIT

    Orbital Energies [Eh]
    ---------------------

    Doubly Occupied:

       1A    -91.996033     2A    -15.563733     3A    -11.312429
       4A    -11.271198     5A    -11.264916     6A    -11.248926
       7A    -11.219405     8A    -11.219390     9A     -8.995516
      10A     -6.676397    11A     -6.675747    12A     -6.675155
      13A     -1.272340    14A     -1.094770    15A     -1.050609
      16A     -0.982722    17A     -0.935869    18A     -0.839782
      19A     -0.794719    20A     -0.711975    21A     -0.682182
      22A     -0.624662    23A     -0.601134    24A     -0.586043
      25A     -0.567126    26A     -0.545072    27A     -0.529354
      28A     -0.505014    29A     -0.496559    30A     -0.486878
      31A     -0.480985    32A     -0.422464    33A     -0.384982
      34A     -0.330180

  @DF-RHF Final Energy:  -684.53140334134491

   => Energetics <=

    Nuclear Repulsion Energy =            436.1772479382834149
    One-Electron Energy =               -1803.3287748100183308
    Two-Electron Energy =                 682.6201235303899466
    Total Energy =                       -684.5314033413449124
  Basis Set: (AUG-CC-PVTZ AUX)
    Blend: AUG-CC-PVTZ-RI
    Molecular point group: c1

    Geometry (in Angstrom), charge = 0, multiplicity = 1:

       Center              X                  Y                   Z               Mass
    ------------   -----------------  -----------------  -----------------  -----------------
         S            1.115518979216    -1.178764934987    -0.000018193332    31.972071174400
         N            0.257237779216     1.279496365013     0.000015506668    14.003074004430
         C           -1.588985220784    -0.378936634987    -0.000009493332    12.000000000000
         C           -0.142020220784     0.022479365013    -0.000003493332    12.000000000000
         C           -2.274556220784     0.145222365013    -1.264415493332    12.000000000000
         C           -2.274548220784     0.145158365013     1.264428506668    12.000000000000
         C            2.291330779216     0.150335365013     0.000004506668    12.000000000000
         C            1.626943779216     1.353688365013     0.000020506668    12.000000000000
         H           -1.638968220784    -1.475836634987    -0.000037493332     1.007825032230
         H           -2.208405220784     1.235811365013    -1.293035493332     1.007825032230
         H           -3.329857220784    -0.145816634987    -1.276234493332     1.007825032230
         H           -1.795806220784    -0.251973634987    -2.164205493332     1.007825032230
         H           -1.795790220784    -0.252081634987     2.164194506668     1.007825032230
         H           -3.329848220784    -0.145882634987     1.276240506668     1.007825032230
         H           -2.208397220784     1.235746365013     1.293101506668     1.007825032230
         H            3.358070779216    -0.029942634987     0.000003506668     1.007825032230
         H            2.108282779216     2.325754365013     0.000036506668     1.007825032230

  Basis Set: AUG-CC-PVTZ
    Blend: AUG-CC-PVTZ
  Basis Set: (AUG-CC-PVTZ AUX)
    Blend: AUG-CC-PVTZ-JKFIT
	 Reference Energy          =    -684.5314033413449124 [Eh]
	 Singles Energy            =      -0.0000000000000000 [Eh]
	 Same-Spin Energy          =      -0.3762190091084622 [Eh]
	 Opposite-Spin Energy      =      -1.1972215403050455 [Eh]
	 Correlation Energy        =      -1.5734405494135077 [Eh]
	 Total Energy              =    -686.1048438907583886 [Eh]

	 ================> DF-SCS-MP2 Energies <==================
	-----------------------------------------------------------
	 SCS Same-Spin Scale       =       0.3333333333333333 [-]
	 SCS Opposite-Spin Scale   =       1.2000000000000000 [-]
	 SCS Same-Spin Energy      =      -0.1254063363694874 [Eh]
	 SCS Opposite-Spin Energy  =      -1.4366658483660546 [Eh]
	 SCS Correlation Energy    =      -1.5620721847355419 [Eh]
	 SCS Total Energy          =    -686.0934755260805105 [Eh]
	-----------------------------------------------------------

  Dipole Moment: [D]
     X:     0.4705      Y:    -1.1118      Z:    -0.0000     Total:     1.2073

*** Psi4 exiting successfully. Buy a developer a beer!
