                               Psi4 1.4a3.dev225

  ==> Input File <==

--------------------------------------------------------------------------
#psi4
#
memory 32 gb

molecule  {
0 1
  S        1.2258560    -1.1625810    -0.0000180
  N        0.3264180     1.2510610     0.0000150
  C       -1.5198050    -0.4073720    -0.0000100
  C       -0.0577040     0.0416980    -0.0000033
  C       -2.2053760     0.1167870    -1.2644160
  C       -2.2053680     0.1167230     1.2644280
  C        2.3605110     0.1219000     0.0000040
  C        1.6961240     1.3252530     0.0000200
  H       -1.5697880    -1.5042720    -0.0000380
  H       -2.1392250     1.2073760    -1.2930360
  H       -3.2606770    -0.1742520    -1.2762350
  H       -1.7266260    -0.2804090    -2.1642060
  H       -1.7266100    -0.2805170     2.1641940
  H       -3.2606680    -0.1743180     1.2762400
  H       -2.1392170     1.2073110     1.2931010
  H        3.4272510    -0.0583780     0.0000030
  H        2.1774630     2.2973190     0.0000360
units angstrom
no_reorient  #important for SAPT in psi4, default
symmetry c1  #important for SAPT in psi4, default
}

set PROPERTIES_ORIGIN ["COM"]
properties('MP2/aug-cc-pvtz', properties = ['dipole'])
--------------------------------------------------------------------------

    Molecular point group: c1
  Charge       = 0
  Multiplicity = 1
  Basis Set: AUG-CC-PVTZ
    Blend: AUG-CC-PVTZ
  Basis Set: (AUG-CC-PVTZ AUX)
    Blend: AUG-CC-PVTZ-JKFIT

    Orbital Energies [Eh]
    ---------------------

    Doubly Occupied:

       1A    -91.989639     2A    -15.562144     3A    -11.306801
       4A    -11.269076     5A    -11.261988     6A    -11.250153
       7A    -11.218762     8A    -11.218747     9A     -8.990400
      10A     -6.671305    11A     -6.670727    12A     -6.669999
      13A     -1.290384    14A     -1.090917    15A     -1.064107
      16A     -0.980009    17A     -0.935306    18A     -0.834554
      19A     -0.798413    20A     -0.714975    21A     -0.685520
      22A     -0.624286    23A     -0.602906    24A     -0.588500
      25A     -0.568788    26A     -0.546923    27A     -0.532764
      28A     -0.504194    29A     -0.498580    30A     -0.486718
      31A     -0.482662    32A     -0.418264    33A     -0.392172
      34A     -0.329139

  @DF-RHF Final Energy:  -684.53437002357612

   => Energetics <=

    Nuclear Repulsion Energy =            437.7360931424718160
    One-Electron Energy =               -1806.4412871282916058
    Two-Electron Energy =                 684.1708239622436167
    Total Energy =                       -684.5343700235761162
  Basis Set: (AUG-CC-PVTZ AUX)
    Blend: AUG-CC-PVTZ-RI
    Molecular point group: c1

    Geometry (in Angstrom), charge = 0, multiplicity = 1:

       Center              X                  Y                   Z               Mass
    ------------   -----------------  -----------------  -----------------  -----------------
         S            1.144888669021    -1.149875576833    -0.000017735611    31.972071174400
         N            0.245450669021     1.263766423167     0.000015264389    14.003074004430
         C           -1.600772330979    -0.394666576833    -0.000009735611    12.000000000000
         C           -0.138671330979     0.054403423167    -0.000003035611    12.000000000000
         C           -2.286343330979     0.129492423167    -1.264415735611    12.000000000000
         C           -2.286335330979     0.129428423167     1.264428264389    12.000000000000
         C            2.279543669021     0.134605423167     0.000004264389    12.000000000000
         C            1.615156669021     1.337958423167     0.000020264389    12.000000000000
         H           -1.650755330979    -1.491566576833    -0.000037735611     1.007825032230
         H           -2.220192330979     1.220081423167    -1.293035735611     1.007825032230
         H           -3.341644330979    -0.161546576833    -1.276234735611     1.007825032230
         H           -1.807593330979    -0.267703576833    -2.164205735611     1.007825032230
         H           -1.807577330979    -0.267811576833     2.164194264389     1.007825032230
         H           -3.341635330979    -0.161612576833     1.276240264389     1.007825032230
         H           -2.220184330979     1.220016423167     1.293101264389     1.007825032230
         H            3.346283669021    -0.045672576833     0.000003264389     1.007825032230
         H            2.096495669021     2.310024423167     0.000036264389     1.007825032230

  Basis Set: AUG-CC-PVTZ
    Blend: AUG-CC-PVTZ
  Basis Set: (AUG-CC-PVTZ AUX)
    Blend: AUG-CC-PVTZ-JKFIT
	 Reference Energy          =    -684.5343700235761162 [Eh]
	 Singles Energy            =      -0.0000000000000000 [Eh]
	 Same-Spin Energy          =      -0.3754124174341972 [Eh]
	 Opposite-Spin Energy      =      -1.1949013587611628 [Eh]
	 Correlation Energy        =      -1.5703137761953601 [Eh]
	 Total Energy              =    -686.1046837997714647 [Eh]

	 ================> DF-SCS-MP2 Energies <==================
	-----------------------------------------------------------
	 SCS Same-Spin Scale       =       0.3333333333333333 [-]
	 SCS Opposite-Spin Scale   =       1.2000000000000000 [-]
	 SCS Same-Spin Energy      =      -0.1251374724780657 [Eh]
	 SCS Opposite-Spin Energy  =      -1.4338816305133952 [Eh]
	 SCS Correlation Energy    =      -1.5590191029914611 [Eh]
	 SCS Total Energy          =    -686.0933891265675584 [Eh]
	-----------------------------------------------------------

  Dipole Moment: [D]
     X:     0.4334      Y:    -1.0384      Z:    -0.0000     Total:     1.1252

*** Psi4 exiting successfully. Buy a developer a beer!
