                               Psi4 1.4a3.dev225

  ==> Input File <==

--------------------------------------------------------------------------
#psi4
#
memory 32 gb

molecule  {
0 1
  S        1.2258560    -1.1625810    -0.0000180
  N        0.3264180     1.2510610     0.0000150
  C       -1.5198050    -0.4073720    -0.0000100
  C       -0.0728400    -0.0059560    -0.0000040
  C       -2.2106203     0.0916276    -1.2717200
  C       -2.2053680     0.1167230     1.2644280
  C        2.3605110     0.1219000     0.0000040
  C        1.6961240     1.3252530     0.0000200
  H       -1.5697880    -1.5042720    -0.0000380
  H       -2.1392250     1.2073760    -1.2930360
  H       -3.2606770    -0.1742520    -1.2762350
  H       -1.7266260    -0.2804090    -2.1642060
  H       -1.7266100    -0.2805170     2.1641940
  H       -3.2606680    -0.1743180     1.2762400
  H       -2.1392170     1.2073110     1.2931010
  H        3.4272510    -0.0583780     0.0000030
  H        2.1774630     2.2973190     0.0000360
units angstrom
no_reorient  #important for SAPT in psi4, default
symmetry c1  #important for SAPT in psi4, default
}

set PROPERTIES_ORIGIN ["COM"]
properties('MP2/aug-cc-pvtz', properties = ['dipole'])
--------------------------------------------------------------------------

    Molecular point group: c1
  Charge       = 0
  Multiplicity = 1
  Basis Set: AUG-CC-PVTZ
    Blend: AUG-CC-PVTZ
  Basis Set: (AUG-CC-PVTZ AUX)
    Blend: AUG-CC-PVTZ-JKFIT

    Orbital Energies [Eh]
    ---------------------

    Doubly Occupied:

       1A    -91.994044     2A    -15.564020     3A    -11.310059
       4A    -11.268885     5A    -11.260523     6A    -11.249357
       7A    -11.219467     8A    -11.219330     9A     -8.994675
      10A     -6.675573    11A     -6.675065    12A     -6.674351
      13A     -1.274700    14A     -1.094301    15A     -1.061237
      16A     -0.980919    17A     -0.936183    18A     -0.840003
      19A     -0.792627    20A     -0.716506    21A     -0.682873
      22A     -0.625335    23A     -0.603220    24A     -0.587767
      25A     -0.567311    26A     -0.542183    27A     -0.532012
      28A     -0.503782    29A     -0.500666    30A     -0.490008
      31A     -0.479158    32A     -0.421994    33A     -0.386881
      34A     -0.328013

  @DF-RHF Final Energy:  -684.53287905879631

   => Energetics <=

    Nuclear Repulsion Energy =            437.4261750154839774
    One-Electron Energy =               -1805.8120575660968825
    Two-Electron Energy =                 683.8530034918165939
    Total Energy =                       -684.5328790587963113
  Basis Set: (AUG-CC-PVTZ AUX)
    Blend: AUG-CC-PVTZ-RI
    Molecular point group: c1

    Geometry (in Angstrom), charge = 0, multiplicity = 1:

       Center              X                  Y                   Z               Mass
    ------------   -----------------  -----------------  -----------------  -----------------
         S            1.146813675923    -1.142998038350     0.000672224690    31.972071174400
         N            0.247375675923     1.270643961650     0.000705224690    14.003074004430
         C           -1.598847324077    -0.387789038350     0.000680224690    12.000000000000
         C           -0.151882324077     0.013626961650     0.000686224690    12.000000000000
         C           -2.289662624077     0.111210561650    -1.271029775310    12.000000000000
         C           -2.284410324077     0.136305961650     1.265118224690    12.000000000000
         C            2.281468675923     0.141482961650     0.000694224690    12.000000000000
         C            1.617081675923     1.344835961650     0.000710224690    12.000000000000
         H           -1.648830324077    -1.484689038350     0.000652224690     1.007825032230
         H           -2.218267324077     1.226958961650    -1.292345775310     1.007825032230
         H           -3.339719324077    -0.154669038350    -1.275544775310     1.007825032230
         H           -1.805668324077    -0.260826038350    -2.163515775310     1.007825032230
         H           -1.805652324077    -0.260934038350     2.164884224690     1.007825032230
         H           -3.339710324077    -0.154735038350     1.276930224690     1.007825032230
         H           -2.218259324077     1.226893961650     1.293791224690     1.007825032230
         H            3.348208675923    -0.038795038350     0.000693224690     1.007825032230
         H            2.098420675923     2.316901961650     0.000726224690     1.007825032230

  Basis Set: AUG-CC-PVTZ
    Blend: AUG-CC-PVTZ
  Basis Set: (AUG-CC-PVTZ AUX)
    Blend: AUG-CC-PVTZ-JKFIT
	 Reference Energy          =    -684.5328790587963113 [Eh]
	 Singles Energy            =      -0.0000000000000000 [Eh]
	 Same-Spin Energy          =      -0.3769091972481550 [Eh]
	 Opposite-Spin Energy      =      -1.1968327668916914 [Eh]
	 Correlation Energy        =      -1.5737419641398462 [Eh]
	 Total Energy              =    -686.1066210229361104 [Eh]

	 ================> DF-SCS-MP2 Energies <==================
	-----------------------------------------------------------
	 SCS Same-Spin Scale       =       0.3333333333333333 [-]
	 SCS Opposite-Spin Scale   =       1.2000000000000000 [-]
	 SCS Same-Spin Energy      =      -0.1256363990827183 [Eh]
	 SCS Opposite-Spin Energy  =      -1.4361993202700296 [Eh]
	 SCS Correlation Energy    =      -1.5618357193527479 [Eh]
	 SCS Total Energy          =    -686.0947147781490685 [Eh]
	-----------------------------------------------------------

  Dipole Moment: [D]
     X:     0.4979      Y:    -1.1519      Z:    -0.0006     Total:     1.2549

*** Psi4 exiting successfully. Buy a developer a beer!
