                               Psi4 1.4a3.dev225

  ==> Input File <==

--------------------------------------------------------------------------
#psi4
#
memory 32 gb

molecule  {
0 1
  S        1.2258560    -1.1625810    -0.0000180
  N        0.3264180     1.2510610     0.0000150
  C       -1.5082489    -0.3569780    -0.0135032
  C       -0.0728400    -0.0059560    -0.0000040
  C       -2.2053760     0.1167870    -1.2644160
  C       -2.2053680     0.1167230     1.2644280
  C        2.3605110     0.1219000     0.0000040
  C        1.6961240     1.3252530     0.0000200
  H       -1.5697880    -1.5042720    -0.0000380
  H       -2.1392250     1.2073760    -1.2930360
  H       -3.2606770    -0.1742520    -1.2762350
  H       -1.7266260    -0.2804090    -2.1642060
  H       -1.7266100    -0.2805170     2.1641940
  H       -3.2606680    -0.1743180     1.2762400
  H       -2.1392170     1.2073110     1.2931010
  H        3.4272510    -0.0583780     0.0000030
  H        2.1774630     2.2973190     0.0000360
units angstrom
no_reorient  #important for SAPT in psi4, default
symmetry c1  #important for SAPT in psi4, default
}

set PROPERTIES_ORIGIN ["COM"]
properties('MP2/aug-cc-pvtz', properties = ['dipole'])
--------------------------------------------------------------------------

    Molecular point group: c1
  Charge       = 0
  Multiplicity = 1
  Basis Set: AUG-CC-PVTZ
    Blend: AUG-CC-PVTZ
  Basis Set: (AUG-CC-PVTZ AUX)
    Blend: AUG-CC-PVTZ-JKFIT

    Orbital Energies [Eh]
    ---------------------

    Doubly Occupied:

       1A    -91.995467     2A    -15.564002     3A    -11.309053
       4A    -11.269058     5A    -11.261210     6A    -11.250482
       7A    -11.219519     8A    -11.218583     9A     -8.995970
      10A     -6.676858    11A     -6.676371    12A     -6.675641
      13A     -1.275960    14A     -1.097898    15A     -1.061819
      16A     -0.982275    17A     -0.937900    18A     -0.841216
      19A     -0.792575    20A     -0.714083    21A     -0.681557
      22A     -0.627009    23A     -0.602785    24A     -0.589792
      25A     -0.567098    26A     -0.544146    27A     -0.532365
      28A     -0.505697    29A     -0.503421    30A     -0.491666
      31A     -0.467981    32A     -0.423666    33A     -0.387413
      34A     -0.328580

  @DF-RHF Final Energy:  -684.52972377926767

   => Energetics <=

    Nuclear Repulsion Energy =            438.0514044612726821
    One-Electron Energy =               -1807.0240211915925101
    Two-Electron Energy =                 684.4428929510520447
    Total Energy =                       -684.5297237792676697
  Basis Set: (AUG-CC-PVTZ AUX)
    Blend: AUG-CC-PVTZ-RI
    Molecular point group: c1

    Geometry (in Angstrom), charge = 0, multiplicity = 1:

       Center              X                  Y                   Z               Mass
    ------------   -----------------  -----------------  -----------------  -----------------
         S            1.145226805957    -1.150134381606     0.001256821223    31.972071174400
         N            0.245788805957     1.263507618394     0.001289821223    14.003074004430
         C           -1.588878094043    -0.344531381606    -0.012228378777    12.000000000000
         C           -0.153469194043     0.006490618394     0.001270821223    12.000000000000
         C           -2.286005194043     0.129233618394    -1.263141178777    12.000000000000
         C           -2.285997194043     0.129169618394     1.265702821223    12.000000000000
         C            2.279881805957     0.134346618394     0.001278821223    12.000000000000
         C            1.615494805957     1.337699618394     0.001294821223    12.000000000000
         H           -1.650417194043    -1.491825381606     0.001236821223     1.007825032230
         H           -2.219854194043     1.219822618394    -1.291761178777     1.007825032230
         H           -3.341306194043    -0.161805381606    -1.274960178777     1.007825032230
         H           -1.807255194043    -0.267962381606    -2.162931178777     1.007825032230
         H           -1.807239194043    -0.268070381606     2.165468821223     1.007825032230
         H           -3.341297194043    -0.161871381606     1.277514821223     1.007825032230
         H           -2.219846194043     1.219757618394     1.294375821223     1.007825032230
         H            3.346621805957    -0.045931381606     0.001277821223     1.007825032230
         H            2.096833805957     2.309765618394     0.001310821223     1.007825032230

  Basis Set: AUG-CC-PVTZ
    Blend: AUG-CC-PVTZ
  Basis Set: (AUG-CC-PVTZ AUX)
    Blend: AUG-CC-PVTZ-JKFIT
	 Reference Energy          =    -684.5297237792676697 [Eh]
	 Singles Energy            =      -0.0000000000000000 [Eh]
	 Same-Spin Energy          =      -0.3772750708241363 [Eh]
	 Opposite-Spin Energy      =      -1.1974483308441892 [Eh]
	 Correlation Energy        =      -1.5747234016683256 [Eh]
	 Total Energy              =    -686.1044471809359493 [Eh]

	 ================> DF-SCS-MP2 Energies <==================
	-----------------------------------------------------------
	 SCS Same-Spin Scale       =       0.3333333333333333 [-]
	 SCS Opposite-Spin Scale   =       1.2000000000000000 [-]
	 SCS Same-Spin Energy      =      -0.1257583569413788 [Eh]
	 SCS Opposite-Spin Energy  =      -1.4369379970130269 [Eh]
	 SCS Correlation Energy    =      -1.5626963539544056 [Eh]
	 SCS Total Energy          =    -686.0924201332220491 [Eh]
	-----------------------------------------------------------

  Dipole Moment: [D]
     X:     0.5377      Y:    -1.1189      Z:    -0.0095     Total:     1.2414

*** Psi4 exiting successfully. Buy a developer a beer!
