                               Psi4 1.4a3.dev225

  ==> Input File <==

--------------------------------------------------------------------------
#psi4
#
memory 32 gb

molecule  {
0 1
  S        1.2258560    -1.1625810    -0.0000180
  N        0.3264180     1.2510610     0.0000150
  C       -1.5198050    -0.4073720    -0.0000100
  C       -0.0728400    -0.0059560    -0.0000040
  C       -2.2053760     0.1167870    -1.2644160
  C       -2.2053680     0.1167230     1.2644280
  C        2.3605110     0.1219000     0.0000040
  C        1.7959776     1.3306617     0.0000204
  H       -1.5697880    -1.5042720    -0.0000380
  H       -2.1392250     1.2073760    -1.2930360
  H       -3.2606770    -0.1742520    -1.2762350
  H       -1.7266260    -0.2804090    -2.1642060
  H       -1.7266100    -0.2805170     2.1641940
  H       -3.2606680    -0.1743180     1.2762400
  H       -2.1392170     1.2073110     1.2931010
  H        3.4272510    -0.0583780     0.0000030
  H        2.1774630     2.2973190     0.0000360
units angstrom
no_reorient  #important for SAPT in psi4, default
symmetry c1  #important for SAPT in psi4, default
}

set PROPERTIES_ORIGIN ["COM"]
properties('MP2/aug-cc-pvtz', properties = ['dipole'])
--------------------------------------------------------------------------

    Molecular point group: c1
  Charge       = 0
  Multiplicity = 1
  Basis Set: AUG-CC-PVTZ
    Blend: AUG-CC-PVTZ
  Basis Set: (AUG-CC-PVTZ AUX)
    Blend: AUG-CC-PVTZ-JKFIT

    Orbital Energies [Eh]
    ---------------------

    Doubly Occupied:

       1A    -91.991656     2A    -15.565491     3A    -11.308623
       4A    -11.266949     5A    -11.261094     6A    -11.249380
       7A    -11.218895     8A    -11.218879     9A     -8.992702
      10A     -6.673692    11A     -6.673054    12A     -6.672271
      13A     -1.254385    14A     -1.094062    15A     -1.055638
      16A     -0.987983    17A     -0.935269    18A     -0.842844
      19A     -0.788778    20A     -0.712009    21A     -0.688641
      22A     -0.625455    23A     -0.600516    24A     -0.583527
      25A     -0.556255    26A     -0.543584    27A     -0.527782
      28A     -0.519781    29A     -0.498868    30A     -0.486904
      31A     -0.481587    32A     -0.413508    33A     -0.378145
      34A     -0.341555

  @DF-RHF Final Energy:  -684.52554536079299

   => Energetics <=

    Nuclear Repulsion Energy =            436.1002888781469551
    One-Electron Energy =               -1803.2321397526031888
    Two-Electron Energy =                 682.6063055136631874
    Total Energy =                       -684.5255453607929894
  Basis Set: (AUG-CC-PVTZ AUX)
    Blend: AUG-CC-PVTZ-RI
    Molecular point group: c1

    Geometry (in Angstrom), charge = 0, multiplicity = 1:

       Center              X                  Y                   Z               Mass
    ------------   -----------------  -----------------  -----------------  -----------------
         S            1.136886727700    -1.145885326735    -0.000017707274    31.972071174400
         N            0.237448727700     1.267756673265     0.000015292726    14.003074004430
         C           -1.608774272300    -0.390676326735    -0.000009707274    12.000000000000
         C           -0.161809272300     0.010739673265    -0.000003707274    12.000000000000
         C           -2.294345272300     0.133482673265    -1.264415707274    12.000000000000
         C           -2.294337272300     0.133418673265     1.264428292726    12.000000000000
         C            2.271541727700     0.138595673265     0.000004292726    12.000000000000
         C            1.707008327700     1.347357373265     0.000020692726    12.000000000000
         H           -1.658757272300    -1.487576326735    -0.000037707274     1.007825032230
         H           -2.228194272300     1.224071673265    -1.293035707274     1.007825032230
         H           -3.349646272300    -0.157556326735    -1.276234707274     1.007825032230
         H           -1.815595272300    -0.263713326735    -2.164205707274     1.007825032230
         H           -1.815579272300    -0.263821326735     2.164194292726     1.007825032230
         H           -3.349637272300    -0.157622326735     1.276240292726     1.007825032230
         H           -2.228186272300     1.224006673265     1.293101292726     1.007825032230
         H            3.338281727700    -0.041682326735     0.000003292726     1.007825032230
         H            2.088493727700     2.314014673265     0.000036292726     1.007825032230

  Basis Set: AUG-CC-PVTZ
    Blend: AUG-CC-PVTZ
  Basis Set: (AUG-CC-PVTZ AUX)
    Blend: AUG-CC-PVTZ-JKFIT
	 Reference Energy          =    -684.5255453607929894 [Eh]
	 Singles Energy            =      -0.0000000000000000 [Eh]
	 Same-Spin Energy          =      -0.3750417889243501 [Eh]
	 Opposite-Spin Energy      =      -1.1966670653827272 [Eh]
	 Correlation Energy        =      -1.5717088543070772 [Eh]
	 Total Energy              =    -686.0972542151000653 [Eh]

	 ================> DF-SCS-MP2 Energies <==================
	-----------------------------------------------------------
	 SCS Same-Spin Scale       =       0.3333333333333333 [-]
	 SCS Opposite-Spin Scale   =       1.2000000000000000 [-]
	 SCS Same-Spin Energy      =      -0.1250139296414500 [Eh]
	 SCS Opposite-Spin Energy  =      -1.4360004784592726 [Eh]
	 SCS Correlation Energy    =      -1.5610144081007227 [Eh]
	 SCS Total Energy          =    -686.0865597688937214 [Eh]
	-----------------------------------------------------------

  Dipole Moment: [D]
     X:     0.5075      Y:    -1.0791      Z:    -0.0000     Total:     1.1925

*** Psi4 exiting successfully. Buy a developer a beer!
