                               Psi4 1.4a3.dev225

  ==> Input File <==

--------------------------------------------------------------------------
#psi4
#
memory 32 gb

molecule  {
0 1
  S        1.2258560    -1.1625810    -0.0000180
  N        0.3264180     1.2510610     0.0000150
  C       -1.5370410    -0.3933785     0.0148542
  C       -0.0728400    -0.0059560    -0.0000040
  C       -2.2053760     0.1167870    -1.2644160
  C       -2.2053680     0.1167230     1.2644280
  C        2.3605110     0.1219000     0.0000040
  C        1.6961240     1.3252530     0.0000200
  H       -1.5697880    -1.5042720    -0.0000380
  H       -2.1392250     1.2073760    -1.2930360
  H       -3.2606770    -0.1742520    -1.2762350
  H       -1.7266260    -0.2804090    -2.1642060
  H       -1.7266100    -0.2805170     2.1641940
  H       -3.2606680    -0.1743180     1.2762400
  H       -2.1392170     1.2073110     1.2931010
  H        3.4272510    -0.0583780     0.0000030
  H        2.1774630     2.2973190     0.0000360
units angstrom
no_reorient  #important for SAPT in psi4, default
symmetry c1  #important for SAPT in psi4, default
}

set PROPERTIES_ORIGIN ["COM"]
properties('MP2/aug-cc-pvtz', properties = ['dipole'])
--------------------------------------------------------------------------

    Molecular point group: c1
  Charge       = 0
  Multiplicity = 1
  Basis Set: AUG-CC-PVTZ
    Blend: AUG-CC-PVTZ
  Basis Set: (AUG-CC-PVTZ AUX)
    Blend: AUG-CC-PVTZ-JKFIT

    Orbital Energies [Eh]
    ---------------------

    Doubly Occupied:

       1A    -91.994228     2A    -15.563647     3A    -11.309955
       4A    -11.268718     5A    -11.260434     6A    -11.250343
       7A    -11.219297     8A    -11.218296     9A     -8.994815
      10A     -6.675712    11A     -6.675213    12A     -6.674495
      13A     -1.274344    14A     -1.095680    15A     -1.061038
      16A     -0.981297    17A     -0.937951    18A     -0.837218
      19A     -0.792104    20A     -0.715956    21A     -0.682302
      22A     -0.627093    23A     -0.602334    24A     -0.586853
      25A     -0.566991    26A     -0.546035    27A     -0.531569
      28A     -0.503853    29A     -0.497669    30A     -0.491777
      31A     -0.479179    32A     -0.421894    33A     -0.386846
      34A     -0.328191

  @DF-RHF Final Energy:  -684.53282918818331

   => Energetics <=

    Nuclear Repulsion Energy =            437.4619795522138475
    One-Electron Energy =               -1805.8829629951590050
    Two-Electron Energy =                 683.8881542547619574
    Total Energy =                       -684.5328291881833138
  Basis Set: (AUG-CC-PVTZ AUX)
    Blend: AUG-CC-PVTZ-RI
    Molecular point group: c1

    Geometry (in Angstrom), charge = 0, multiplicity = 1:

       Center              X                  Y                   Z               Mass
    ------------   -----------------  -----------------  -----------------  -----------------
         S            1.147946343512    -1.146696197981    -0.001421657049    31.972071174400
         N            0.248508343512     1.266945802019    -0.001388657049    14.003074004430
         C           -1.614950656488    -0.377493697981     0.013450542951    12.000000000000
         C           -0.150749656488     0.009928802019    -0.001407657049    12.000000000000
         C           -2.283285656488     0.132671802019    -1.265819657049    12.000000000000
         C           -2.283277656488     0.132607802019     1.263024342951    12.000000000000
         C            2.282601343512     0.137784802019    -0.001399657049    12.000000000000
         C            1.618214343512     1.341137802019    -0.001383657049    12.000000000000
         H           -1.647697656488    -1.488387197981    -0.001441657049     1.007825032230
         H           -2.217134656488     1.223260802019    -1.294439657049     1.007825032230
         H           -3.338586656488    -0.158367197981    -1.277638657049     1.007825032230
         H           -1.804535656488    -0.264524197981    -2.165609657049     1.007825032230
         H           -1.804519656488    -0.264632197981     2.162790342951     1.007825032230
         H           -3.338577656488    -0.158433197981     1.274836342951     1.007825032230
         H           -2.217126656488     1.223195802019     1.291697342951     1.007825032230
         H            3.349341343512    -0.042493197981    -0.001400657049     1.007825032230
         H            2.099553343512     2.313203802019    -0.001367657049     1.007825032230

  Basis Set: AUG-CC-PVTZ
    Blend: AUG-CC-PVTZ
  Basis Set: (AUG-CC-PVTZ AUX)
    Blend: AUG-CC-PVTZ-JKFIT
	 Reference Energy          =    -684.5328291881833138 [Eh]
	 Singles Energy            =      -0.0000000000000000 [Eh]
	 Same-Spin Energy          =      -0.3769235458629919 [Eh]
	 Opposite-Spin Energy      =      -1.1968542500552333 [Eh]
	 Correlation Energy        =      -1.5737777959182253 [Eh]
	 Total Energy              =    -686.1066069841015178 [Eh]

	 ================> DF-SCS-MP2 Energies <==================
	-----------------------------------------------------------
	 SCS Same-Spin Scale       =       0.3333333333333333 [-]
	 SCS Opposite-Spin Scale   =       1.2000000000000000 [-]
	 SCS Same-Spin Energy      =      -0.1256411819543306 [Eh]
	 SCS Opposite-Spin Energy  =      -1.4362251000662798 [Eh]
	 SCS Correlation Energy    =      -1.5618662820206104 [Eh]
	 SCS Total Energy          =    -686.0946954702038738 [Eh]
	-----------------------------------------------------------

  Dipole Moment: [D]
     X:     0.4974      Y:    -1.1356      Z:     0.0110     Total:     1.2398

*** Psi4 exiting successfully. Buy a developer a beer!
