                               Psi4 1.4a3.dev225

  ==> Input File <==

--------------------------------------------------------------------------
#psi4
#
memory 32 gb

molecule  {
0 1
  S        1.2258560    -1.1625810    -0.0000180
  N        0.3264180     1.2510610     0.0000150
  C       -1.5198050    -0.4073720    -0.0000100
  C       -0.0728400    -0.0059560    -0.0000040
  C       -2.2053760     0.1167870    -1.2644160
  C       -2.2053680     0.1167230     1.2644280
  C        2.3605110     0.1219000     0.0000040
  C        1.6961240     1.3252530     0.0000200
  H       -1.5697880    -1.5042720    -0.0000380
  H       -2.1392250     1.2073760    -1.2930360
  H       -3.0678860    -0.1210826    -1.2740758
  H       -1.7266260    -0.2804090    -2.1642060
  H       -1.7266100    -0.2805170     2.1641940
  H       -3.2606680    -0.1743180     1.2762400
  H       -2.1392170     1.2073110     1.2931010
  H        3.4272510    -0.0583780     0.0000030
  H        2.1774630     2.2973190     0.0000360
units angstrom
no_reorient  #important for SAPT in psi4, default
symmetry c1  #important for SAPT in psi4, default
}

set PROPERTIES_ORIGIN ["COM"]
properties('MP2/aug-cc-pvtz', properties = ['dipole'])
--------------------------------------------------------------------------

    Molecular point group: c1
  Charge       = 0
  Multiplicity = 1
  Basis Set: AUG-CC-PVTZ
    Blend: AUG-CC-PVTZ
  Basis Set: (AUG-CC-PVTZ AUX)
    Blend: AUG-CC-PVTZ-JKFIT

    Orbital Energies [Eh]
    ---------------------

    Doubly Occupied:

       1A    -91.992955     2A    -15.562649     3A    -11.308910
       4A    -11.268040     5A    -11.259380     6A    -11.248085
       7A    -11.219491     8A    -11.194348     9A     -8.993607
      10A     -6.674510    11A     -6.674000    12A     -6.673287
      13A     -1.273609    14A     -1.097954    15A     -1.060230
      16A     -0.985092    17A     -0.950058    18A     -0.848121
      19A     -0.791681    20A     -0.716269    21A     -0.682936
      22A     -0.631561    23A     -0.611427    24A     -0.593375
      25A     -0.566727    26A     -0.546934    27A     -0.541091
      28A     -0.504452    29A     -0.503215    30A     -0.486285
      31A     -0.482253    32A     -0.421206    33A     -0.386012
      34A     -0.326930

  @DF-RHF Final Energy:  -684.49993720520024

   => Energetics <=

    Nuclear Repulsion Energy =            438.5978853289514063
    One-Electron Energy =               -1808.0422866476403669
    Two-Electron Energy =                 684.9444641134887206
    Total Energy =                       -684.4999372052002400
  Basis Set: (AUG-CC-PVTZ AUX)
    Blend: AUG-CC-PVTZ-RI
    Molecular point group: c1

    Geometry (in Angstrom), charge = 0, multiplicity = 1:

       Center              X                  Y                   Z               Mass
    ------------   -----------------  -----------------  -----------------  -----------------
         S            1.144788959950    -1.145796233132    -0.000034797959    31.972071174400
         N            0.245350959950     1.267845766868    -0.000001797959    14.003074004430
         C           -1.600872040050    -0.390587233132    -0.000026797959    12.000000000000
         C           -0.153907040050     0.010828766868    -0.000020797959    12.000000000000
         C           -2.286443040050     0.133571766868    -1.264432797959    12.000000000000
         C           -2.286435040050     0.133507766868     1.264411202041    12.000000000000
         C            2.279443959950     0.138684766868    -0.000012797959    12.000000000000
         C            1.615056959950     1.342037766868     0.000003202041    12.000000000000
         H           -1.650855040050    -1.487487233132    -0.000054797959     1.007825032230
         H           -2.220292040050     1.224160766868    -1.293052797959     1.007825032230
         H           -3.148953040050    -0.104297833132    -1.274092597959     1.007825032230
         H           -1.807693040050    -0.263624233132    -2.164222797959     1.007825032230
         H           -1.807677040050    -0.263732233132     2.164177202041     1.007825032230
         H           -3.341735040050    -0.157533233132     1.276223202041     1.007825032230
         H           -2.220284040050     1.224095766868     1.293084202041     1.007825032230
         H            3.346183959950    -0.041593233132    -0.000013797959     1.007825032230
         H            2.096395959950     2.314103766868     0.000019202041     1.007825032230

  Basis Set: AUG-CC-PVTZ
    Blend: AUG-CC-PVTZ
  Basis Set: (AUG-CC-PVTZ AUX)
    Blend: AUG-CC-PVTZ-JKFIT
	 Reference Energy          =    -684.4999372052002400 [Eh]
	 Singles Energy            =      -0.0000000000000000 [Eh]
	 Same-Spin Energy          =      -0.3769711996685866 [Eh]
	 Opposite-Spin Energy      =      -1.1961509595297533 [Eh]
	 Correlation Energy        =      -1.5731221591983398 [Eh]
	 Total Energy              =    -686.0730593643985458 [Eh]

	 ================> DF-SCS-MP2 Energies <==================
	-----------------------------------------------------------
	 SCS Same-Spin Scale       =       0.3333333333333333 [-]
	 SCS Opposite-Spin Scale   =       1.2000000000000000 [-]
	 SCS Same-Spin Energy      =      -0.1256570665561955 [Eh]
	 SCS Opposite-Spin Energy  =      -1.4353811514357038 [Eh]
	 SCS Correlation Energy    =      -1.5610382179918993 [Eh]
	 SCS Total Energy          =    -686.0609754231921897 [Eh]
	-----------------------------------------------------------

  Dipole Moment: [D]
     X:     0.3635      Y:    -1.1610      Z:    -0.0266     Total:     1.2169

*** Psi4 exiting successfully. Buy a developer a beer!
