                               Psi4 1.4a3.dev225

  ==> Input File <==

--------------------------------------------------------------------------
#psi4
#
memory 32 gb

molecule  {
0 1
  S        1.2258560    -1.1625810    -0.0000180
  N        0.3264180     1.2510610     0.0000150
  C       -1.5198050    -0.4073720    -0.0000100
  C       -0.0728400    -0.0059560    -0.0000040
  C       -2.1964192     0.1099390    -1.2478969
  C       -2.2053680     0.1167230     1.2644280
  C        2.3605110     0.1219000     0.0000040
  C        1.6961240     1.3252530     0.0000200
  H       -1.5697880    -1.5042720    -0.0000380
  H       -2.1392250     1.2073760    -1.2930360
  H       -3.2606770    -0.1742520    -1.2762350
  H       -1.7266260    -0.2804090    -2.1642060
  H       -1.7266100    -0.2805170     2.1641940
  H       -3.2606680    -0.1743180     1.2762400
  H       -2.1392170     1.2073110     1.2931010
  H        3.4272510    -0.0583780     0.0000030
  H        2.1774630     2.2973190     0.0000360
units angstrom
no_reorient  #important for SAPT in psi4, default
symmetry c1  #important for SAPT in psi4, default
}

set PROPERTIES_ORIGIN ["COM"]
properties('MP2/aug-cc-pvtz', properties = ['dipole'])
--------------------------------------------------------------------------

    Molecular point group: c1
  Charge       = 0
  Multiplicity = 1
  Basis Set: AUG-CC-PVTZ
    Blend: AUG-CC-PVTZ
  Basis Set: (AUG-CC-PVTZ AUX)
    Blend: AUG-CC-PVTZ-JKFIT

    Orbital Energies [Eh]
    ---------------------

    Doubly Occupied:

       1A    -91.994066     2A    -15.564031     3A    -11.310085
       4A    -11.268948     5A    -11.260519     6A    -11.248678
       7A    -11.219980     8A    -11.219347     9A     -8.994699
      10A     -6.675599    11A     -6.675090    12A     -6.674376
      13A     -1.274867    14A     -1.097099    15A     -1.061291
      16A     -0.981232    17A     -0.935580    18A     -0.839585
      19A     -0.792823    20A     -0.717032    21A     -0.683518
      22A     -0.626604    23A     -0.601682    24A     -0.587528
      25A     -0.566849    26A     -0.544486    27A     -0.529939
      28A     -0.504317    29A     -0.498867    30A     -0.488854
      31A     -0.481944    32A     -0.422194    33A     -0.386938
      34A     -0.328083

  @DF-RHF Final Energy:  -684.53302370099107

   => Energetics <=

    Nuclear Repulsion Energy =            437.8727491547992372
    One-Electron Energy =               -1806.6980831712837698
    Two-Electron Energy =                 684.2923103154934097
    Total Energy =                       -684.5330237009910661
  Basis Set: (AUG-CC-PVTZ AUX)
    Blend: AUG-CC-PVTZ-RI
    Molecular point group: c1

    Geometry (in Angstrom), charge = 0, multiplicity = 1:

       Center              X                  Y                   Z               Mass
    ------------   -----------------  -----------------  -----------------  -----------------
         S            1.145472321011    -1.144727628758    -0.001577969464    31.972071174400
         N            0.246034321011     1.268914371242    -0.001544969464    14.003074004430
         C           -1.600188678989    -0.389518628758    -0.001569969464    12.000000000000
         C           -0.153223678989     0.011897371242    -0.001563969464    12.000000000000
         C           -2.276802878989     0.127792371242    -1.249456869464    12.000000000000
         C           -2.285751678989     0.134576371242     1.262868030536    12.000000000000
         C            2.280127321011     0.139753371242    -0.001555969464    12.000000000000
         C            1.615740321011     1.343106371242    -0.001539969464    12.000000000000
         H           -1.650171678989    -1.486418628758    -0.001597969464     1.007825032230
         H           -2.219608678989     1.225229371242    -1.294595969464     1.007825032230
         H           -3.341060678989    -0.156398628758    -1.277794969464     1.007825032230
         H           -1.807009678989    -0.262555628758    -2.165765969464     1.007825032230
         H           -1.806993678989    -0.262663628758     2.162634030536     1.007825032230
         H           -3.341051678989    -0.156464628758     1.274680030536     1.007825032230
         H           -2.219600678989     1.225164371242     1.291541030536     1.007825032230
         H            3.346867321011    -0.040524628758    -0.001556969464     1.007825032230
         H            2.097079321011     2.315172371242    -0.001523969464     1.007825032230

  Basis Set: AUG-CC-PVTZ
    Blend: AUG-CC-PVTZ
  Basis Set: (AUG-CC-PVTZ AUX)
    Blend: AUG-CC-PVTZ-JKFIT
	 Reference Energy          =    -684.5330237009910661 [Eh]
	 Singles Energy            =      -0.0000000000000000 [Eh]
	 Same-Spin Energy          =      -0.3770453616483411 [Eh]
	 Opposite-Spin Energy      =      -1.1969629749654926 [Eh]
	 Correlation Energy        =      -1.5740083366138338 [Eh]
	 Total Energy              =    -686.1070320376048812 [Eh]

	 ================> DF-SCS-MP2 Energies <==================
	-----------------------------------------------------------
	 SCS Same-Spin Scale       =       0.3333333333333333 [-]
	 SCS Opposite-Spin Scale   =       1.2000000000000000 [-]
	 SCS Same-Spin Energy      =      -0.1256817872161137 [Eh]
	 SCS Opposite-Spin Energy  =      -1.4363555699585910 [Eh]
	 SCS Correlation Energy    =      -1.5620373571747048 [Eh]
	 SCS Total Energy          =    -686.0950610581658111 [Eh]
	-----------------------------------------------------------

  Dipole Moment: [D]
     X:     0.5004      Y:    -1.1426      Z:     0.0009     Total:     1.2473

*** Psi4 exiting successfully. Buy a developer a beer!
