                               Psi4 1.4a3.dev225

  ==> Input File <==

--------------------------------------------------------------------------
#psi4
#
memory 32 gb

molecule  {
0 1
  S        1.2258560    -1.1625810    -0.0000180
  N        0.3264180     1.2510610     0.0000150
  C       -1.5198050    -0.4073720    -0.0000100
  C       -0.0879760    -0.0536100    -0.0000047
  C       -2.2053760     0.1167870    -1.2644160
  C       -2.2053680     0.1167230     1.2644280
  C        2.3605110     0.1219000     0.0000040
  C        1.6961240     1.3252530     0.0000200
  H       -1.5697880    -1.5042720    -0.0000380
  H       -2.1392250     1.2073760    -1.2930360
  H       -3.2606770    -0.1742520    -1.2762350
  H       -1.7266260    -0.2804090    -2.1642060
  H       -1.7266100    -0.2805170     2.1641940
  H       -3.2606680    -0.1743180     1.2762400
  H       -2.1392170     1.2073110     1.2931010
  H        3.4272510    -0.0583780     0.0000030
  H        2.1774630     2.2973190     0.0000360
units angstrom
no_reorient  #important for SAPT in psi4, default
symmetry c1  #important for SAPT in psi4, default
}

set PROPERTIES_ORIGIN ["COM"]
properties('MP2/aug-cc-pvtz', properties = ['dipole'])
--------------------------------------------------------------------------

    Molecular point group: c1
  Charge       = 0
  Multiplicity = 1
  Basis Set: AUG-CC-PVTZ
    Blend: AUG-CC-PVTZ
  Basis Set: (AUG-CC-PVTZ AUX)
    Blend: AUG-CC-PVTZ-JKFIT

    Orbital Energies [Eh]
    ---------------------

    Doubly Occupied:

       1A    -91.998132     2A    -15.565116     3A    -11.312744
       4A    -11.268863     5A    -11.258902     6A    -11.248574
       7A    -11.219919     8A    -11.219904     9A     -8.998643
      10A     -6.679544    11A     -6.679087    12A     -6.678398
      13A     -1.261450    14A     -1.098458    15A     -1.058800
      16A     -0.981077    17A     -0.936263    18A     -0.845808
      19A     -0.786880    20A     -0.717988    21A     -0.680856
      22A     -0.626712    23A     -0.601239    24A     -0.586153
      25A     -0.564408    26A     -0.544573    27A     -0.529813
      28A     -0.504013    29A     -0.501986    30A     -0.488036
      31A     -0.483371    32A     -0.422563    33A     -0.382932
      34A     -0.325542

  @DF-RHF Final Energy:  -684.52696993157133

   => Energetics <=

    Nuclear Repulsion Energy =            437.3566499250590027
    One-Electron Energy =               -1805.6537508586759486
    Two-Electron Energy =                 683.7701310020456731
    Total Energy =                       -684.5269699315713297
  Basis Set: (AUG-CC-PVTZ AUX)
    Blend: AUG-CC-PVTZ-RI
    Molecular point group: c1

    Geometry (in Angstrom), charge = 0, multiplicity = 1:

       Center              X                  Y                   Z               Mass
    ------------   -----------------  -----------------  -----------------  -----------------
         S            1.147747989489    -1.140873326729    -0.000017603375    31.972071174400
         N            0.248309989489     1.272768673271     0.000015396625    14.003074004430
         C           -1.597913010511    -0.385664326729    -0.000009603375    12.000000000000
         C           -0.166084010511    -0.031902326729    -0.000004303375    12.000000000000
         C           -2.283484010511     0.138494673271    -1.264415603375    12.000000000000
         C           -2.283476010511     0.138430673271     1.264428396625    12.000000000000
         C            2.282402989489     0.143607673271     0.000004396625    12.000000000000
         C            1.618015989489     1.346960673271     0.000020396625    12.000000000000
         H           -1.647896010511    -1.482564326729    -0.000037603375     1.007825032230
         H           -2.217333010511     1.229083673271    -1.293035603375     1.007825032230
         H           -3.338785010511    -0.152544326729    -1.276234603375     1.007825032230
         H           -1.804734010511    -0.258701326729    -2.164205603375     1.007825032230
         H           -1.804718010511    -0.258809326729     2.164194396625     1.007825032230
         H           -3.338776010511    -0.152610326729     1.276240396625     1.007825032230
         H           -2.217325010511     1.229018673271     1.293101396625     1.007825032230
         H            3.349142989489    -0.036670326729     0.000003396625     1.007825032230
         H            2.099354989489     2.319026673271     0.000036396625     1.007825032230

  Basis Set: AUG-CC-PVTZ
    Blend: AUG-CC-PVTZ
  Basis Set: (AUG-CC-PVTZ AUX)
    Blend: AUG-CC-PVTZ-JKFIT
	 Reference Energy          =    -684.5269699315713297 [Eh]
	 Singles Energy            =      -0.0000000000000000 [Eh]
	 Same-Spin Energy          =      -0.3785093822242429 [Eh]
	 Opposite-Spin Energy      =      -1.1990080819656230 [Eh]
	 Correlation Energy        =      -1.5775174641898659 [Eh]
	 Total Energy              =    -686.1044873957612253 [Eh]

	 ================> DF-SCS-MP2 Energies <==================
	-----------------------------------------------------------
	 SCS Same-Spin Scale       =       0.3333333333333333 [-]
	 SCS Opposite-Spin Scale   =       1.2000000000000000 [-]
	 SCS Same-Spin Energy      =      -0.1261697940747476 [Eh]
	 SCS Opposite-Spin Energy  =      -1.4388096983587475 [Eh]
	 SCS Correlation Energy    =      -1.5649794924334952 [Eh]
	 SCS Total Energy          =    -686.0919494240048380 [Eh]
	-----------------------------------------------------------

  Dipole Moment: [D]
     X:     0.5492      Y:    -1.2241      Z:    -0.0000     Total:     1.3417

*** Psi4 exiting successfully. Buy a developer a beer!
