                               Psi4 1.3.2 release

  ==> Input File <==

--------------------------------------------------------------------------
#psi4
#
memory 32 gb

molecule  {
0 1
  O       -0.4083860    -1.2037120     0.0000020
  O        1.7243640     1.6671510     0.0000140
  N        2.2253870    -0.5811730    -0.0000150
  C       -2.3031430     0.0242890     0.0000050
  C       -0.0581496     0.1228600    -0.1500120
  C       -1.1822370     0.9067590    -0.0000090
  C       -1.7775000    -1.2415930     0.0000090
  C        1.3735220     0.4821180    -0.0000010
  C       -3.7529710     0.3950310    -0.0000010
  C        3.6643050    -0.4088610     0.0000040
  H       -1.1841660     1.9889020    -0.0000190
  H       -2.2178060    -2.2289420     0.0000270
  H       -4.0072870     0.9882130    -0.8832630
  H       -4.3837090    -0.4981310     0.0000100
  H       -4.0072900     0.9882370     0.8832440
  H        1.8267750    -1.5109680    -0.0000190
  H        4.1132610    -0.8568050    -0.8912560
  H        4.1132390    -0.8567810     0.8912880
  H        3.8584940     0.6633720    -0.0000070
units angstrom
no_reorient  #important for SAPT in psi4, default
symmetry c1  #important for SAPT in psi4, default
}

set PROPERTIES_ORIGIN ["COM"]
properties('MP2/aug-cc-pvtz', properties = ['dipole'])
--------------------------------------------------------------------------

    Molecular point group: c1
  Charge       = 0
  Multiplicity = 1
  Basis Set: AUG-CC-PVTZ
    Blend: AUG-CC-PVTZ
  Basis Set: (AUG-CC-PVTZ AUX)
    Blend: AUG-CC-PVTZ-JKFIT

    Orbital Energies [Eh]
    ---------------------

    Doubly Occupied:

       1A    -20.635783     2A    -20.513618     3A    -15.586270
       4A    -11.358186     5A    -11.302444     6A    -11.299324
       7A    -11.257551     8A    -11.250701     9A    -11.249326
      10A    -11.239125    11A     -1.464873    12A     -1.368188
      13A     -1.228700    14A     -1.112987    15A     -1.039340
      16A     -0.972619    17A     -0.940361    18A     -0.838486
      19A     -0.794929    20A     -0.772506    21A     -0.735441
      22A     -0.668545    23A     -0.653460    24A     -0.635285
      25A     -0.617048    26A     -0.596885    27A     -0.590232
      28A     -0.581018    29A     -0.576402    30A     -0.551348
      31A     -0.542821    32A     -0.532709    33A     -0.521798
      34A     -0.430788    35A     -0.398105    36A     -0.388365
      37A     -0.324305

  @DF-RHF Final Energy:  -474.64713103628873

   => Energetics <=

    Nuclear Repulsion Energy =            509.2957115411933273
    One-Electron Energy =               -1656.7459433261458344
    Two-Electron Energy =                 672.8031007486636099
    Total Energy =                       -474.6471310362887834
  Basis Set: (AUG-CC-PVTZ AUX)
    Blend: AUG-CC-PVTZ-RI
    Molecular point group: c1

    Geometry (in Angstrom), charge = 0, multiplicity = 1:

       Center              X                  Y                   Z               Mass
    ------------   -----------------  -----------------  -----------------  -----------------
         O           -0.421860903364    -1.213120950319     0.012945808460    15.994914619570
         O            1.710889096636     1.657742049681     0.012957808460    15.994914619570
         N            2.211912096636    -0.590581950319     0.012928808460    14.003074004430
         C           -2.316617903364     0.014880049681     0.012948808460    12.000000000000
         C           -0.071624503364     0.113451049681    -0.137068191540    12.000000000000
         C           -1.195711903364     0.897350049681     0.012934808460    12.000000000000
         C           -1.790974903364    -1.251001950319     0.012952808460    12.000000000000
         C            1.360047096636     0.472709049681     0.012942808460    12.000000000000
         C           -3.766445903364     0.385622049681     0.012942808460    12.000000000000
         C            3.650830096636    -0.418269950319     0.012947808460    12.000000000000
         H           -1.197640903364     1.979493049681     0.012924808460     1.007825032230
         H           -2.231280903364    -2.238350950319     0.012970808460     1.007825032230
         H           -4.020761903364     0.978804049681    -0.870319191540     1.007825032230
         H           -4.397183903364    -0.507539950319     0.012953808460     1.007825032230
         H           -4.020764903364     0.978828049681     0.896187808460     1.007825032230
         H            1.813300096636    -1.520376950319     0.012924808460     1.007825032230
         H            4.099786096636    -0.866213950319    -0.878312191540     1.007825032230
         H            4.099764096636    -0.866189950319     0.904231808460     1.007825032230
         H            3.845019096636     0.653963049681     0.012936808460     1.007825032230

  Basis Set: AUG-CC-PVTZ
    Blend: AUG-CC-PVTZ
  Basis Set: (AUG-CC-PVTZ AUX)
    Blend: AUG-CC-PVTZ-JKFIT
	 Reference Energy          =    -474.6471310362887266 [Eh]
	 Singles Energy            =      -0.0000000000000000 [Eh]
	 Same-Spin Energy          =      -0.4911752676117280 [Eh]
	 Opposite-Spin Energy      =      -1.5272049026388559 [Eh]
	 Correlation Energy        =      -2.0183801702505839 [Eh]
	 Total Energy              =    -476.6655112065392927 [Eh]

	 ================> DF-SCS-MP2 Energies <==================
	-----------------------------------------------------------
	 SCS Same-Spin Scale       =       0.3333333333333333 [-]
	 SCS Opposite-Spin Scale   =       1.2000000000000000 [-]
	 SCS Same-Spin Energy      =      -0.1637250892039093 [Eh]
	 SCS Opposite-Spin Energy  =      -1.8326458831666270 [Eh]
	 SCS Correlation Energy    =      -1.9963709723705363 [Eh]
	 SCS Total Energy          =    -476.6435020086592544 [Eh]
	-----------------------------------------------------------

  Dipole Moment: [D]
     X:    -1.3358      Y:    -3.1362      Z:    -0.0025     Total:     3.4088

*** Psi4 exiting successfully. Buy a developer a beer!
