                               Psi4 1.3.2 release

  ==> Input File <==

--------------------------------------------------------------------------
#psi4
#
memory 32 gb

molecule  {
0 1
  O       -0.4083860    -1.2037120     0.0000020
  O        1.7243640     1.6671510     0.0000140
  N        2.2253870    -0.5811730    -0.0000150
  C       -2.3031430     0.0242890     0.0000050
  C       -0.0581500     0.1228580    -0.0000120
  C       -1.1822370     0.9067590    -0.0000090
  C       -1.7775000    -1.2415930     0.0000090
  C        1.3735225     0.4821171    -0.2000010
  C       -3.7529710     0.3950310    -0.0000010
  C        3.6643050    -0.4088610     0.0000040
  H       -1.1841660     1.9889020    -0.0000190
  H       -2.2178060    -2.2289420     0.0000270
  H       -4.0072870     0.9882130    -0.8832630
  H       -4.3837090    -0.4981310     0.0000100
  H       -4.0072900     0.9882370     0.8832440
  H        1.8267750    -1.5109680    -0.0000190
  H        4.1132610    -0.8568050    -0.8912560
  H        4.1132390    -0.8567810     0.8912880
  H        3.8584940     0.6633720    -0.0000070
units angstrom
no_reorient  #important for SAPT in psi4, default
symmetry c1  #important for SAPT in psi4, default
}

set PROPERTIES_ORIGIN ["COM"]
properties('MP2/aug-cc-pvtz', properties = ['dipole'])
--------------------------------------------------------------------------

    Molecular point group: c1
  Charge       = 0
  Multiplicity = 1
  Basis Set: AUG-CC-PVTZ
    Blend: AUG-CC-PVTZ
  Basis Set: (AUG-CC-PVTZ AUX)
    Blend: AUG-CC-PVTZ-JKFIT

    Orbital Energies [Eh]
    ---------------------

    Doubly Occupied:

       1A    -20.636341     2A    -20.517466     3A    -15.588390
       4A    -11.364046     5A    -11.301101     6A    -11.300613
       7A    -11.257600     8A    -11.250010     9A    -11.245856
      10A    -11.238596    11A     -1.467658    12A     -1.361797
      13A     -1.224818    14A     -1.112865    15A     -1.039210
      16A     -0.972359    17A     -0.939572    18A     -0.838141
      19A     -0.796270    20A     -0.769748    21A     -0.735937
      22A     -0.667864    23A     -0.654357    24A     -0.633433
      25A     -0.616039    26A     -0.596201    27A     -0.588392
      28A     -0.579969    29A     -0.578164    30A     -0.550753
      31A     -0.542482    32A     -0.530471    33A     -0.521150
      34A     -0.430920    35A     -0.398267    36A     -0.386588
      37A     -0.322861

  @DF-RHF Final Energy:  -474.63496054832638

   => Energetics <=

    Nuclear Repulsion Energy =            508.9782668934506091
    One-Electron Energy =               -1656.1138437161555430
    Two-Electron Energy =                 672.5006162743785580
    Total Energy =                       -474.6349605483263758
  Basis Set: (AUG-CC-PVTZ AUX)
    Blend: AUG-CC-PVTZ-RI
    Molecular point group: c1

    Geometry (in Angstrom), charge = 0, multiplicity = 1:

       Center              X                  Y                   Z               Mass
    ------------   -----------------  -----------------  -----------------  -----------------
         O           -0.421860911993    -1.213120700073     0.017260389495    15.994914619570
         O            1.710889088007     1.657742299927     0.017272389495    15.994914619570
         N            2.211912088007    -0.590581700073     0.017243389495    14.003074004430
         C           -2.316617911993     0.014880299927     0.017263389495    12.000000000000
         C           -0.071624911993     0.113449299927     0.017246389495    12.000000000000
         C           -1.195711911993     0.897350299927     0.017249389495    12.000000000000
         C           -1.790974911993    -1.251001700073     0.017267389495    12.000000000000
         C            1.360047588007     0.472708399927    -0.182742610505    12.000000000000
         C           -3.766445911993     0.385622299927     0.017257389495    12.000000000000
         C            3.650830088007    -0.418269700073     0.017262389495    12.000000000000
         H           -1.197640911993     1.979493299927     0.017239389495     1.007825032230
         H           -2.231280911993    -2.238350700073     0.017285389495     1.007825032230
         H           -4.020761911993     0.978804299927    -0.866004610505     1.007825032230
         H           -4.397183911993    -0.507539700073     0.017268389495     1.007825032230
         H           -4.020764911993     0.978828299927     0.900502389495     1.007825032230
         H            1.813300088007    -1.520376700073     0.017239389495     1.007825032230
         H            4.099786088007    -0.866213700073    -0.873997610505     1.007825032230
         H            4.099764088007    -0.866189700073     0.908546389495     1.007825032230
         H            3.845019088007     0.653963299927     0.017251389495     1.007825032230

  Basis Set: AUG-CC-PVTZ
    Blend: AUG-CC-PVTZ
  Basis Set: (AUG-CC-PVTZ AUX)
    Blend: AUG-CC-PVTZ-JKFIT
	 Reference Energy          =    -474.6349605483263758 [Eh]
	 Singles Energy            =      -0.0000000000000000 [Eh]
	 Same-Spin Energy          =      -0.4920316652418858 [Eh]
	 Opposite-Spin Energy      =      -1.5294328708481788 [Eh]
	 Correlation Energy        =      -2.0214645360900647 [Eh]
	 Total Energy              =    -476.6564250844164690 [Eh]

	 ================> DF-SCS-MP2 Energies <==================
	-----------------------------------------------------------
	 SCS Same-Spin Scale       =       0.3333333333333333 [-]
	 SCS Opposite-Spin Scale   =       1.2000000000000000 [-]
	 SCS Same-Spin Energy      =      -0.1640105550806286 [Eh]
	 SCS Opposite-Spin Energy  =      -1.8353194450178145 [Eh]
	 SCS Correlation Energy    =      -1.9993300000984431 [Eh]
	 SCS Total Energy          =    -476.6342905484248149 [Eh]
	-----------------------------------------------------------

  Dipole Moment: [D]
     X:    -1.2589      Y:    -3.1143      Z:    -0.1944     Total:     3.3647

*** Psi4 exiting successfully. Buy a developer a beer!
