                               Psi4 1.3.2 release

  ==> Input File <==

--------------------------------------------------------------------------
#psi4
#
memory 32 gb

molecule  {
0 1
  O       -0.4083860    -1.2037120     0.0000020
  O        1.7243640     1.6671510     0.0000140
  N        2.2253870    -0.5811730    -0.0000150
  C       -2.3031430     0.0242890     0.0000050
  C       -0.0581500     0.1228580    -0.0000120
  C       -1.1822370     0.9067590    -0.0000090
  C       -1.7775000    -1.2415930     0.0000090
  C        1.3735220     0.4821180    -0.0000010
  C       -3.7529710     0.3950310    -0.0000010
  C        3.6643050    -0.4088610     0.0000040
  H       -1.1841656     1.9889024     0.0499810
  H       -2.2178060    -2.2289420     0.0000270
  H       -4.0072870     0.9882130    -0.8832630
  H       -4.3837090    -0.4981310     0.0000100
  H       -4.0072900     0.9882370     0.8832440
  H        1.8267750    -1.5109680    -0.0000190
  H        4.1132610    -0.8568050    -0.8912560
  H        4.1132390    -0.8567810     0.8912880
  H        3.8584940     0.6633720    -0.0000070
units angstrom
no_reorient  #important for SAPT in psi4, default
symmetry c1  #important for SAPT in psi4, default
}

set PROPERTIES_ORIGIN ["COM"]
properties('MP2/aug-cc-pvtz', properties = ['dipole'])
--------------------------------------------------------------------------

    Molecular point group: c1
  Charge       = 0
  Multiplicity = 1
  Basis Set: AUG-CC-PVTZ
    Blend: AUG-CC-PVTZ
  Basis Set: (AUG-CC-PVTZ AUX)
    Blend: AUG-CC-PVTZ-JKFIT

    Orbital Energies [Eh]
    ---------------------

    Doubly Occupied:

       1A    -20.636782     2A    -20.514175     3A    -15.587153
       4A    -11.358397     5A    -11.300906     6A    -11.299020
       7A    -11.258059     8A    -11.250173     9A    -11.246531
      10A    -11.238733    11A     -1.467998    12A     -1.368989
      13A     -1.229550    14A     -1.113091    15A     -1.041006
      16A     -0.973428    17A     -0.940812    18A     -0.839870
      19A     -0.796489    20A     -0.773076    21A     -0.736981
      22A     -0.668095    23A     -0.656075    24A     -0.635962
      25A     -0.617384    26A     -0.596392    27A     -0.591386
      28A     -0.580150    29A     -0.578420    30A     -0.551422
      31A     -0.543268    32A     -0.534105    33A     -0.521754
      34A     -0.431906    35A     -0.398938    36A     -0.388932
      37A     -0.324017

  @DF-RHF Final Energy:  -474.65390036208197

   => Energetics <=

    Nuclear Repulsion Energy =            509.6460111063091745
    One-Electron Energy =               -1657.4209676204918651
    Two-Electron Energy =                 673.1210561521005502
    Total Energy =                       -474.6539003620820267
  Basis Set: (AUG-CC-PVTZ AUX)
    Blend: AUG-CC-PVTZ-RI
    Molecular point group: c1

    Geometry (in Angstrom), charge = 0, multiplicity = 1:

       Center              X                  Y                   Z               Mass
    ------------   -----------------  -----------------  -----------------  -----------------
         O           -0.421860871746    -1.213120780635    -0.000360296544    15.994914619570
         O            1.710889128254     1.657742219365    -0.000348296544    15.994914619570
         N            2.211912128254    -0.590581780635    -0.000377296544    14.003074004430
         C           -2.316617871746     0.014880219365    -0.000357296544    12.000000000000
         C           -0.071624871746     0.113449219365    -0.000374296544    12.000000000000
         C           -1.195711871746     0.897350219365    -0.000371296544    12.000000000000
         C           -1.790974871746    -1.251001780635    -0.000353296544    12.000000000000
         C            1.360047128254     0.472709219365    -0.000363296544    12.000000000000
         C           -3.766445871746     0.385622219365    -0.000363296544    12.000000000000
         C            3.650830128254    -0.418269780635    -0.000358296544    12.000000000000
         H           -1.197640471746     1.979493619365     0.049618703456     1.007825032230
         H           -2.231280871746    -2.238350780635    -0.000335296544     1.007825032230
         H           -4.020761871746     0.978804219365    -0.883625296544     1.007825032230
         H           -4.397183871746    -0.507539780635    -0.000352296544     1.007825032230
         H           -4.020764871746     0.978828219365     0.882881703456     1.007825032230
         H            1.813300128254    -1.520376780635    -0.000381296544     1.007825032230
         H            4.099786128254    -0.866213780635    -0.891618296544     1.007825032230
         H            4.099764128254    -0.866189780635     0.890925703456     1.007825032230
         H            3.845019128254     0.653963219365    -0.000369296544     1.007825032230

  Basis Set: AUG-CC-PVTZ
    Blend: AUG-CC-PVTZ
  Basis Set: (AUG-CC-PVTZ AUX)
    Blend: AUG-CC-PVTZ-JKFIT
	 Reference Energy          =    -474.6539003620819699 [Eh]
	 Singles Energy            =      -0.0000000000000000 [Eh]
	 Same-Spin Energy          =      -0.4908557680648440 [Eh]
	 Opposite-Spin Energy      =      -1.5265063738696336 [Eh]
	 Correlation Energy        =      -2.0173621419344778 [Eh]
	 Total Energy              =    -476.6712625040164539 [Eh]

	 ================> DF-SCS-MP2 Energies <==================
	-----------------------------------------------------------
	 SCS Same-Spin Scale       =       0.3333333333333333 [-]
	 SCS Opposite-Spin Scale   =       1.2000000000000000 [-]
	 SCS Same-Spin Energy      =      -0.1636185893549480 [Eh]
	 SCS Opposite-Spin Energy  =      -1.8318076486435602 [Eh]
	 SCS Correlation Energy    =      -1.9954262379985082 [Eh]
	 SCS Total Energy          =    -476.6493266000804852 [Eh]
	-----------------------------------------------------------

  Dipole Moment: [D]
     X:    -1.2931      Y:    -3.1490      Z:     0.0372     Total:     3.4043

*** Psi4 exiting successfully. Buy a developer a beer!
