                               Psi4 1.3.2 release

  ==> Input File <==

--------------------------------------------------------------------------
#psi4
#
memory 32 gb

molecule  {
0 1
  O       -0.4083860    -1.2037120     0.0000020
  O        1.7243640     1.6671510     0.0000140
  N        2.2253870    -0.5811730    -0.0000150
  C       -2.3031430     0.0242890     0.0000050
  C       -0.0581500     0.1228580    -0.0000120
  C       -1.1822370     0.9067590    -0.0000090
  C       -1.7775000    -1.2415930     0.0000090
  C        1.3735224     0.4821174    -0.1500010
  C       -3.7529710     0.3950310    -0.0000010
  C        3.6643050    -0.4088610     0.0000040
  H       -1.1841660     1.9889020    -0.0000190
  H       -2.2178060    -2.2289420     0.0000270
  H       -4.0072870     0.9882130    -0.8832630
  H       -4.3837090    -0.4981310     0.0000100
  H       -4.0072900     0.9882370     0.8832440
  H        1.8267750    -1.5109680    -0.0000190
  H        4.1132610    -0.8568050    -0.8912560
  H        4.1132390    -0.8567810     0.8912880
  H        3.8584940     0.6633720    -0.0000070
units angstrom
no_reorient  #important for SAPT in psi4, default
symmetry c1  #important for SAPT in psi4, default
}

set PROPERTIES_ORIGIN ["COM"]
properties('MP2/aug-cc-pvtz', properties = ['dipole'])
--------------------------------------------------------------------------

    Molecular point group: c1
  Charge       = 0
  Multiplicity = 1
  Basis Set: AUG-CC-PVTZ
    Blend: AUG-CC-PVTZ
  Basis Set: (AUG-CC-PVTZ AUX)
    Blend: AUG-CC-PVTZ-JKFIT

    Orbital Energies [Eh]
    ---------------------

    Doubly Occupied:

       1A    -20.636524     2A    -20.516019     3A    -15.587853
       4A    -11.361628     5A    -11.300741     6A    -11.300185
       7A    -11.257795     8A    -11.250079     9A    -11.246110
      10A    -11.238658    11A     -1.467799    12A     -1.364905
      13A     -1.226846    14A     -1.112967    15A     -1.039983
      16A     -0.972823    17A     -0.940112    18A     -0.838887
      19A     -0.796408    20A     -0.771172    21A     -0.736425
      22A     -0.667981    23A     -0.655084    24A     -0.634520
      25A     -0.616627    26A     -0.596318    27A     -0.589681
      28A     -0.580038    29A     -0.578372    30A     -0.551047
      31A     -0.542837    32A     -0.532022    33A     -0.521425
      34A     -0.431318    35A     -0.398554    36A     -0.387606
      37A     -0.323356

  @DF-RHF Final Energy:  -474.64332986226657

   => Energetics <=

    Nuclear Repulsion Energy =            509.2700350591388201
    One-Electron Energy =               -1656.6853174648306322
    Two-Electron Energy =                 672.7719525434253001
    Total Energy =                       -474.6433298622665689
  Basis Set: (AUG-CC-PVTZ AUX)
    Blend: AUG-CC-PVTZ-RI
    Molecular point group: c1

    Geometry (in Angstrom), charge = 0, multiplicity = 1:

       Center              X                  Y                   Z               Mass
    ------------   -----------------  -----------------  -----------------  -----------------
         O           -0.421860903364    -1.213120725961     0.012945808460    15.994914619570
         O            1.710889096636     1.657742274039     0.012957808460    15.994914619570
         N            2.211912096636    -0.590581725961     0.012928808460    14.003074004430
         C           -2.316617903364     0.014880274039     0.012948808460    12.000000000000
         C           -0.071624903364     0.113449274039     0.012931808460    12.000000000000
         C           -1.195711903364     0.897350274039     0.012934808460    12.000000000000
         C           -1.790974903364    -1.251001725961     0.012952808460    12.000000000000
         C            1.360047496636     0.472708674039    -0.137057191540    12.000000000000
         C           -3.766445903364     0.385622274039     0.012942808460    12.000000000000
         C            3.650830096636    -0.418269725961     0.012947808460    12.000000000000
         H           -1.197640903364     1.979493274039     0.012924808460     1.007825032230
         H           -2.231280903364    -2.238350725961     0.012970808460     1.007825032230
         H           -4.020761903364     0.978804274039    -0.870319191540     1.007825032230
         H           -4.397183903364    -0.507539725961     0.012953808460     1.007825032230
         H           -4.020764903364     0.978828274039     0.896187808460     1.007825032230
         H            1.813300096636    -1.520376725961     0.012924808460     1.007825032230
         H            4.099786096636    -0.866213725961    -0.878312191540     1.007825032230
         H            4.099764096636    -0.866189725961     0.904231808460     1.007825032230
         H            3.845019096636     0.653963274039     0.012936808460     1.007825032230

  Basis Set: AUG-CC-PVTZ
    Blend: AUG-CC-PVTZ
  Basis Set: (AUG-CC-PVTZ AUX)
    Blend: AUG-CC-PVTZ-JKFIT
	 Reference Energy          =    -474.6433298622665689 [Eh]
	 Singles Energy            =      -0.0000000000000000 [Eh]
	 Same-Spin Energy          =      -0.4915134216267887 [Eh]
	 Opposite-Spin Energy      =      -1.5280907762068976 [Eh]
	 Correlation Energy        =      -2.0196041978336865 [Eh]
	 Total Energy              =    -476.6629340601002696 [Eh]

	 ================> DF-SCS-MP2 Energies <==================
	-----------------------------------------------------------
	 SCS Same-Spin Scale       =       0.3333333333333333 [-]
	 SCS Opposite-Spin Scale   =       1.2000000000000000 [-]
	 SCS Same-Spin Energy      =      -0.1638378072089295 [Eh]
	 SCS Opposite-Spin Energy  =      -1.8337089314482771 [Eh]
	 SCS Correlation Energy    =      -1.9975467386572066 [Eh]
	 SCS Total Energy          =    -476.6408766009237752 [Eh]
	-----------------------------------------------------------

  Dipole Moment: [D]
     X:    -1.2744      Y:    -3.1290      Z:    -0.1492     Total:     3.3818

*** Psi4 exiting successfully. Buy a developer a beer!
