                               Psi4 1.3.2 release

  ==> Input File <==

--------------------------------------------------------------------------
#psi4
#
memory 32 gb

molecule  {
0 1
  O       -0.4083860    -1.2037120     0.0000020
  O        1.7243640     1.6671510     0.0000140
  N        2.2253870    -0.5811730    -0.0000150
  C       -2.3031430     0.0242890     0.0000050
  C       -0.0581500     0.1228580    -0.0000120
  C       -1.1822370     0.9067590    -0.0000090
  C       -1.7775000    -1.2415930     0.0000090
  C        1.3735221     0.4821178    -0.0500010
  C       -3.7529710     0.3950310    -0.0000010
  C        3.6643050    -0.4088610     0.0000040
  H       -1.1841660     1.9889020    -0.0000190
  H       -2.2178060    -2.2289420     0.0000270
  H       -4.0072870     0.9882130    -0.8832630
  H       -4.3837090    -0.4981310     0.0000100
  H       -4.0072900     0.9882370     0.8832440
  H        1.8267750    -1.5109680    -0.0000190
  H        4.1132610    -0.8568050    -0.8912560
  H        4.1132390    -0.8567810     0.8912880
  H        3.8584940     0.6633720    -0.0000070
units angstrom
no_reorient  #important for SAPT in psi4, default
symmetry c1  #important for SAPT in psi4, default
}

set PROPERTIES_ORIGIN ["COM"]
properties('MP2/aug-cc-pvtz', properties = ['dipole'])
--------------------------------------------------------------------------

    Molecular point group: c1
  Charge       = 0
  Multiplicity = 1
  Basis Set: AUG-CC-PVTZ
    Blend: AUG-CC-PVTZ
  Basis Set: (AUG-CC-PVTZ AUX)
    Blend: AUG-CC-PVTZ-JKFIT

    Orbital Energies [Eh]
    ---------------------

    Doubly Occupied:

       1A    -20.636736     2A    -20.514370     3A    -15.587223
       4A    -11.358754     5A    -11.300887     6A    -11.299117
       7A    -11.258023     8A    -11.250159     9A    -11.246406
      10A    -11.238729    11A     -1.467960    12A     -1.368522
      13A     -1.229236    14A     -1.113085    15A     -1.040890
      16A     -0.973361    17A     -0.940731    18A     -0.839773
      19A     -0.796570    20A     -0.772857    21A     -0.736958
      22A     -0.668100    23A     -0.655947    24A     -0.635792
      25A     -0.617291    26A     -0.596452    27A     -0.591188
      28A     -0.580114    29A     -0.578595    30A     -0.551379
      31A     -0.543221    32A     -0.533863    33A     -0.521725
      34A     -0.431828    35A     -0.398914    36A     -0.388783
      37A     -0.323937

  @DF-RHF Final Energy:  -474.65286193607454

   => Energetics <=

    Nuclear Repulsion Energy =            509.6081602690566683
    One-Electron Energy =               -1657.3470955298066656
    Two-Electron Energy =                 673.0860733246754535
    Total Energy =                       -474.6528619360744869
  Basis Set: (AUG-CC-PVTZ AUX)
    Blend: AUG-CC-PVTZ-RI
    Molecular point group: c1

    Geometry (in Angstrom), charge = 0, multiplicity = 1:

       Center              X                  Y                   Z               Mass
    ------------   -----------------  -----------------  -----------------  -----------------
         O           -0.421860877476    -1.213120760478     0.004316646389    15.994914619570
         O            1.710889122524     1.657742239522     0.004328646389    15.994914619570
         N            2.211912122524    -0.590581760478     0.004299646389    14.003074004430
         C           -2.316617877476     0.014880239522     0.004319646389    12.000000000000
         C           -0.071624877476     0.113449239522     0.004302646389    12.000000000000
         C           -1.195711877476     0.897350239522     0.004305646389    12.000000000000
         C           -1.790974877476    -1.251001760478     0.004323646389    12.000000000000
         C            1.360047222524     0.472709039522    -0.045686353611    12.000000000000
         C           -3.766445877476     0.385622239522     0.004313646389    12.000000000000
         C            3.650830122524    -0.418269760478     0.004318646389    12.000000000000
         H           -1.197640877476     1.979493239522     0.004295646389     1.007825032230
         H           -2.231280877476    -2.238350760478     0.004341646389     1.007825032230
         H           -4.020761877476     0.978804239522    -0.878948353611     1.007825032230
         H           -4.397183877476    -0.507539760478     0.004324646389     1.007825032230
         H           -4.020764877476     0.978828239522     0.887558646389     1.007825032230
         H            1.813300122524    -1.520376760478     0.004295646389     1.007825032230
         H            4.099786122524    -0.866213760478    -0.886941353611     1.007825032230
         H            4.099764122524    -0.866189760478     0.895602646389     1.007825032230
         H            3.845019122524     0.653963239522     0.004307646389     1.007825032230

  Basis Set: AUG-CC-PVTZ
    Blend: AUG-CC-PVTZ
  Basis Set: (AUG-CC-PVTZ AUX)
    Blend: AUG-CC-PVTZ-JKFIT
	 Reference Energy          =    -474.6528619360745438 [Eh]
	 Singles Energy            =      -0.0000000000000000 [Eh]
	 Same-Spin Energy          =      -0.4909199891222784 [Eh]
	 Opposite-Spin Energy      =      -1.5266500571447641 [Eh]
	 Correlation Energy        =      -2.0175700462670427 [Eh]
	 Total Energy              =    -476.6704319823415972 [Eh]

	 ================> DF-SCS-MP2 Energies <==================
	-----------------------------------------------------------
	 SCS Same-Spin Scale       =       0.3333333333333333 [-]
	 SCS Opposite-Spin Scale   =       1.2000000000000000 [-]
	 SCS Same-Spin Energy      =      -0.1636399963740928 [Eh]
	 SCS Opposite-Spin Energy  =      -1.8319800685737169 [Eh]
	 SCS Correlation Energy    =      -1.9956200649478097 [Eh]
	 SCS Total Energy          =    -476.6484820010223302 [Eh]
	-----------------------------------------------------------

  Dipole Moment: [D]
     X:    -1.2916      Y:    -3.1454      Z:    -0.0510     Total:     3.4007

*** Psi4 exiting successfully. Buy a developer a beer!
