                               Psi4 1.3.2 release

  ==> Input File <==

--------------------------------------------------------------------------
#psi4
#
memory 32 gb

molecule  {
0 1
  O       -0.4083860    -1.2037120     0.0000020
  O        1.7243640     1.6671510     0.0000140
  N        2.2253870    -0.5811730    -0.0000150
  C       -2.3031430     0.0242890     0.0000050
  C       -0.0581497     0.1228594    -0.1000120
  C       -1.1822370     0.9067590    -0.0000090
  C       -1.7775000    -1.2415930     0.0000090
  C        1.3735220     0.4821180    -0.0000010
  C       -3.7529710     0.3950310    -0.0000010
  C        3.6643050    -0.4088610     0.0000040
  H       -1.1841660     1.9889020    -0.0000190
  H       -2.2178060    -2.2289420     0.0000270
  H       -4.0072870     0.9882130    -0.8832630
  H       -4.3837090    -0.4981310     0.0000100
  H       -4.0072900     0.9882370     0.8832440
  H        1.8267750    -1.5109680    -0.0000190
  H        4.1132610    -0.8568050    -0.8912560
  H        4.1132390    -0.8567810     0.8912880
  H        3.8584940     0.6633720    -0.0000070
units angstrom
no_reorient  #important for SAPT in psi4, default
symmetry c1  #important for SAPT in psi4, default
}

set PROPERTIES_ORIGIN ["COM"]
properties('MP2/aug-cc-pvtz', properties = ['dipole'])
--------------------------------------------------------------------------

    Molecular point group: c1
  Charge       = 0
  Multiplicity = 1
  Basis Set: AUG-CC-PVTZ
    Blend: AUG-CC-PVTZ
  Basis Set: (AUG-CC-PVTZ AUX)
    Blend: AUG-CC-PVTZ-JKFIT

    Orbital Energies [Eh]
    ---------------------

    Doubly Occupied:

       1A    -20.636328     2A    -20.513919     3A    -15.586752
       4A    -11.358301     5A    -11.301584     6A    -11.299141
       7A    -11.257829     8A    -11.250367     9A    -11.247766
      10A    -11.238909    11A     -1.466587    12A     -1.368625
      13A     -1.229165    14A     -1.113043    15A     -1.040264
      16A     -0.973062    17A     -0.940607    18A     -0.839250
      19A     -0.795839    20A     -0.772818    21A     -0.736320
      22A     -0.668351    23A     -0.654850    24A     -0.635654
      25A     -0.617230    26A     -0.596645    27A     -0.590865
      28A     -0.580661    29A     -0.577497    30A     -0.551393
      31A     -0.543067    32A     -0.533473    33A     -0.521786
      34A     -0.431401    35A     -0.398577    36A     -0.388678
      37A     -0.324136

  @DF-RHF Final Energy:  -474.65097074380139

   => Energetics <=

    Nuclear Repulsion Energy =            509.4923388440097938
    One-Electron Energy =               -1657.1251430358961443
    Two-Electron Energy =                 672.9818334480850126
    Total Energy =                       -474.6509707438013947
  Basis Set: (AUG-CC-PVTZ AUX)
    Blend: AUG-CC-PVTZ-RI
    Molecular point group: c1

    Geometry (in Angstrom), charge = 0, multiplicity = 1:

       Center              X                  Y                   Z               Mass
    ------------   -----------------  -----------------  -----------------  -----------------
         O           -0.421860894735    -1.213120898544     0.008631227425    15.994914619570
         O            1.710889105265     1.657742101456     0.008643227425    15.994914619570
         N            2.211912105265    -0.590581898544     0.008614227425    14.003074004430
         C           -2.316617894735     0.014880101456     0.008634227425    12.000000000000
         C           -0.071624594735     0.113450501456    -0.091382772575    12.000000000000
         C           -1.195711894735     0.897350101456     0.008620227425    12.000000000000
         C           -1.790974894735    -1.251001898544     0.008638227425    12.000000000000
         C            1.360047105265     0.472709101456     0.008628227425    12.000000000000
         C           -3.766445894735     0.385622101456     0.008628227425    12.000000000000
         C            3.650830105265    -0.418269898544     0.008633227425    12.000000000000
         H           -1.197640894735     1.979493101456     0.008610227425     1.007825032230
         H           -2.231280894735    -2.238350898544     0.008656227425     1.007825032230
         H           -4.020761894735     0.978804101456    -0.874633772575     1.007825032230
         H           -4.397183894735    -0.507539898544     0.008639227425     1.007825032230
         H           -4.020764894735     0.978828101456     0.891873227425     1.007825032230
         H            1.813300105265    -1.520376898544     0.008610227425     1.007825032230
         H            4.099786105265    -0.866213898544    -0.882626772575     1.007825032230
         H            4.099764105265    -0.866189898544     0.899917227425     1.007825032230
         H            3.845019105265     0.653963101456     0.008622227425     1.007825032230

  Basis Set: AUG-CC-PVTZ
    Blend: AUG-CC-PVTZ
  Basis Set: (AUG-CC-PVTZ AUX)
    Blend: AUG-CC-PVTZ-JKFIT
	 Reference Energy          =    -474.6509707438013947 [Eh]
	 Singles Energy            =      -0.0000000000000000 [Eh]
	 Same-Spin Energy          =      -0.4909930079029503 [Eh]
	 Opposite-Spin Energy      =      -1.5267691439580544 [Eh]
	 Correlation Energy        =      -2.0177621518610049 [Eh]
	 Total Energy              =    -476.6687328956624015 [Eh]

	 ================> DF-SCS-MP2 Energies <==================
	-----------------------------------------------------------
	 SCS Same-Spin Scale       =       0.3333333333333333 [-]
	 SCS Opposite-Spin Scale   =       1.2000000000000000 [-]
	 SCS Same-Spin Energy      =      -0.1636643359676501 [Eh]
	 SCS Opposite-Spin Energy  =      -1.8321229727496653 [Eh]
	 SCS Correlation Energy    =      -1.9957873087173155 [Eh]
	 SCS Total Energy          =    -476.6467580525186918 [Eh]
	-----------------------------------------------------------

  Dipole Moment: [D]
     X:    -1.3128      Y:    -3.1424      Z:    -0.0026     Total:     3.4056

*** Psi4 exiting successfully. Buy a developer a beer!
