                               Psi4 1.3.2 release

  ==> Input File <==

--------------------------------------------------------------------------
#psi4
#
memory 32 gb

molecule  {
0 1
  O       -0.4083860    -1.2037120     0.0000020
  O        1.7243640     1.6671510     0.0000140
  N        2.2253870    -0.5811730    -0.0000150
  C       -2.3031430     0.0242890     0.0000050
  C       -0.0581500     0.1228580    -0.0000120
  C       -1.1822370     0.9067590    -0.0000090
  C       -1.7775000    -1.2415930     0.0000090
  C        1.3735220     0.4821180    -0.0000010
  C       -3.7529710     0.3950310    -0.0000010
  C        3.6643050    -0.4088610     0.0000040
  H       -1.1841653     1.9889028     0.0999810
  H       -2.2178060    -2.2289420     0.0000270
  H       -4.0072870     0.9882130    -0.8832630
  H       -4.3837090    -0.4981310     0.0000100
  H       -4.0072900     0.9882370     0.8832440
  H        1.8267750    -1.5109680    -0.0000190
  H        4.1132610    -0.8568050    -0.8912560
  H        4.1132390    -0.8567810     0.8912880
  H        3.8584940     0.6633720    -0.0000070
units angstrom
no_reorient  #important for SAPT in psi4, default
symmetry c1  #important for SAPT in psi4, default
}

set PROPERTIES_ORIGIN ["COM"]
properties('MP2/aug-cc-pvtz', properties = ['dipole'])
--------------------------------------------------------------------------

    Molecular point group: c1
  Charge       = 0
  Multiplicity = 1
  Basis Set: AUG-CC-PVTZ
    Blend: AUG-CC-PVTZ
  Basis Set: (AUG-CC-PVTZ AUX)
    Blend: AUG-CC-PVTZ-JKFIT

    Orbital Energies [Eh]
    ---------------------

    Doubly Occupied:

       1A    -20.636838     2A    -20.514209     3A    -15.587186
       4A    -11.358430     5A    -11.300908     6A    -11.299135
       7A    -11.258081     8A    -11.250184     9A    -11.246791
      10A    -11.238720    11A     -1.468052    12A     -1.369017
      13A     -1.229581    14A     -1.113064    15A     -1.041011
      16A     -0.973425    17A     -0.940823    18A     -0.839823
      19A     -0.796186    20A     -0.773089    21A     -0.736857
      22A     -0.668039    23A     -0.656128    24A     -0.635988
      25A     -0.617416    26A     -0.596171    27A     -0.591406
      28A     -0.580202    29A     -0.577834    30A     -0.551429
      31A     -0.543268    32A     -0.534125    33A     -0.521729
      34A     -0.431936    35A     -0.398869    36A     -0.388937
      37A     -0.324037

  @DF-RHF Final Energy:  -474.65344186544638

   => Energetics <=

    Nuclear Repulsion Energy =            509.6317563261137593
    One-Electron Energy =               -1657.3925475560988616
    Two-Electron Energy =                 673.1073493645386634
    Total Energy =                       -474.6534418654463252
  Basis Set: (AUG-CC-PVTZ AUX)
    Blend: AUG-CC-PVTZ-RI
    Molecular point group: c1

    Geometry (in Angstrom), charge = 0, multiplicity = 1:

       Center              X                  Y                   Z               Mass
    ------------   -----------------  -----------------  -----------------  -----------------
         O           -0.421860873920    -1.213120783534    -0.000722658441    15.994914619570
         O            1.710889126080     1.657742216466    -0.000710658441    15.994914619570
         N            2.211912126080    -0.590581783534    -0.000739658441    14.003074004430
         C           -2.316617873920     0.014880216466    -0.000719658441    12.000000000000
         C           -0.071624873920     0.113449216466    -0.000736658441    12.000000000000
         C           -1.195711873920     0.897350216466    -0.000733658441    12.000000000000
         C           -1.790974873920    -1.251001783534    -0.000715658441    12.000000000000
         C            1.360047126080     0.472709216466    -0.000725658441    12.000000000000
         C           -3.766445873920     0.385622216466    -0.000725658441    12.000000000000
         C            3.650830126080    -0.418269783534    -0.000720658441    12.000000000000
         H           -1.197640173920     1.979494016466     0.099256341559     1.007825032230
         H           -2.231280873920    -2.238350783534    -0.000697658441     1.007825032230
         H           -4.020761873920     0.978804216466    -0.883987658441     1.007825032230
         H           -4.397183873920    -0.507539783534    -0.000714658441     1.007825032230
         H           -4.020764873920     0.978828216466     0.882519341559     1.007825032230
         H            1.813300126080    -1.520376783534    -0.000743658441     1.007825032230
         H            4.099786126080    -0.866213783534    -0.891980658441     1.007825032230
         H            4.099764126080    -0.866189783534     0.890563341559     1.007825032230
         H            3.845019126080     0.653963216466    -0.000731658441     1.007825032230

  Basis Set: AUG-CC-PVTZ
    Blend: AUG-CC-PVTZ
  Basis Set: (AUG-CC-PVTZ AUX)
    Blend: AUG-CC-PVTZ-JKFIT
	 Reference Energy          =    -474.6534418654463821 [Eh]
	 Singles Energy            =      -0.0000000000000000 [Eh]
	 Same-Spin Energy          =      -0.4908856259623189 [Eh]
	 Opposite-Spin Energy      =      -1.5265695351561934 [Eh]
	 Correlation Energy        =      -2.0174551611185123 [Eh]
	 Total Energy              =    -476.6708970265648873 [Eh]

	 ================> DF-SCS-MP2 Energies <==================
	-----------------------------------------------------------
	 SCS Same-Spin Scale       =       0.3333333333333333 [-]
	 SCS Opposite-Spin Scale   =       1.2000000000000000 [-]
	 SCS Same-Spin Energy      =      -0.1636285419874396 [Eh]
	 SCS Opposite-Spin Energy  =      -1.8318834421874319 [Eh]
	 SCS Correlation Energy    =      -1.9955119841748716 [Eh]
	 SCS Total Energy          =    -476.6489538496212504 [Eh]
	-----------------------------------------------------------

  Dipole Moment: [D]
     X:    -1.2915      Y:    -3.1534      Z:     0.0742     Total:     3.4085

*** Psi4 exiting successfully. Buy a developer a beer!
