                               Psi4 1.3.2 release

  ==> Input File <==

--------------------------------------------------------------------------
#psi4
#
memory 32 gb

molecule  {
0 1
  O       -0.4083860    -1.2037120     0.0000020
  O        1.7243640     1.6671510     0.0000140
  N        2.2253870    -0.5811730    -0.0000150
  C       -2.3031430     0.0242890     0.0000050
  C       -0.0581500     0.1228580    -0.0000120
  C       -1.1822370     0.9067590    -0.0000090
  C       -1.7775000    -1.2415930     0.0000090
  C        1.3735220     0.4821180    -0.0000010
  C       -3.7529710     0.3950310    -0.0000010
  C        3.6643050    -0.4088610     0.0000040
  H       -1.1841649     1.9889032     0.1499810
  H       -2.2178060    -2.2289420     0.0000270
  H       -4.0072870     0.9882130    -0.8832630
  H       -4.3837090    -0.4981310     0.0000100
  H       -4.0072900     0.9882370     0.8832440
  H        1.8267750    -1.5109680    -0.0000190
  H        4.1132610    -0.8568050    -0.8912560
  H        4.1132390    -0.8567810     0.8912880
  H        3.8584940     0.6633720    -0.0000070
units angstrom
no_reorient  #important for SAPT in psi4, default
symmetry c1  #important for SAPT in psi4, default
}

set PROPERTIES_ORIGIN ["COM"]
properties('MP2/aug-cc-pvtz', properties = ['dipole'])
--------------------------------------------------------------------------

    Molecular point group: c1
  Charge       = 0
  Multiplicity = 1
  Basis Set: AUG-CC-PVTZ
    Blend: AUG-CC-PVTZ
  Basis Set: (AUG-CC-PVTZ AUX)
    Blend: AUG-CC-PVTZ-JKFIT

    Orbital Energies [Eh]
    ---------------------

    Doubly Occupied:

       1A    -20.636931     2A    -20.514265     3A    -15.587241
       4A    -11.358485     5A    -11.300911     6A    -11.299327
       7A    -11.258117     8A    -11.250206     9A    -11.247218
      10A    -11.238697    11A     -1.468142    12A     -1.369064
      13A     -1.229631    14A     -1.113019    15A     -1.041019
      16A     -0.973422    17A     -0.940842    18A     -0.839750
      19A     -0.795696    20A     -0.773111    21A     -0.736652
      22A     -0.667946    23A     -0.656214    24A     -0.636030
      25A     -0.617468    26A     -0.595834    27A     -0.591439
      28A     -0.580243    29A     -0.576880    30A     -0.551439
      31A     -0.543267    32A     -0.534158    33A     -0.521686
      34A     -0.431986    35A     -0.398757    36A     -0.388945
      37A     -0.324071

  @DF-RHF Final Energy:  -474.65265309428810

   => Energetics <=

    Nuclear Repulsion Energy =            509.6082113346287770
    One-Electron Energy =               -1657.3455046753535953
    Two-Electron Energy =                 673.0846402464367202
    Total Energy =                       -474.6526530942880981
  Basis Set: (AUG-CC-PVTZ AUX)
    Blend: AUG-CC-PVTZ-RI
    Molecular point group: c1

    Geometry (in Angstrom), charge = 0, multiplicity = 1:

       Center              X                  Y                   Z               Mass
    ------------   -----------------  -----------------  -----------------  -----------------
         O           -0.421860876819    -1.213120786433    -0.001085020339    15.994914619570
         O            1.710889123181     1.657742213567    -0.001073020339    15.994914619570
         N            2.211912123181    -0.590581786433    -0.001102020339    14.003074004430
         C           -2.316617876819     0.014880213567    -0.001082020339    12.000000000000
         C           -0.071624876819     0.113449213567    -0.001099020339    12.000000000000
         C           -1.195711876819     0.897350213567    -0.001096020339    12.000000000000
         C           -1.790974876819    -1.251001786433    -0.001078020339    12.000000000000
         C            1.360047123181     0.472709213567    -0.001088020339    12.000000000000
         C           -3.766445876819     0.385622213567    -0.001088020339    12.000000000000
         C            3.650830123181    -0.418269786433    -0.001083020339    12.000000000000
         H           -1.197639776819     1.979494413567     0.148893979661     1.007825032230
         H           -2.231280876819    -2.238350786433    -0.001060020339     1.007825032230
         H           -4.020761876819     0.978804213567    -0.884350020339     1.007825032230
         H           -4.397183876819    -0.507539786433    -0.001077020339     1.007825032230
         H           -4.020764876819     0.978828213567     0.882156979661     1.007825032230
         H            1.813300123181    -1.520376786433    -0.001106020339     1.007825032230
         H            4.099786123181    -0.866213786433    -0.892343020339     1.007825032230
         H            4.099764123181    -0.866189786433     0.890200979661     1.007825032230
         H            3.845019123181     0.653963213567    -0.001094020339     1.007825032230

  Basis Set: AUG-CC-PVTZ
    Blend: AUG-CC-PVTZ
  Basis Set: (AUG-CC-PVTZ AUX)
    Blend: AUG-CC-PVTZ-JKFIT
	 Reference Energy          =    -474.6526530942880981 [Eh]
	 Singles Energy            =      -0.0000000000000000 [Eh]
	 Same-Spin Energy          =      -0.4909352254584325 [Eh]
	 Opposite-Spin Energy      =      -1.5266778418709395 [Eh]
	 Correlation Energy        =      -2.0176130673293722 [Eh]
	 Total Energy              =    -476.6702661616174623 [Eh]

	 ================> DF-SCS-MP2 Energies <==================
	-----------------------------------------------------------
	 SCS Same-Spin Scale       =       0.3333333333333333 [-]
	 SCS Opposite-Spin Scale   =       1.2000000000000000 [-]
	 SCS Same-Spin Energy      =      -0.1636450751528108 [Eh]
	 SCS Opposite-Spin Energy  =      -1.8320134102451273 [Eh]
	 SCS Correlation Energy    =      -1.9956584853979382 [Eh]
	 SCS Total Energy          =    -476.6483115796860375 [Eh]
	-----------------------------------------------------------

  Dipole Moment: [D]
     X:    -1.2889      Y:    -3.1608      Z:     0.1111     Total:     3.4153

*** Psi4 exiting successfully. Buy a developer a beer!
