                               Psi4 1.3.2 release

  ==> Input File <==

--------------------------------------------------------------------------
#psi4
#
memory 32 gb

molecule  {
0 1
  O       -0.4083860    -1.2037120     0.0000020
  O        1.7243640     1.6671510     0.0000140
  N        2.2253870    -0.5811730    -0.0000150
  C       -2.3031430     0.0242890     0.0000050
  C       -0.0581493     0.1228614    -0.2500120
  C       -1.1822370     0.9067590    -0.0000090
  C       -1.7775000    -1.2415930     0.0000090
  C        1.3735220     0.4821180    -0.0000010
  C       -3.7529710     0.3950310    -0.0000010
  C        3.6643050    -0.4088610     0.0000040
  H       -1.1841660     1.9889020    -0.0000190
  H       -2.2178060    -2.2289420     0.0000270
  H       -4.0072870     0.9882130    -0.8832630
  H       -4.3837090    -0.4981310     0.0000100
  H       -4.0072900     0.9882370     0.8832440
  H        1.8267750    -1.5109680    -0.0000190
  H        4.1132610    -0.8568050    -0.8912560
  H        4.1132390    -0.8567810     0.8912880
  H        3.8584940     0.6633720    -0.0000070
units angstrom
no_reorient  #important for SAPT in psi4, default
symmetry c1  #important for SAPT in psi4, default
}

set PROPERTIES_ORIGIN ["COM"]
properties('MP2/aug-cc-pvtz', properties = ['dipole'])
--------------------------------------------------------------------------

    Molecular point group: c1
  Charge       = 0
  Multiplicity = 1
  Basis Set: AUG-CC-PVTZ
    Blend: AUG-CC-PVTZ
  Basis Set: (AUG-CC-PVTZ AUX)
    Blend: AUG-CC-PVTZ-JKFIT

    Orbital Energies [Eh]
    ---------------------

    Doubly Occupied:

       1A    -20.634008     2A    -20.512696     3A    -15.584766
       4A    -11.357747     5A    -11.305266     6A    -11.299783
       7A    -11.256676     8A    -11.254899     9A    -11.251118
      10A    -11.239831    11A     -1.459555    12A     -1.366824
      13A     -1.227242    14A     -1.112901    15A     -1.036395
      16A     -0.971302    17A     -0.939612    18A     -0.836246
      19A     -0.792235    20A     -0.771533    21A     -0.732618
      22A     -0.668673    23A     -0.649597    24A     -0.634129
      25A     -0.616449    26A     -0.597736    27A     -0.588296
      28A     -0.581675    29A     -0.573375    30A     -0.551125
      31A     -0.542070    32A     -0.530399    33A     -0.521675
      34A     -0.428859    35A     -0.396641    36A     -0.387376
      37A     -0.324924

  @DF-RHF Final Energy:  -474.63492942605723

   => Energetics <=

    Nuclear Repulsion Energy =            508.6766906746276504
    One-Electron Energy =               -1655.5507401807035421
    Two-Electron Energy =                 672.2391200800186652
    Total Energy =                       -474.6349294260571696
  Basis Set: (AUG-CC-PVTZ AUX)
    Blend: AUG-CC-PVTZ-RI
    Molecular point group: c1

    Geometry (in Angstrom), charge = 0, multiplicity = 1:

       Center              X                  Y                   Z               Mass
    ------------   -----------------  -----------------  -----------------  -----------------
         O           -0.421860929251    -1.213121071127     0.021574970531    15.994914619570
         O            1.710889070749     1.657741928873     0.021586970531    15.994914619570
         N            2.211912070749    -0.590582071127     0.021557970531    14.003074004430
         C           -2.316617929251     0.014879928873     0.021577970531    12.000000000000
         C           -0.071624229251     0.113452328873    -0.228439029469    12.000000000000
         C           -1.195711929251     0.897349928873     0.021563970531    12.000000000000
         C           -1.790974929251    -1.251002071127     0.021581970531    12.000000000000
         C            1.360047070749     0.472708928873     0.021571970531    12.000000000000
         C           -3.766445929251     0.385621928873     0.021571970531    12.000000000000
         C            3.650830070749    -0.418270071127     0.021576970531    12.000000000000
         H           -1.197640929251     1.979492928873     0.021553970531     1.007825032230
         H           -2.231280929251    -2.238351071127     0.021599970531     1.007825032230
         H           -4.020761929251     0.978803928873    -0.861690029469     1.007825032230
         H           -4.397183929251    -0.507540071127     0.021582970531     1.007825032230
         H           -4.020764929251     0.978827928873     0.904816970531     1.007825032230
         H            1.813300070749    -1.520377071127     0.021553970531     1.007825032230
         H            4.099786070749    -0.866214071127    -0.869683029469     1.007825032230
         H            4.099764070749    -0.866190071127     0.912860970531     1.007825032230
         H            3.845019070749     0.653962928873     0.021565970531     1.007825032230

  Basis Set: AUG-CC-PVTZ
    Blend: AUG-CC-PVTZ
  Basis Set: (AUG-CC-PVTZ AUX)
    Blend: AUG-CC-PVTZ-JKFIT
	 Reference Energy          =    -474.6349294260572265 [Eh]
	 Singles Energy            =      -0.0000000000000000 [Eh]
	 Same-Spin Energy          =      -0.4917266850754474 [Eh]
	 Opposite-Spin Energy      =      -1.5287175042566998 [Eh]
	 Correlation Energy        =      -2.0204441893321472 [Eh]
	 Total Energy              =    -476.6553736153893510 [Eh]

	 ================> DF-SCS-MP2 Energies <==================
	-----------------------------------------------------------
	 SCS Same-Spin Scale       =       0.3333333333333333 [-]
	 SCS Opposite-Spin Scale   =       1.2000000000000000 [-]
	 SCS Same-Spin Energy      =      -0.1639088950251491 [Eh]
	 SCS Opposite-Spin Energy  =      -1.8344610051080397 [Eh]
	 SCS Correlation Energy    =      -1.9983699001331887 [Eh]
	 SCS Total Energy          =    -476.6332993261904107 [Eh]
	-----------------------------------------------------------

  Dipole Moment: [D]
     X:    -1.4041      Y:    -3.1165      Z:     0.0024     Total:     3.4182

*** Psi4 exiting successfully. Buy a developer a beer!
