                               Psi4 1.3.2 release

  ==> Input File <==

--------------------------------------------------------------------------
#psi4
#
memory 32 gb

molecule  {
0 1
  O       -0.4083860    -1.2037120     0.0000020
  O        1.7243640     1.6671510     0.0000140
  N        2.2253870    -0.5811730    -0.0000150
  C       -2.3031430     0.0242890     0.0000050
  C       -0.0581500     0.1228580    -0.0000120
  C       -1.1822370     0.9067590    -0.0000090
  C       -1.7775000    -1.2415930     0.0000090
  C        1.3735226     0.4821169    -0.2500010
  C       -3.7529710     0.3950310    -0.0000010
  C        3.6643050    -0.4088610     0.0000040
  H       -1.1841660     1.9889020    -0.0000190
  H       -2.2178060    -2.2289420     0.0000270
  H       -4.0072870     0.9882130    -0.8832630
  H       -4.3837090    -0.4981310     0.0000100
  H       -4.0072900     0.9882370     0.8832440
  H        1.8267750    -1.5109680    -0.0000190
  H        4.1132610    -0.8568050    -0.8912560
  H        4.1132390    -0.8567810     0.8912880
  H        3.8584940     0.6633720    -0.0000070
units angstrom
no_reorient  #important for SAPT in psi4, default
symmetry c1  #important for SAPT in psi4, default
}

set PROPERTIES_ORIGIN ["COM"]
properties('MP2/aug-cc-pvtz', properties = ['dipole'])
--------------------------------------------------------------------------

    Molecular point group: c1
  Charge       = 0
  Multiplicity = 1
  Basis Set: AUG-CC-PVTZ
    Blend: AUG-CC-PVTZ
  Basis Set: (AUG-CC-PVTZ AUX)
    Blend: AUG-CC-PVTZ-JKFIT

    Orbital Energies [Eh]
    ---------------------

    Doubly Occupied:

       1A    -20.636111     2A    -20.519336     3A    -15.589055
       4A    -11.367025     5A    -11.302245     6A    -11.300452
       7A    -11.257354     8A    -11.249921     9A    -11.245534
      10A    -11.238517    11A     -1.467478    12A     -1.357877
      13A     -1.222296    14A     -1.112732    15A     -1.038244
      16A     -0.971771    17A     -0.938879    18A     -0.837216
      19A     -0.796096    20A     -0.767991    21A     -0.735278
      22A     -0.667697    23A     -0.653459    24A     -0.632069
      25A     -0.615275    26A     -0.596049    27A     -0.586786
      28A     -0.579875    29A     -0.577870    30A     -0.550367
      31A     -0.542004    32A     -0.528559    33A     -0.520775
      34A     -0.430470    35A     -0.397926    36A     -0.385304
      37A     -0.322239

  @DF-RHF Final Energy:  -474.62417216405470

   => Energetics <=

    Nuclear Repulsion Energy =            508.6085926876654071
    One-Electron Energy =               -1655.3892635755328229
    Two-Electron Energy =                 672.1564987238127742
    Total Energy =                       -474.6241721640546984
  Basis Set: (AUG-CC-PVTZ AUX)
    Blend: AUG-CC-PVTZ-RI
    Molecular point group: c1

    Geometry (in Angstrom), charge = 0, multiplicity = 1:

       Center              X                  Y                   Z               Mass
    ------------   -----------------  -----------------  -----------------  -----------------
         O           -0.421860920622    -1.213120682815     0.021574970531    15.994914619570
         O            1.710889079378     1.657742317185     0.021586970531    15.994914619570
         N            2.211912079378    -0.590581682815     0.021557970531    14.003074004430
         C           -2.316617920622     0.014880317185     0.021577970531    12.000000000000
         C           -0.071624920622     0.113449317185     0.021560970531    12.000000000000
         C           -1.195711920622     0.897350317185     0.021563970531    12.000000000000
         C           -1.790974920622    -1.251001682815     0.021581970531    12.000000000000
         C            1.360047679378     0.472708217185    -0.228428029469    12.000000000000
         C           -3.766445920622     0.385622317185     0.021571970531    12.000000000000
         C            3.650830079378    -0.418269682815     0.021576970531    12.000000000000
         H           -1.197640920622     1.979493317185     0.021553970531     1.007825032230
         H           -2.231280920622    -2.238350682815     0.021599970531     1.007825032230
         H           -4.020761920622     0.978804317185    -0.861690029469     1.007825032230
         H           -4.397183920622    -0.507539682815     0.021582970531     1.007825032230
         H           -4.020764920622     0.978828317185     0.904816970531     1.007825032230
         H            1.813300079378    -1.520376682815     0.021553970531     1.007825032230
         H            4.099786079378    -0.866213682815    -0.869683029469     1.007825032230
         H            4.099764079378    -0.866189682815     0.912860970531     1.007825032230
         H            3.845019079378     0.653963317185     0.021565970531     1.007825032230

  Basis Set: AUG-CC-PVTZ
    Blend: AUG-CC-PVTZ
  Basis Set: (AUG-CC-PVTZ AUX)
    Blend: AUG-CC-PVTZ-JKFIT
	 Reference Energy          =    -474.6241721640546984 [Eh]
	 Singles Energy            =      -0.0000000000000000 [Eh]
	 Same-Spin Energy          =      -0.4926952938123677 [Eh]
	 Opposite-Spin Energy      =      -1.5312130974377594 [Eh]
	 Correlation Energy        =      -2.0239083912501270 [Eh]
	 Total Energy              =    -476.6480805553048299 [Eh]

	 ================> DF-SCS-MP2 Energies <==================
	-----------------------------------------------------------
	 SCS Same-Spin Scale       =       0.3333333333333333 [-]
	 SCS Opposite-Spin Scale   =       1.2000000000000000 [-]
	 SCS Same-Spin Energy      =      -0.1642317646041225 [Eh]
	 SCS Opposite-Spin Energy  =      -1.8374557169253112 [Eh]
	 SCS Correlation Energy    =      -2.0016874815294337 [Eh]
	 SCS Total Energy          =    -476.6258596455841143 [Eh]
	-----------------------------------------------------------

  Dipole Moment: [D]
     X:    -1.2386      Y:    -3.0951      Z:    -0.2359     Total:     3.3420

*** Psi4 exiting successfully. Buy a developer a beer!
