                               Psi4 1.3.2 release

  ==> Input File <==

--------------------------------------------------------------------------
#psi4
#
memory 32 gb

molecule  {
0 1
  O       -0.4083860    -1.2037120     0.0000020
  O        1.7243640     1.6671510     0.0000140
  N        2.2253870    -0.5811730    -0.0000150
  C       -2.3031430     0.0242890     0.0000050
  C       -0.0581494     0.1228607    -0.2000120
  C       -1.1822370     0.9067590    -0.0000090
  C       -1.7775000    -1.2415930     0.0000090
  C        1.3735220     0.4821180    -0.0000010
  C       -3.7529710     0.3950310    -0.0000010
  C        3.6643050    -0.4088610     0.0000040
  H       -1.1841660     1.9889020    -0.0000190
  H       -2.2178060    -2.2289420     0.0000270
  H       -4.0072870     0.9882130    -0.8832630
  H       -4.3837090    -0.4981310     0.0000100
  H       -4.0072900     0.9882370     0.8832440
  H        1.8267750    -1.5109680    -0.0000190
  H        4.1132610    -0.8568050    -0.8912560
  H        4.1132390    -0.8567810     0.8912880
  H        3.8584940     0.6633720    -0.0000070
units angstrom
no_reorient  #important for SAPT in psi4, default
symmetry c1  #important for SAPT in psi4, default
}

set PROPERTIES_ORIGIN ["COM"]
properties('MP2/aug-cc-pvtz', properties = ['dipole'])
--------------------------------------------------------------------------

    Molecular point group: c1
  Charge       = 0
  Multiplicity = 1
  Basis Set: AUG-CC-PVTZ
    Blend: AUG-CC-PVTZ
  Basis Set: (AUG-CC-PVTZ AUX)
    Blend: AUG-CC-PVTZ-JKFIT

    Orbital Energies [Eh]
    ---------------------

    Doubly Occupied:

       1A    -20.635013     2A    -20.513207     3A    -15.585605
       4A    -11.358007     5A    -11.303667     6A    -11.299547
       7A    -11.257166     8A    -11.252081     9A    -11.250582
      10A    -11.239431    11A     -1.462515    12A     -1.367585
      13A     -1.228057    14A     -1.112933    15A     -1.038050
      16A     -0.972024    17A     -0.940027    18A     -0.837469
      19A     -0.793710    20A     -0.772076    21A     -0.734206
      22A     -0.668676    23A     -0.651677    24A     -0.634774
      25A     -0.616789    26A     -0.597245    27A     -0.589368
      28A     -0.581356    29A     -0.575027    30A     -0.551265
      31A     -0.542486    32A     -0.531674    33A     -0.521777
      34A     -0.429938    35A     -0.397457    36A     -0.387930
      37A     -0.324562

  @DF-RHF Final Energy:  -474.64177588877101

   => Energetics <=

    Nuclear Repulsion Energy =            509.0230038842220210
    One-Electron Energy =               -1656.2196454288962286
    Two-Electron Energy =                 672.5548656559030860
    Total Energy =                       -474.6417758887710079
  Basis Set: (AUG-CC-PVTZ AUX)
    Blend: AUG-CC-PVTZ-RI
    Molecular point group: c1

    Geometry (in Angstrom), charge = 0, multiplicity = 1:

       Center              X                  Y                   Z               Mass
    ------------   -----------------  -----------------  -----------------  -----------------
         O           -0.421860920622    -1.213121010723     0.017260389495    15.994914619570
         O            1.710889079378     1.657741989277     0.017272389495    15.994914619570
         N            2.211912079378    -0.590582010723     0.017243389495    14.003074004430
         C           -2.316617920622     0.014879989277     0.017263389495    12.000000000000
         C           -0.071624320622     0.113451689277    -0.182753610505    12.000000000000
         C           -1.195711920622     0.897349989277     0.017249389495    12.000000000000
         C           -1.790974920622    -1.251002010723     0.017267389495    12.000000000000
         C            1.360047079378     0.472708989277     0.017257389495    12.000000000000
         C           -3.766445920622     0.385621989277     0.017257389495    12.000000000000
         C            3.650830079378    -0.418270010723     0.017262389495    12.000000000000
         H           -1.197640920622     1.979492989277     0.017239389495     1.007825032230
         H           -2.231280920622    -2.238351010723     0.017285389495     1.007825032230
         H           -4.020761920622     0.978803989277    -0.866004610505     1.007825032230
         H           -4.397183920622    -0.507540010723     0.017268389495     1.007825032230
         H           -4.020764920622     0.978827989277     0.900502389495     1.007825032230
         H            1.813300079378    -1.520377010723     0.017239389495     1.007825032230
         H            4.099786079378    -0.866214010723    -0.873997610505     1.007825032230
         H            4.099764079378    -0.866190010723     0.908546389495     1.007825032230
         H            3.845019079378     0.653962989277     0.017251389495     1.007825032230

  Basis Set: AUG-CC-PVTZ
    Blend: AUG-CC-PVTZ
  Basis Set: (AUG-CC-PVTZ AUX)
    Blend: AUG-CC-PVTZ-JKFIT
	 Reference Energy          =    -474.6417758887710079 [Eh]
	 Singles Energy            =      -0.0000000000000000 [Eh]
	 Same-Spin Energy          =      -0.4914229877767343 [Eh]
	 Opposite-Spin Energy      =      -1.5278590454370524 [Eh]
	 Correlation Energy        =      -2.0192820332137869 [Eh]
	 Total Energy              =    -476.6610579219848205 [Eh]

	 ================> DF-SCS-MP2 Energies <==================
	-----------------------------------------------------------
	 SCS Same-Spin Scale       =       0.3333333333333333 [-]
	 SCS Opposite-Spin Scale   =       1.2000000000000000 [-]
	 SCS Same-Spin Energy      =      -0.1638076625922447 [Eh]
	 SCS Opposite-Spin Energy  =      -1.8334308545244629 [Eh]
	 SCS Correlation Energy    =      -1.9972385171167075 [Eh]
	 SCS Total Energy          =    -476.6390144058877354 [Eh]
	-----------------------------------------------------------

  Dipole Moment: [D]
     X:    -1.3667      Y:    -3.1275      Z:    -0.0008     Total:     3.4131

*** Psi4 exiting successfully. Buy a developer a beer!
