                               Psi4 1.3.2 release

  ==> Input File <==

--------------------------------------------------------------------------
#psi4
#
memory 32 gb

molecule  {
0 1
  O       -0.4083860    -1.2037120     0.0000020
  O        1.7243640     1.6671510     0.0000140
  N        2.2253870    -0.5811730    -0.0000150
  C       -2.3031430     0.0242890     0.0000050
  C       -0.0581500     0.1228580    -0.0000120
  C       -1.1822370     0.9067590    -0.0000090
  C       -1.7775000    -1.2415930     0.0000090
  C        1.3735220     0.4821180    -0.0000010
  C       -3.7529710     0.3950310    -0.0000010
  C        3.6643050    -0.4088610     0.0000040
  H       -1.1841642     1.9889040     0.2499810
  H       -2.2178060    -2.2289420     0.0000270
  H       -4.0072870     0.9882130    -0.8832630
  H       -4.3837090    -0.4981310     0.0000100
  H       -4.0072900     0.9882370     0.8832440
  H        1.8267750    -1.5109680    -0.0000190
  H        4.1132610    -0.8568050    -0.8912560
  H        4.1132390    -0.8567810     0.8912880
  H        3.8584940     0.6633720    -0.0000070
units angstrom
no_reorient  #important for SAPT in psi4, default
symmetry c1  #important for SAPT in psi4, default
}

set PROPERTIES_ORIGIN ["COM"]
properties('MP2/aug-cc-pvtz', properties = ['dipole'])
--------------------------------------------------------------------------

    Molecular point group: c1
  Charge       = 0
  Multiplicity = 1
  Basis Set: AUG-CC-PVTZ
    Blend: AUG-CC-PVTZ
  Basis Set: (AUG-CC-PVTZ AUX)
    Blend: AUG-CC-PVTZ-JKFIT

    Orbital Energies [Eh]
    ---------------------

    Doubly Occupied:

       1A    -20.637227     2A    -20.514440     3A    -15.587412
       4A    -11.358657     5A    -11.300927     6A    -11.299931
       7A    -11.258230     8A    -11.250316     9A    -11.248529
      10A    -11.238628    11A     -1.468427    12A     -1.369212
      13A     -1.229789    14A     -1.112887    15A     -1.041054
      16A     -0.973415    17A     -0.940905    18A     -0.839555
      19A     -0.794236    20A     -0.773178    21A     -0.736017
      22A     -0.667664    23A     -0.656482    24A     -0.636164
      25A     -0.617626    26A     -0.594982    27A     -0.591540
      28A     -0.580264    29A     -0.573788    30A     -0.551469
      31A     -0.543247    32A     -0.534261    33A     -0.521542
      34A     -0.432142    35A     -0.398413    36A     -0.388966
      37A     -0.324182

  @DF-RHF Final Energy:  -474.64994052242810

   => Energetics <=

    Nuclear Repulsion Energy =            509.5345903160584271
    One-Electron Energy =               -1657.1976543394473538
    Two-Electron Energy =                 673.0131235009607735
    Total Energy =                       -474.6499405224280963
  Basis Set: (AUG-CC-PVTZ AUX)
    Blend: AUG-CC-PVTZ-RI
    Molecular point group: c1

    Geometry (in Angstrom), charge = 0, multiplicity = 1:

       Center              X                  Y                   Z               Mass
    ------------   -----------------  -----------------  -----------------  -----------------
         O           -0.421860881892    -1.213120792230    -0.001809744134    15.994914619570
         O            1.710889118108     1.657742207770    -0.001797744134    15.994914619570
         N            2.211912118108    -0.590581792230    -0.001826744134    14.003074004430
         C           -2.316617881892     0.014880207770    -0.001806744134    12.000000000000
         C           -0.071624881892     0.113449207770    -0.001823744134    12.000000000000
         C           -1.195711881892     0.897350207770    -0.001820744134    12.000000000000
         C           -1.790974881892    -1.251001792230    -0.001802744134    12.000000000000
         C            1.360047118108     0.472709207770    -0.001812744134    12.000000000000
         C           -3.766445881892     0.385622207770    -0.001812744134    12.000000000000
         C            3.650830118108    -0.418269792230    -0.001807744134    12.000000000000
         H           -1.197639081892     1.979495207770     0.248169255866     1.007825032230
         H           -2.231280881892    -2.238350792230    -0.001784744134     1.007825032230
         H           -4.020761881892     0.978804207770    -0.885074744134     1.007825032230
         H           -4.397183881892    -0.507539792230    -0.001801744134     1.007825032230
         H           -4.020764881892     0.978828207770     0.881432255866     1.007825032230
         H            1.813300118108    -1.520376792230    -0.001830744134     1.007825032230
         H            4.099786118108    -0.866213792230    -0.893067744134     1.007825032230
         H            4.099764118108    -0.866189792230     0.889476255866     1.007825032230
         H            3.845019118108     0.653963207770    -0.001818744134     1.007825032230

  Basis Set: AUG-CC-PVTZ
    Blend: AUG-CC-PVTZ
  Basis Set: (AUG-CC-PVTZ AUX)
    Blend: AUG-CC-PVTZ-JKFIT
	 Reference Energy          =    -474.6499405224280963 [Eh]
	 Singles Energy            =      -0.0000000000000000 [Eh]
	 Same-Spin Energy          =      -0.4910917034029056 [Eh]
	 Opposite-Spin Energy      =      -1.5270388891888929 [Eh]
	 Correlation Energy        =      -2.0181305925917985 [Eh]
	 Total Energy              =    -476.6680711150198704 [Eh]

	 ================> DF-SCS-MP2 Energies <==================
	-----------------------------------------------------------
	 SCS Same-Spin Scale       =       0.3333333333333333 [-]
	 SCS Opposite-Spin Scale   =       1.2000000000000000 [-]
	 SCS Same-Spin Energy      =      -0.1636972344676352 [Eh]
	 SCS Opposite-Spin Energy  =      -1.8324466670266712 [Eh]
	 SCS Correlation Energy    =      -1.9961439014943065 [Eh]
	 SCS Total Energy          =    -476.6460844239223889 [Eh]
	-----------------------------------------------------------

  Dipole Moment: [D]
     X:    -1.2808      Y:    -3.1842      Z:     0.1837     Total:     3.4370

*** Psi4 exiting successfully. Buy a developer a beer!
