                               Psi4 1.3.2 release

  ==> Input File <==

--------------------------------------------------------------------------
#psi4
#
memory 32 gb

molecule  {
0 1
  O       -0.4083860    -1.2037120     0.0000020
  O        1.7243640     1.6671510     0.0000140
  N        2.2253870    -0.5811730    -0.0000150
  C       -2.3031430     0.0242890     0.0000050
  C       -0.0581499     0.1228587    -0.0500120
  C       -1.1822370     0.9067590    -0.0000090
  C       -1.7775000    -1.2415930     0.0000090
  C        1.3735220     0.4821180    -0.0000010
  C       -3.7529710     0.3950310    -0.0000010
  C        3.6643050    -0.4088610     0.0000040
  H       -1.1841660     1.9889020    -0.0000190
  H       -2.2178060    -2.2289420     0.0000270
  H       -4.0072870     0.9882130    -0.8832630
  H       -4.3837090    -0.4981310     0.0000100
  H       -4.0072900     0.9882370     0.8832440
  H        1.8267750    -1.5109680    -0.0000190
  H        4.1132610    -0.8568050    -0.8912560
  H        4.1132390    -0.8567810     0.8912880
  H        3.8584940     0.6633720    -0.0000070
units angstrom
no_reorient  #important for SAPT in psi4, default
symmetry c1  #important for SAPT in psi4, default
}

set PROPERTIES_ORIGIN ["COM"]
properties('MP2/aug-cc-pvtz', properties = ['dipole'])
--------------------------------------------------------------------------

    Molecular point group: c1
  Charge       = 0
  Multiplicity = 1
  Basis Set: AUG-CC-PVTZ
    Blend: AUG-CC-PVTZ
  Basis Set: (AUG-CC-PVTZ AUX)
    Blend: AUG-CC-PVTZ-JKFIT

    Orbital Energies [Eh]
    ---------------------

    Doubly Occupied:

       1A    -20.636654     2A    -20.514102     3A    -15.587044
       4A    -11.358365     5A    -11.301074     6A    -11.299023
       7A    -11.257996     8A    -11.250216     9A    -11.246777
      10A    -11.238780    11A     -1.467630    12A     -1.368890
      13A     -1.229446    14A     -1.113085    15A     -1.040819
      16A     -0.973336    17A     -0.940757    18A     -0.839725
      19A     -0.796401    20A     -0.773008    21A     -0.736847
      22A     -0.668181    23A     -0.655746    24A     -0.635879
      25A     -0.617337    26A     -0.596511    27A     -0.591250
      28A     -0.580310    29A     -0.578289    30A     -0.551414
      31A     -0.543217    32A     -0.533941    33A     -0.521769
      34A     -0.431772    35A     -0.398865    36A     -0.388867
      37A     -0.324041

  @DF-RHF Final Energy:  -474.65327996170208

   => Energetics <=

    Nuclear Repulsion Energy =            509.6110679028820982
    One-Electron Energy =               -1657.3539669137676356
    Two-Electron Energy =                 673.0896190491835114
    Total Energy =                       -474.6532799617020828
  Basis Set: (AUG-CC-PVTZ AUX)
    Blend: AUG-CC-PVTZ-RI
    Molecular point group: c1

    Geometry (in Angstrom), charge = 0, multiplicity = 1:

       Center              X                  Y                   Z               Mass
    ------------   -----------------  -----------------  -----------------  -----------------
         O           -0.421860877476    -1.213120838140     0.004316646389    15.994914619570
         O            1.710889122524     1.657742161860     0.004328646389    15.994914619570
         N            2.211912122524    -0.590581838140     0.004299646389    14.003074004430
         C           -2.316617877476     0.014880161860     0.004319646389    12.000000000000
         C           -0.071624777476     0.113449861860    -0.045697353611    12.000000000000
         C           -1.195711877476     0.897350161860     0.004305646389    12.000000000000
         C           -1.790974877476    -1.251001838140     0.004323646389    12.000000000000
         C            1.360047122524     0.472709161860     0.004313646389    12.000000000000
         C           -3.766445877476     0.385622161860     0.004313646389    12.000000000000
         C            3.650830122524    -0.418269838140     0.004318646389    12.000000000000
         H           -1.197640877476     1.979493161860     0.004295646389     1.007825032230
         H           -2.231280877476    -2.238350838140     0.004341646389     1.007825032230
         H           -4.020761877476     0.978804161860    -0.878948353611     1.007825032230
         H           -4.397183877476    -0.507539838140     0.004324646389     1.007825032230
         H           -4.020764877476     0.978828161860     0.887558646389     1.007825032230
         H            1.813300122524    -1.520376838140     0.004295646389     1.007825032230
         H            4.099786122524    -0.866213838140    -0.886941353611     1.007825032230
         H            4.099764122524    -0.866189838140     0.895602646389     1.007825032230
         H            3.845019122524     0.653963161860     0.004307646389     1.007825032230

  Basis Set: AUG-CC-PVTZ
    Blend: AUG-CC-PVTZ
  Basis Set: (AUG-CC-PVTZ AUX)
    Blend: AUG-CC-PVTZ-JKFIT
	 Reference Energy          =    -474.6532799617020828 [Eh]
	 Singles Energy            =      -0.0000000000000000 [Eh]
	 Same-Spin Energy          =      -0.4908824859175235 [Eh]
	 Opposite-Spin Energy      =      -1.5265453961237765 [Eh]
	 Correlation Energy        =      -2.0174278820413001 [Eh]
	 Total Energy              =    -476.6707078437434006 [Eh]

	 ================> DF-SCS-MP2 Energies <==================
	-----------------------------------------------------------
	 SCS Same-Spin Scale       =       0.3333333333333333 [-]
	 SCS Opposite-Spin Scale   =       1.2000000000000000 [-]
	 SCS Same-Spin Energy      =      -0.1636274953058411 [Eh]
	 SCS Opposite-Spin Energy  =      -1.8318544753485317 [Eh]
	 SCS Correlation Energy    =      -1.9954819706543729 [Eh]
	 SCS Total Energy          =    -476.6487619323564786 [Eh]
	-----------------------------------------------------------

  Dipole Moment: [D]
     X:    -1.2985      Y:    -3.1462      Z:    -0.0016     Total:     3.4036

*** Psi4 exiting successfully. Buy a developer a beer!
