                               Psi4 1.3.2 release

  ==> Input File <==

--------------------------------------------------------------------------
#psi4
#
memory 32 gb

molecule  {
0 1
  O       -0.4083860    -1.2037120     0.0000020
  O        1.7243640     1.6671510     0.0000140
  N        2.2253870    -0.5811730    -0.0000150
  C       -2.3031430     0.0242890     0.0000050
  C       -0.0581500     0.1228580    -0.0000120
  C       -1.1822370     0.9067590    -0.0000090
  C       -1.7775000    -1.2415930     0.0000090
  C        1.3735220     0.4821180    -0.0000010
  C       -3.7529710     0.3950310    -0.0000010
  C        3.6643050    -0.4088610     0.0000040
  H       -1.1841646     1.9889036     0.1999810
  H       -2.2178060    -2.2289420     0.0000270
  H       -4.0072870     0.9882130    -0.8832630
  H       -4.3837090    -0.4981310     0.0000100
  H       -4.0072900     0.9882370     0.8832440
  H        1.8267750    -1.5109680    -0.0000190
  H        4.1132610    -0.8568050    -0.8912560
  H        4.1132390    -0.8567810     0.8912880
  H        3.8584940     0.6633720    -0.0000070
units angstrom
no_reorient  #important for SAPT in psi4, default
symmetry c1  #important for SAPT in psi4, default
}

set PROPERTIES_ORIGIN ["COM"]
properties('MP2/aug-cc-pvtz', properties = ['dipole'])
--------------------------------------------------------------------------

    Molecular point group: c1
  Charge       = 0
  Multiplicity = 1
  Basis Set: AUG-CC-PVTZ
    Blend: AUG-CC-PVTZ
  Basis Set: (AUG-CC-PVTZ AUX)
    Blend: AUG-CC-PVTZ-JKFIT

    Orbital Energies [Eh]
    ---------------------

    Doubly Occupied:

       1A    -20.637061     2A    -20.514343     3A    -15.587316
       4A    -11.358561     5A    -11.300917     6A    -11.299593
       7A    -11.258167     8A    -11.250244     9A    -11.247805
      10A    -11.238667    11A     -1.468267    12A     -1.369129
      13A     -1.229700    14A     -1.112960    15A     -1.041033
      16A     -0.973418    17A     -0.940870    18A     -0.839658
      19A     -0.795037    20A     -0.773141    21A     -0.736370
      22A     -0.667820    23A     -0.656333    24A     -0.636089
      25A     -0.617539    26A     -0.595423    27A     -0.591484
      28A     -0.580263    29A     -0.575541    30A     -0.551453
      31A     -0.543262    32A     -0.534204    33A     -0.521625
      34A     -0.432055    35A     -0.398603    36A     -0.388955
      37A     -0.324120

  @DF-RHF Final Energy:  -474.65150004680379

   => Energetics <=

    Nuclear Repulsion Energy =            509.5756851728394849
    One-Electron Energy =               -1657.2803211181194456
    Two-Electron Energy =                 673.0531358984761710
    Total Energy =                       -474.6515000468037897
  Basis Set: (AUG-CC-PVTZ AUX)
    Blend: AUG-CC-PVTZ-RI
    Molecular point group: c1

    Geometry (in Angstrom), charge = 0, multiplicity = 1:

       Center              X                  Y                   Z               Mass
    ------------   -----------------  -----------------  -----------------  -----------------
         O           -0.421860878993    -1.213120789332    -0.001447382236    15.994914619570
         O            1.710889121007     1.657742210669    -0.001435382236    15.994914619570
         N            2.211912121007    -0.590581789332    -0.001464382236    14.003074004430
         C           -2.316617878993     0.014880210669    -0.001444382236    12.000000000000
         C           -0.071624878993     0.113449210669    -0.001461382236    12.000000000000
         C           -1.195711878993     0.897350210668    -0.001458382236    12.000000000000
         C           -1.790974878993    -1.251001789331    -0.001440382236    12.000000000000
         C            1.360047121007     0.472709210669    -0.001450382236    12.000000000000
         C           -3.766445878993     0.385622210669    -0.001450382236    12.000000000000
         C            3.650830121007    -0.418269789331    -0.001445382236    12.000000000000
         H           -1.197639478993     1.979494810668     0.198531617764     1.007825032230
         H           -2.231280878993    -2.238350789332    -0.001422382236     1.007825032230
         H           -4.020761878993     0.978804210668    -0.884712382236     1.007825032230
         H           -4.397183878993    -0.507539789332    -0.001439382236     1.007825032230
         H           -4.020764878993     0.978828210669     0.881794617764     1.007825032230
         H            1.813300121007    -1.520376789332    -0.001468382236     1.007825032230
         H            4.099786121007    -0.866213789332    -0.892705382236     1.007825032230
         H            4.099764121007    -0.866189789332     0.889838617764     1.007825032230
         H            3.845019121007     0.653963210668    -0.001456382236     1.007825032230

  Basis Set: AUG-CC-PVTZ
    Blend: AUG-CC-PVTZ
  Basis Set: (AUG-CC-PVTZ AUX)
    Blend: AUG-CC-PVTZ-JKFIT
	 Reference Energy          =    -474.6515000468037897 [Eh]
	 Singles Energy            =      -0.0000000000000000 [Eh]
	 Same-Spin Energy          =      -0.4910041503814465 [Eh]
	 Opposite-Spin Energy      =      -1.5268337673856647 [Eh]
	 Correlation Energy        =      -2.0178379177671113 [Eh]
	 Total Energy              =    -476.6693379645709001 [Eh]

	 ================> DF-SCS-MP2 Energies <==================
	-----------------------------------------------------------
	 SCS Same-Spin Scale       =       0.3333333333333333 [-]
	 SCS Opposite-Spin Scale   =       1.2000000000000000 [-]
	 SCS Same-Spin Energy      =      -0.1636680501271488 [Eh]
	 SCS Opposite-Spin Energy  =      -1.8322005208627976 [Eh]
	 SCS Correlation Energy    =      -1.9958685709899464 [Eh]
	 SCS Total Energy          =    -476.6473686177937452 [Eh]
	-----------------------------------------------------------

  Dipole Moment: [D]
     X:    -1.2853      Y:    -3.1711      Z:     0.1476     Total:     3.4249

*** Psi4 exiting successfully. Buy a developer a beer!
