                               Psi4 1.3.2 release

  ==> Input File <==

--------------------------------------------------------------------------
#psi4
#
memory 32 gb

molecule  {
0 1
  O       -0.4083860    -1.2037120     0.0000020
  O        1.7243640     1.6671510     0.0000140
  N        2.2253870    -0.5811730    -0.0000150
  C       -2.3031430     0.0242890     0.0000050
  C       -0.0581500     0.1228580    -0.0000120
  C       -1.1822370     0.9067590    -0.0000090
  C       -1.7775000    -1.2415930     0.0000090
  C        1.3735222     0.4821176    -0.1000010
  C       -3.7529710     0.3950310    -0.0000010
  C        3.6643050    -0.4088610     0.0000040
  H       -1.1841660     1.9889020    -0.0000190
  H       -2.2178060    -2.2289420     0.0000270
  H       -4.0072870     0.9882130    -0.8832630
  H       -4.3837090    -0.4981310     0.0000100
  H       -4.0072900     0.9882370     0.8832440
  H        1.8267750    -1.5109680    -0.0000190
  H        4.1132610    -0.8568050    -0.8912560
  H        4.1132390    -0.8567810     0.8912880
  H        3.8584940     0.6633720    -0.0000070
units angstrom
no_reorient  #important for SAPT in psi4, default
symmetry c1  #important for SAPT in psi4, default
}

set PROPERTIES_ORIGIN ["COM"]
properties('MP2/aug-cc-pvtz', properties = ['dipole'])
--------------------------------------------------------------------------

    Molecular point group: c1
  Charge       = 0
  Multiplicity = 1
  Basis Set: AUG-CC-PVTZ
    Blend: AUG-CC-PVTZ
  Basis Set: (AUG-CC-PVTZ AUX)
    Blend: AUG-CC-PVTZ-JKFIT

    Orbital Energies [Eh]
    ---------------------

    Doubly Occupied:

       1A    -20.636656     2A    -20.514988     3A    -15.587461
       4A    -11.359846     5A    -11.300832     6A    -11.299521
       7A    -11.257937     8A    -11.250129     9A    -11.246295
      10A    -11.238702    11A     -1.467899    12A     -1.367157
      13A     -1.228330    14A     -1.113041    15A     -1.040546
      16A     -0.973158    17A     -0.940499    18A     -0.839436
      19A     -0.796509    20A     -0.772218    21A     -0.736761
      22A     -0.668057    23A     -0.655619    24A     -0.635311
      25A     -0.617043    26A     -0.596401    27A     -0.590619
      28A     -0.580086    29A     -0.578512    30A     -0.551255
      31A     -0.543080    32A     -0.533163    33A     -0.521614
      34A     -0.431630    35A     -0.398774    36A     -0.388340
      37A     -0.323717

  @DF-RHF Final Energy:  -474.64929200026728

   => Energetics <=

    Nuclear Repulsion Energy =            509.4807706032489705
    One-Electron Energy =               -1657.0978380494034354
    Two-Electron Energy =                 672.9677754458872414
    Total Energy =                       -474.6492920002673372
  Basis Set: (AUG-CC-PVTZ AUX)
    Blend: AUG-CC-PVTZ-RI
    Molecular point group: c1

    Geometry (in Angstrom), charge = 0, multiplicity = 1:

       Center              X                  Y                   Z               Mass
    ------------   -----------------  -----------------  -----------------  -----------------
         O           -0.421860886105    -1.213120743219     0.008631227425    15.994914619570
         O            1.710889113895     1.657742256781     0.008643227425    15.994914619570
         N            2.211912113895    -0.590581743219     0.008614227425    14.003074004430
         C           -2.316617886105     0.014880256781     0.008634227425    12.000000000000
         C           -0.071624886105     0.113449256781     0.008617227425    12.000000000000
         C           -1.195711886105     0.897350256781     0.008620227425    12.000000000000
         C           -1.790974886105    -1.251001743219     0.008638227425    12.000000000000
         C            1.360047313895     0.472708856781    -0.091371772575    12.000000000000
         C           -3.766445886105     0.385622256781     0.008628227425    12.000000000000
         C            3.650830113895    -0.418269743219     0.008633227425    12.000000000000
         H           -1.197640886105     1.979493256781     0.008610227425     1.007825032230
         H           -2.231280886105    -2.238350743219     0.008656227425     1.007825032230
         H           -4.020761886105     0.978804256781    -0.874633772575     1.007825032230
         H           -4.397183886105    -0.507539743219     0.008639227425     1.007825032230
         H           -4.020764886105     0.978828256781     0.891873227425     1.007825032230
         H            1.813300113895    -1.520376743219     0.008610227425     1.007825032230
         H            4.099786113895    -0.866213743219    -0.882626772575     1.007825032230
         H            4.099764113895    -0.866189743219     0.899917227425     1.007825032230
         H            3.845019113895     0.653963256781     0.008622227425     1.007825032230

  Basis Set: AUG-CC-PVTZ
    Blend: AUG-CC-PVTZ
  Basis Set: (AUG-CC-PVTZ AUX)
    Blend: AUG-CC-PVTZ-JKFIT
	 Reference Energy          =    -474.6492920002672804 [Eh]
	 Singles Energy            =      -0.0000000000000000 [Eh]
	 Same-Spin Energy          =      -0.4911425714875401 [Eh]
	 Opposite-Spin Energy      =      -1.5271711792279259 [Eh]
	 Correlation Energy        =      -2.0183137507154658 [Eh]
	 Total Energy              =    -476.6676057509827729 [Eh]

	 ================> DF-SCS-MP2 Energies <==================
	-----------------------------------------------------------
	 SCS Same-Spin Scale       =       0.3333333333333333 [-]
	 SCS Opposite-Spin Scale   =       1.2000000000000000 [-]
	 SCS Same-Spin Energy      =      -0.1637141904958467 [Eh]
	 SCS Opposite-Spin Energy  =      -1.8326054150735109 [Eh]
	 SCS Correlation Energy    =      -1.9963196055693577 [Eh]
	 SCS Total Energy          =    -476.6456116058366206 [Eh]
	-----------------------------------------------------------

  Dipole Moment: [D]
     X:    -1.2852      Y:    -3.1393      Z:    -0.1011     Total:     3.3937

*** Psi4 exiting successfully. Buy a developer a beer!
