                               Psi4 1.3.2 release

  ==> Input File <==

--------------------------------------------------------------------------
#psi4
#
memory 32 gb

molecule  {
0 1
  C        0.6677790    -0.2877210    -0.0000110
  C       -0.6677790     0.2877220     0.0000160
  C        1.8019300     0.4385480     0.0000620
  C       -1.8019300    -0.4385470    -0.0000660
  C        3.1824410    -0.1410110     0.0000540
  C       -3.1824410     0.1410100    -0.0000550
  H        0.7356230    -1.3773410    -0.0000890
  H       -0.7356240     1.3773420     0.0001000
  H        1.7263590     1.5270040     0.0001430
  H       -1.7263580    -1.5270030    -0.0001530
  H        3.1481690    -1.2341710    -0.0000530
  H        3.7490380     0.1823190    -0.8804680
  H        3.7489810     0.1821480     0.8806760
  H       -3.7489900    -0.1821670    -0.8806650
  H       -3.7490280    -0.1823020     0.8804800
  H       -3.1481700     1.2341700     0.0000290
units angstrom
no_reorient  #important for SAPT in psi4, default
symmetry c1  #important for SAPT in psi4, default
}

set PROPERTIES_ORIGIN ["COM"]
properties('MP2/aug-cc-pvtz', properties = ['dipole'])
--------------------------------------------------------------------------

    Molecular point group: c1
  Charge       = 0
  Multiplicity = 1
  Basis Set: AUG-CC-PVTZ
    Blend: AUG-CC-PVTZ
  Basis Set: (AUG-CC-PVTZ AUX)
    Blend: AUG-CC-PVTZ-JKFIT

    Orbital Energies [Eh]
    ---------------------

    Doubly Occupied:

       1A    -11.230816     2A    -11.230794     3A    -11.226905
       4A    -11.226078     5A    -11.221222     6A    -11.221222
       7A     -1.096475     8A     -1.045721     9A     -0.966537
      10A     -0.892490    11A     -0.763296    12A     -0.748777
      13A     -0.644544    14A     -0.610273    15A     -0.566881
      16A     -0.563857    17A     -0.556856    18A     -0.546144
      19A     -0.511567    20A     -0.502206    21A     -0.482376
      22A     -0.422832    23A     -0.298470

  @DF-RHF Final Energy:  -233.08173278089856

   => Energetics <=

    Nuclear Repulsion Energy =            207.9704522119360206
    One-Electron Energy =                -724.9516899785805890
    Two-Electron Energy =                 283.8995049857459776
    Total Energy =                       -233.0817327808985624
  Basis Set: (AUG-CC-PVTZ AUX)
    Blend: AUG-CC-PVTZ-RI
    Molecular point group: c1

    Geometry (in Angstrom), charge = 0, multiplicity = 1:

       Center              X                  Y                   Z               Mass
    ------------   -----------------  -----------------  -----------------  -----------------
         C            0.667779000000    -0.287721133923    -0.000011000000    12.000000000000
         C           -0.667779000000     0.287721866077     0.000016000000    12.000000000000
         C            1.801930000000     0.438547866077     0.000062000000    12.000000000000
         C           -1.801930000000    -0.438547133923    -0.000066000000    12.000000000000
         C            3.182441000000    -0.141011133923     0.000054000000    12.000000000000
         C           -3.182441000000     0.141009866077    -0.000055000000    12.000000000000
         H            0.735623000000    -1.377341133923    -0.000089000000     1.007825032230
         H           -0.735624000000     1.377341866077     0.000100000000     1.007825032230
         H            1.726359000000     1.527003866077     0.000143000000     1.007825032230
         H           -1.726358000000    -1.527003133923    -0.000153000000     1.007825032230
         H            3.148169000000    -1.234171133923    -0.000053000000     1.007825032230
         H            3.749038000000     0.182318866077    -0.880468000000     1.007825032230
         H            3.748981000000     0.182147866077     0.880676000000     1.007825032230
         H           -3.748990000000    -0.182167133923    -0.880665000000     1.007825032230
         H           -3.749028000000    -0.182302133923     0.880480000000     1.007825032230
         H           -3.148170000000     1.234169866077     0.000029000000     1.007825032230

  Basis Set: AUG-CC-PVTZ
    Blend: AUG-CC-PVTZ
  Basis Set: (AUG-CC-PVTZ AUX)
    Blend: AUG-CC-PVTZ-JKFIT
	 Reference Energy          =    -233.0817327808985624 [Eh]
	 Singles Energy            =      -0.0000000000000000 [Eh]
	 Same-Spin Energy          =      -0.2454824428577491 [Eh]
	 Opposite-Spin Energy      =      -0.8819823990050860 [Eh]
	 Correlation Energy        =      -1.1274648418628352 [Eh]
	 Total Energy              =    -234.2091976227613941 [Eh]

	 ================> DF-SCS-MP2 Energies <==================
	-----------------------------------------------------------
	 SCS Same-Spin Scale       =       0.3333333333333333 [-]
	 SCS Opposite-Spin Scale   =       1.2000000000000000 [-]
	 SCS Same-Spin Energy      =      -0.0818274809525830 [Eh]
	 SCS Opposite-Spin Energy  =      -1.0583788788061033 [Eh]
	 SCS Correlation Energy    =      -1.1402063597586862 [Eh]
	 SCS Total Energy          =    -234.2219391406572413 [Eh]
	-----------------------------------------------------------

  Dipole Moment: [D]
     X:    -0.0000      Y:     0.0000      Z:     0.0000     Total:     0.0000

*** Psi4 exiting successfully. Buy a developer a beer!
