                               Psi4 1.3.2 release

  ==> Input File <==

--------------------------------------------------------------------------
#psi4
#
memory 32 gb

molecule  {
0 1
  C        0.6677790    -0.2877210    -0.0000110
  C       -0.6677790     0.2877220     0.0000160
  C        1.8019300     0.4385480     0.0000620
  C       -1.8019300    -0.4385470    -0.0000660
  C        3.1824410    -0.1410110     0.0000540
  C       -3.1824410     0.1410100    -0.0000550
  H        0.7356258    -1.3773260    -0.2000890
  H       -0.7356240     1.3773420     0.0001000
  H        1.7263590     1.5270040     0.0001430
  H       -1.7263580    -1.5270030    -0.0001530
  H        3.1481690    -1.2341710    -0.0000530
  H        3.7490380     0.1823190    -0.8804680
  H        3.7489810     0.1821480     0.8806760
  H       -3.7489900    -0.1821670    -0.8806650
  H       -3.7490280    -0.1823020     0.8804800
  H       -3.1481700     1.2341700     0.0000290
units angstrom
no_reorient  #important for SAPT in psi4, default
symmetry c1  #important for SAPT in psi4, default
}

set PROPERTIES_ORIGIN ["COM"]
properties('MP2/aug-cc-pvtz', properties = ['dipole'])
--------------------------------------------------------------------------

    Molecular point group: c1
  Charge       = 0
  Multiplicity = 1
  Basis Set: AUG-CC-PVTZ
    Blend: AUG-CC-PVTZ
  Basis Set: (AUG-CC-PVTZ AUX)
    Blend: AUG-CC-PVTZ-JKFIT

    Orbital Energies [Eh]
    ---------------------

    Doubly Occupied:

       1A    -11.231589     2A    -11.230726     3A    -11.228315
       4A    -11.226365     5A    -11.221408     6A    -11.221167
       7A     -1.096260     8A     -1.045794     9A     -0.966461
      10A     -0.892471    11A     -0.763089    12A     -0.746464
      13A     -0.644406    14A     -0.609384    15A     -0.567190
      16A     -0.563976    17A     -0.556826    18A     -0.544830
      19A     -0.511634    20A     -0.502134    21A     -0.482198
      22A     -0.421198    23A     -0.298603

  @DF-RHF Final Energy:  -233.07914100456193

   => Energetics <=

    Nuclear Repulsion Energy =            207.9000241117371957
    One-Electron Energy =                -724.8133552431197586
    Two-Electron Energy =                 283.8341901268206584
    Total Energy =                       -233.0791410045619614
  Basis Set: (AUG-CC-PVTZ AUX)
    Blend: AUG-CC-PVTZ-RI
    Molecular point group: c1

    Geometry (in Angstrom), charge = 0, multiplicity = 1:

       Center              X                  Y                   Z               Mass
    ------------   -----------------  -----------------  -----------------  -----------------
         C            0.667778965619    -0.287721318106     0.002444766365    12.000000000000
         C           -0.667779034381     0.287721681894     0.002471766365    12.000000000000
         C            1.801929965619     0.438547681894     0.002517766365    12.000000000000
         C           -1.801930034381    -0.438547318106     0.002389766365    12.000000000000
         C            3.182440965619    -0.141011318106     0.002509766365    12.000000000000
         C           -3.182441034381     0.141009681894     0.002400766365    12.000000000000
         H            0.735625765619    -1.377326318106    -0.197633233635     1.007825032230
         H           -0.735624034381     1.377341681894     0.002555766365     1.007825032230
         H            1.726358965619     1.527003681894     0.002598766365     1.007825032230
         H           -1.726358034381    -1.527003318106     0.002302766365     1.007825032230
         H            3.148168965619    -1.234171318106     0.002402766365     1.007825032230
         H            3.749037965619     0.182318681894    -0.878012233635     1.007825032230
         H            3.748980965619     0.182147681894     0.883131766365     1.007825032230
         H           -3.748990034381    -0.182167318106    -0.878209233635     1.007825032230
         H           -3.749028034381    -0.182302318106     0.882935766365     1.007825032230
         H           -3.148170034381     1.234169681894     0.002484766365     1.007825032230

  Basis Set: AUG-CC-PVTZ
    Blend: AUG-CC-PVTZ
  Basis Set: (AUG-CC-PVTZ AUX)
    Blend: AUG-CC-PVTZ-JKFIT
	 Reference Energy          =    -233.0791410045619330 [Eh]
	 Singles Energy            =      -0.0000000000000000 [Eh]
	 Same-Spin Energy          =      -0.2456140322589722 [Eh]
	 Opposite-Spin Energy      =      -0.8822849317060393 [Eh]
	 Correlation Energy        =      -1.1278989639650114 [Eh]
	 Total Energy              =    -234.2070399685269422 [Eh]

	 ================> DF-SCS-MP2 Energies <==================
	-----------------------------------------------------------
	 SCS Same-Spin Scale       =       0.3333333333333333 [-]
	 SCS Opposite-Spin Scale   =       1.2000000000000000 [-]
	 SCS Same-Spin Energy      =      -0.0818713440863241 [Eh]
	 SCS Opposite-Spin Energy  =      -1.0587419180472470 [Eh]
	 SCS Correlation Energy    =      -1.1406132621335712 [Eh]
	 SCS Total Energy          =    -234.2197542666955030 [Eh]
	-----------------------------------------------------------

  Dipole Moment: [D]
     X:     0.0044      Y:     0.0222      Z:    -0.1197     Total:     0.1219

*** Psi4 exiting successfully. Buy a developer a beer!
