                               Psi4 1.3.2 release

  ==> Input File <==

--------------------------------------------------------------------------
#psi4
#
memory 32 gb

molecule  {
0 1
  C        0.6677790    -0.2877210    -0.0000110
  C       -0.6677790     0.2877220     0.0000160
  C        1.8019300     0.4385480     0.0000620
  C       -1.8019300    -0.4385470    -0.0000660
  C        3.1824410    -0.1410110     0.0000540
  C       -3.1824410     0.1410100    -0.0000550
  H        0.7356251    -1.3773298    -0.1500890
  H       -0.7356240     1.3773420     0.0001000
  H        1.7263590     1.5270040     0.0001430
  H       -1.7263580    -1.5270030    -0.0001530
  H        3.1481690    -1.2341710    -0.0000530
  H        3.7490380     0.1823190    -0.8804680
  H        3.7489810     0.1821480     0.8806760
  H       -3.7489900    -0.1821670    -0.8806650
  H       -3.7490280    -0.1823020     0.8804800
  H       -3.1481700     1.2341700     0.0000290
units angstrom
no_reorient  #important for SAPT in psi4, default
symmetry c1  #important for SAPT in psi4, default
}

set PROPERTIES_ORIGIN ["COM"]
properties('MP2/aug-cc-pvtz', properties = ['dipole'])
--------------------------------------------------------------------------

    Molecular point group: c1
  Charge       = 0
  Multiplicity = 1
  Basis Set: AUG-CC-PVTZ
    Blend: AUG-CC-PVTZ
  Basis Set: (AUG-CC-PVTZ AUX)
    Blend: AUG-CC-PVTZ-JKFIT

    Orbital Energies [Eh]
    ---------------------

    Doubly Occupied:

       1A    -11.231245     2A    -11.230759     3A    -11.227622
       4A    -11.226322     5A    -11.221327     6A    -11.221190
       7A     -1.096351     8A     -1.045761     9A     -0.966493
      10A     -0.892477    11A     -0.763166    12A     -0.747461
      13A     -0.644462    14A     -0.609768    15A     -0.567056
      16A     -0.563929    17A     -0.556833    18A     -0.545400
      19A     -0.511605    20A     -0.502167    21A     -0.482282
      22A     -0.421905    23A     -0.298545

  @DF-RHF Final Energy:  -233.08030800728085

   => Energetics <=

    Nuclear Repulsion Energy =            207.9305171813325899
    One-Electron Energy =                -724.8733959594808312
    Two-Electron Energy =                 283.8625707708674213
    Total Energy =                       -233.0803080072808484
  Basis Set: (AUG-CC-PVTZ AUX)
    Blend: AUG-CC-PVTZ-RI
    Molecular point group: c1

    Geometry (in Angstrom), charge = 0, multiplicity = 1:

       Center              X                  Y                   Z               Mass
    ------------   -----------------  -----------------  -----------------  -----------------
         C            0.667778974214    -0.287721271446     0.001830824774    12.000000000000
         C           -0.667779025786     0.287721728554     0.001857824774    12.000000000000
         C            1.801929974214     0.438547728554     0.001903824774    12.000000000000
         C           -1.801930025786    -0.438547271446     0.001775824774    12.000000000000
         C            3.182440974214    -0.141011271446     0.001895824774    12.000000000000
         C           -3.182441025786     0.141009728554     0.001786824774    12.000000000000
         H            0.735625074214    -1.377330071446    -0.148247175226     1.007825032230
         H           -0.735624025786     1.377341728554     0.001941824774     1.007825032230
         H            1.726358974214     1.527003728554     0.001984824774     1.007825032230
         H           -1.726358025786    -1.527003271446     0.001688824774     1.007825032230
         H            3.148168974214    -1.234171271446     0.001788824774     1.007825032230
         H            3.749037974214     0.182318728554    -0.878626175226     1.007825032230
         H            3.748980974214     0.182147728554     0.882517824774     1.007825032230
         H           -3.748990025786    -0.182167271446    -0.878823175226     1.007825032230
         H           -3.749028025786    -0.182302271446     0.882321824774     1.007825032230
         H           -3.148170025786     1.234169728554     0.001870824774     1.007825032230

  Basis Set: AUG-CC-PVTZ
    Blend: AUG-CC-PVTZ
  Basis Set: (AUG-CC-PVTZ AUX)
    Blend: AUG-CC-PVTZ-JKFIT
	 Reference Energy          =    -233.0803080072808484 [Eh]
	 Singles Energy            =      -0.0000000000000000 [Eh]
	 Same-Spin Energy          =      -0.2455568105401291 [Eh]
	 Opposite-Spin Energy      =      -0.8821469885204143 [Eh]
	 Correlation Energy        =      -1.1277037990605434 [Eh]
	 Total Energy              =    -234.2080118063414034 [Eh]

	 ================> DF-SCS-MP2 Energies <==================
	-----------------------------------------------------------
	 SCS Same-Spin Scale       =       0.3333333333333333 [-]
	 SCS Opposite-Spin Scale   =       1.2000000000000000 [-]
	 SCS Same-Spin Energy      =      -0.0818522701800430 [Eh]
	 SCS Opposite-Spin Energy  =      -1.0585763862244970 [Eh]
	 SCS Correlation Energy    =      -1.1404286564045401 [Eh]
	 SCS Total Energy          =    -234.2207366636853862 [Eh]
	-----------------------------------------------------------

  Dipole Moment: [D]
     X:     0.0025      Y:     0.0125      Z:    -0.0904     Total:     0.0913

*** Psi4 exiting successfully. Buy a developer a beer!
