                               Psi4 1.3.2 release

  ==> Input File <==

--------------------------------------------------------------------------
#psi4
#
memory 32 gb

molecule  {
0 1
  C        0.6677790    -0.2877210    -0.0000110
  C       -0.6677790     0.2877220     0.0000160
  C        1.8019300     0.4385480     0.0000620
  C       -1.8019300    -0.4385470    -0.0000660
  C        3.1824410    -0.1410110     0.0000540
  C       -3.1824410     0.1410100    -0.0000550
  H        0.7356230    -1.3773410    -0.0000890
  H       -0.7356240     1.3773420     0.0001000
  H        1.7263568     1.5269968     0.1001430
  H       -1.7263580    -1.5270030    -0.0001530
  H        3.1481690    -1.2341710    -0.0000530
  H        3.7490380     0.1823190    -0.8804680
  H        3.7489810     0.1821480     0.8806760
  H       -3.7489900    -0.1821670    -0.8806650
  H       -3.7490280    -0.1823020     0.8804800
  H       -3.1481700     1.2341700     0.0000290
units angstrom
no_reorient  #important for SAPT in psi4, default
symmetry c1  #important for SAPT in psi4, default
}

set PROPERTIES_ORIGIN ["COM"]
properties('MP2/aug-cc-pvtz', properties = ['dipole'])
--------------------------------------------------------------------------

    Molecular point group: c1
  Charge       = 0
  Multiplicity = 1
  Basis Set: AUG-CC-PVTZ
    Blend: AUG-CC-PVTZ
  Basis Set: (AUG-CC-PVTZ AUX)
    Blend: AUG-CC-PVTZ-JKFIT

    Orbital Energies [Eh]
    ---------------------

    Doubly Occupied:

       1A    -11.231222     2A    -11.230906     3A    -11.227030
       4A    -11.226189     5A    -11.221278     6A    -11.221204
       7A     -1.096491     8A     -1.045692     9A     -0.966572
      10A     -0.892502    11A     -0.763001    12A     -0.748458
      13A     -0.644327    14A     -0.610231    15A     -0.566972
      16A     -0.563943    17A     -0.556795    18A     -0.546171
      19A     -0.511516    20A     -0.501850    21A     -0.482274
      22A     -0.422738    23A     -0.298475

  @DF-RHF Final Energy:  -233.08113886669142

   => Energetics <=

    Nuclear Repulsion Energy =            207.9533356377660311
    One-Electron Energy =                -724.9172759572984432
    Two-Electron Energy =                 283.8828014528410222
    Total Energy =                       -233.0811388666913899
  Basis Set: (AUG-CC-PVTZ AUX)
    Blend: AUG-CC-PVTZ-RI
    Molecular point group: c1

    Geometry (in Angstrom), charge = 0, multiplicity = 1:

       Center              X                  Y                   Z               Mass
    ------------   -----------------  -----------------  -----------------  -----------------
         C            0.667779027013    -0.287721045516    -0.001238883183    12.000000000000
         C           -0.667778972987     0.287721954484    -0.001211883183    12.000000000000
         C            1.801930027013     0.438547954484    -0.001165883183    12.000000000000
         C           -1.801929972987    -0.438547045516    -0.001293883183    12.000000000000
         C            3.182441027013    -0.141011045516    -0.001173883183    12.000000000000
         C           -3.182440972987     0.141009954484    -0.001282883183    12.000000000000
         H            0.735623027013    -1.377341045516    -0.001316883183     1.007825032230
         H           -0.735623972987     1.377341954484    -0.001127883183     1.007825032230
         H            1.726356827013     1.526996754484     0.098915116817     1.007825032230
         H           -1.726357972987    -1.527003045516    -0.001380883183     1.007825032230
         H            3.148169027013    -1.234171045516    -0.001280883183     1.007825032230
         H            3.749038027013     0.182318954484    -0.881695883183     1.007825032230
         H            3.748981027013     0.182147954484     0.879448116817     1.007825032230
         H           -3.748989972987    -0.182167045516    -0.881892883183     1.007825032230
         H           -3.749027972987    -0.182302045516     0.879252116817     1.007825032230
         H           -3.148169972987     1.234169954484    -0.001198883183     1.007825032230

  Basis Set: AUG-CC-PVTZ
    Blend: AUG-CC-PVTZ
  Basis Set: (AUG-CC-PVTZ AUX)
    Blend: AUG-CC-PVTZ-JKFIT
	 Reference Energy          =    -233.0811388666914183 [Eh]
	 Singles Energy            =      -0.0000000000000000 [Eh]
	 Same-Spin Energy          =      -0.2455139400896626 [Eh]
	 Opposite-Spin Energy      =      -0.8820587752024238 [Eh]
	 Correlation Energy        =      -1.1275727152920865 [Eh]
	 Total Energy              =    -234.2087115819834935 [Eh]

	 ================> DF-SCS-MP2 Energies <==================
	-----------------------------------------------------------
	 SCS Same-Spin Scale       =       0.3333333333333333 [-]
	 SCS Opposite-Spin Scale   =       1.2000000000000000 [-]
	 SCS Same-Spin Energy      =      -0.0818379800298875 [Eh]
	 SCS Opposite-Spin Energy  =      -1.0584705302429085 [Eh]
	 SCS Correlation Energy    =      -1.1403085102727961 [Eh]
	 SCS Total Energy          =    -234.2214473769642211 [Eh]
	-----------------------------------------------------------

  Dipole Moment: [D]
     X:    -0.0052      Y:    -0.0067      Z:     0.0642     Total:     0.0648

*** Psi4 exiting successfully. Buy a developer a beer!
