                               Psi4 1.3.2 release

  ==> Input File <==

--------------------------------------------------------------------------
#psi4
#
memory 32 gb

molecule  {
0 1
  C        0.6677790    -0.2877210    -0.0000110
  C       -0.6677790     0.2877220     0.0000160
  C        1.8019300     0.4385480     0.0000620
  C       -1.8019300    -0.4385470    -0.0000660
  C        3.1824410    -0.1410110     0.0000540
  C       -3.1824410     0.1410100    -0.0000550
  H        0.7356230    -1.3773410    -0.0000890
  H       -0.7356240     1.3773420     0.0001000
  H        1.7263558     1.5269932     0.1501430
  H       -1.7263580    -1.5270030    -0.0001530
  H        3.1481690    -1.2341710    -0.0000530
  H        3.7490380     0.1823190    -0.8804680
  H        3.7489810     0.1821480     0.8806760
  H       -3.7489900    -0.1821670    -0.8806650
  H       -3.7490280    -0.1823020     0.8804800
  H       -3.1481700     1.2341700     0.0000290
units angstrom
no_reorient  #important for SAPT in psi4, default
symmetry c1  #important for SAPT in psi4, default
}

set PROPERTIES_ORIGIN ["COM"]
properties('MP2/aug-cc-pvtz', properties = ['dipole'])
--------------------------------------------------------------------------

    Molecular point group: c1
  Charge       = 0
  Multiplicity = 1
  Basis Set: AUG-CC-PVTZ
    Blend: AUG-CC-PVTZ
  Basis Set: (AUG-CC-PVTZ AUX)
    Blend: AUG-CC-PVTZ-JKFIT

    Orbital Energies [Eh]
    ---------------------

    Doubly Occupied:

       1A    -11.231741     2A    -11.231032     3A    -11.227202
       4A    -11.226308     5A    -11.221348     6A    -11.221183
       7A     -1.096512     8A     -1.045657     9A     -0.966617
      10A     -0.892519    11A     -0.762666    12A     -0.748046
      13A     -0.644060    14A     -0.610177    15A     -0.567083
      16A     -0.564045    17A     -0.556726    18A     -0.546206
      19A     -0.511466    20A     -0.501405    21A     -0.482134
      22A     -0.422620    23A     -0.298482

  @DF-RHF Final Energy:  -233.08037066349982

   => Energetics <=

    Nuclear Repulsion Energy =            207.9321703559399168
    One-Electron Energy =                -724.8746125918306689
    Two-Electron Energy =                 283.8620715723909598
    Total Energy =                       -233.0803706634998207
  Basis Set: (AUG-CC-PVTZ AUX)
    Blend: AUG-CC-PVTZ-RI
    Molecular point group: c1

    Geometry (in Angstrom), charge = 0, multiplicity = 1:

       Center              X                  Y                   Z               Mass
    ------------   -----------------  -----------------  -----------------  -----------------
         C            0.667779039292    -0.287721001312    -0.001852824774    12.000000000000
         C           -0.667778960708     0.287721998688    -0.001825824774    12.000000000000
         C            1.801930039292     0.438547998688    -0.001779824774    12.000000000000
         C           -1.801929960708    -0.438547001312    -0.001907824774    12.000000000000
         C            3.182441039292    -0.141011001312    -0.001787824774    12.000000000000
         C           -3.182440960708     0.141009998688    -0.001896824774    12.000000000000
         H            0.735623039292    -1.377341001312    -0.001930824774     1.007825032230
         H           -0.735623960708     1.377341998688    -0.001741824774     1.007825032230
         H            1.726355839292     1.526993198688     0.148301175226     1.007825032230
         H           -1.726357960708    -1.527003001312    -0.001994824774     1.007825032230
         H            3.148169039292    -1.234171001312    -0.001894824774     1.007825032230
         H            3.749038039292     0.182318998688    -0.882309824774     1.007825032230
         H            3.748981039292     0.182147998688     0.878834175226     1.007825032230
         H           -3.748989960708    -0.182167001312    -0.882506824774     1.007825032230
         H           -3.749027960708    -0.182302001312     0.878638175226     1.007825032230
         H           -3.148169960708     1.234169998688    -0.001812824774     1.007825032230

  Basis Set: AUG-CC-PVTZ
    Blend: AUG-CC-PVTZ
  Basis Set: (AUG-CC-PVTZ AUX)
    Blend: AUG-CC-PVTZ-JKFIT
	 Reference Energy          =    -233.0803706634998207 [Eh]
	 Singles Energy            =      -0.0000000000000000 [Eh]
	 Same-Spin Energy          =      -0.2455530525058532 [Eh]
	 Opposite-Spin Energy      =      -0.8821573265497791 [Eh]
	 Correlation Energy        =      -1.1277103790556322 [Eh]
	 Total Energy              =    -234.2080810425554489 [Eh]

	 ================> DF-SCS-MP2 Energies <==================
	-----------------------------------------------------------
	 SCS Same-Spin Scale       =       0.3333333333333333 [-]
	 SCS Opposite-Spin Scale   =       1.2000000000000000 [-]
	 SCS Same-Spin Energy      =      -0.0818510175019511 [Eh]
	 SCS Opposite-Spin Energy  =      -1.0585887918597348 [Eh]
	 SCS Correlation Energy    =      -1.1404398093616859 [Eh]
	 SCS Total Energy          =    -234.2208104728615012 [Eh]
	-----------------------------------------------------------

  Dipole Moment: [D]
     X:    -0.0116      Y:    -0.0149      Z:     0.0958     Total:     0.0977

*** Psi4 exiting successfully. Buy a developer a beer!
