                               Psi4 1.3.2 release

  ==> Input File <==

--------------------------------------------------------------------------
#psi4
#
memory 32 gb

molecule  {
0 1
  C        0.6677790    -0.2877210    -0.0000110
  C       -0.6677790     0.2877220     0.0000160
  C        1.8019300     0.4385480     0.0000620
  C       -1.8019300    -0.4385470    -0.0000660
  C        3.1824410    -0.1410110     0.0000540
  C       -3.1824410     0.1410100    -0.0000550
  H        0.7356237    -1.3773373    -0.0500890
  H       -0.7356240     1.3773420     0.0001000
  H        1.7263590     1.5270040     0.0001430
  H       -1.7263580    -1.5270030    -0.0001530
  H        3.1481690    -1.2341710    -0.0000530
  H        3.7490380     0.1823190    -0.8804680
  H        3.7489810     0.1821480     0.8806760
  H       -3.7489900    -0.1821670    -0.8806650
  H       -3.7490280    -0.1823020     0.8804800
  H       -3.1481700     1.2341700     0.0000290
units angstrom
no_reorient  #important for SAPT in psi4, default
symmetry c1  #important for SAPT in psi4, default
}

set PROPERTIES_ORIGIN ["COM"]
properties('MP2/aug-cc-pvtz', properties = ['dipole'])
--------------------------------------------------------------------------

    Molecular point group: c1
  Charge       = 0
  Multiplicity = 1
  Basis Set: AUG-CC-PVTZ
    Blend: AUG-CC-PVTZ
  Basis Set: (AUG-CC-PVTZ AUX)
    Blend: AUG-CC-PVTZ-JKFIT

    Orbital Energies [Eh]
    ---------------------

    Doubly Occupied:

       1A    -11.230856     2A    -11.230797     3A    -11.226962
       4A    -11.226128     5A    -11.221234     6A    -11.221219
       7A     -1.096461     8A     -1.045725     9A     -0.966532
      10A     -0.892488    11A     -0.763280    12A     -0.748629
      13A     -0.644534    14A     -0.610216    15A     -0.566901
      16A     -0.563866    17A     -0.556852    18A     -0.546061
      19A     -0.511572    20A     -0.502202    21A     -0.482366
      22A     -0.422728    23A     -0.298478

  @DF-RHF Final Energy:  -233.08157894746094

   => Energetics <=

    Nuclear Repulsion Energy =            207.9659735192695393
    One-Electron Energy =                -724.9429298410703950
    Two-Electron Energy =                 283.8953773743398870
    Total Energy =                       -233.0815789474609119
  Basis Set: (AUG-CC-PVTZ AUX)
    Blend: AUG-CC-PVTZ-RI
    Molecular point group: c1

    Geometry (in Angstrom), charge = 0, multiplicity = 1:

       Center              X                  Y                   Z               Mass
    ------------   -----------------  -----------------  -----------------  -----------------
         C            0.667778991405    -0.287721179355     0.000602941591    12.000000000000
         C           -0.667779008595     0.287721820645     0.000629941591    12.000000000000
         C            1.801929991405     0.438547820645     0.000675941591    12.000000000000
         C           -1.801930008595    -0.438547179355     0.000547941591    12.000000000000
         C            3.182440991405    -0.141011179355     0.000667941591    12.000000000000
         C           -3.182441008595     0.141009820645     0.000558941591    12.000000000000
         H            0.735623691405    -1.377337479355    -0.049475058409     1.007825032230
         H           -0.735624008595     1.377341820645     0.000713941591     1.007825032230
         H            1.726358991405     1.527003820645     0.000756941591     1.007825032230
         H           -1.726358008595    -1.527003179355     0.000460941591     1.007825032230
         H            3.148168991405    -1.234171179355     0.000560941591     1.007825032230
         H            3.749037991405     0.182318820645    -0.879854058409     1.007825032230
         H            3.748980991405     0.182147820645     0.881289941591     1.007825032230
         H           -3.748990008595    -0.182167179355    -0.880051058409     1.007825032230
         H           -3.749028008595    -0.182302179355     0.881093941591     1.007825032230
         H           -3.148170008595     1.234169820645     0.000642941591     1.007825032230

  Basis Set: AUG-CC-PVTZ
    Blend: AUG-CC-PVTZ
  Basis Set: (AUG-CC-PVTZ AUX)
    Blend: AUG-CC-PVTZ-JKFIT
	 Reference Energy          =    -233.0815789474609403 [Eh]
	 Singles Energy            =      -0.0000000000000000 [Eh]
	 Same-Spin Energy          =      -0.2454907395048043 [Eh]
	 Opposite-Spin Energy      =      -0.8819995209512235 [Eh]
	 Correlation Energy        =      -1.1274902604560277 [Eh]
	 Total Energy              =    -234.2090692079169685 [Eh]

	 ================> DF-SCS-MP2 Energies <==================
	-----------------------------------------------------------
	 SCS Same-Spin Scale       =       0.3333333333333333 [-]
	 SCS Opposite-Spin Scale   =       1.2000000000000000 [-]
	 SCS Same-Spin Energy      =      -0.0818302465016014 [Eh]
	 SCS Opposite-Spin Energy  =      -1.0583994251414681 [Eh]
	 SCS Correlation Energy    =      -1.1402296716430695 [Eh]
	 SCS Total Energy          =    -234.2218086191039959 [Eh]
	-----------------------------------------------------------

  Dipole Moment: [D]
     X:     0.0003      Y:     0.0014      Z:    -0.0303     Total:     0.0304

*** Psi4 exiting successfully. Buy a developer a beer!
