                               Psi4 1.3.2 release

  ==> Input File <==

--------------------------------------------------------------------------
#psi4
#
memory 32 gb

molecule  {
0 1
  C        0.6677790    -0.2877210    -0.0000110
  C       -0.6677790     0.2877220     0.0000160
  C        1.8019300     0.4385480     0.0000620
  C       -1.8019300    -0.4385470    -0.0000660
  C        3.1824410    -0.1410110     0.0000540
  C       -3.1824410     0.1410100    -0.0000550
  H        0.7356244    -1.3773335    -0.1000890
  H       -0.7356240     1.3773420     0.0001000
  H        1.7263590     1.5270040     0.0001430
  H       -1.7263580    -1.5270030    -0.0001530
  H        3.1481690    -1.2341710    -0.0000530
  H        3.7490380     0.1823190    -0.8804680
  H        3.7489810     0.1821480     0.8806760
  H       -3.7489900    -0.1821670    -0.8806650
  H       -3.7490280    -0.1823020     0.8804800
  H       -3.1481700     1.2341700     0.0000290
units angstrom
no_reorient  #important for SAPT in psi4, default
symmetry c1  #important for SAPT in psi4, default
}

set PROPERTIES_ORIGIN ["COM"]
properties('MP2/aug-cc-pvtz', properties = ['dipole'])
--------------------------------------------------------------------------

    Molecular point group: c1
  Charge       = 0
  Multiplicity = 1
  Basis Set: AUG-CC-PVTZ
    Blend: AUG-CC-PVTZ
  Basis Set: (AUG-CC-PVTZ AUX)
    Blend: AUG-CC-PVTZ-JKFIT

    Orbital Energies [Eh]
    ---------------------

    Doubly Occupied:

       1A    -11.231001     2A    -11.230783     3A    -11.227176
       4A    -11.226236     5A    -11.221269     6A    -11.221208
       7A     -1.096419     8A     -1.045738     9A     -0.966517
      10A     -0.892484    11A     -0.763234    12A     -0.748188
      13A     -0.644506    14A     -0.610047    15A     -0.566959
      16A     -0.563891    17A     -0.556844    18A     -0.545812
      19A     -0.511584    20A     -0.502189    21A     -0.482336
      22A     -0.422418    23A     -0.298503

  @DF-RHF Final Energy:  -233.08111058395690

   => Energetics <=

    Nuclear Repulsion Energy =            207.9526003407563906
    One-Electron Energy =                -724.9167406727331127
    Two-Electron Energy =                 283.8830297480198510
    Total Energy =                       -233.0811105839568995
  Basis Set: (AUG-CC-PVTZ AUX)
    Blend: AUG-CC-PVTZ-RI
    Molecular point group: c1

    Geometry (in Angstrom), charge = 0, multiplicity = 1:

       Center              X                  Y                   Z               Mass
    ------------   -----------------  -----------------  -----------------  -----------------
         C            0.667778982810    -0.287721226014     0.001216883183    12.000000000000
         C           -0.667779017190     0.287721773986     0.001243883183    12.000000000000
         C            1.801929982810     0.438547773986     0.001289883183    12.000000000000
         C           -1.801930017190    -0.438547226014     0.001161883183    12.000000000000
         C            3.182440982810    -0.141011226014     0.001281883183    12.000000000000
         C           -3.182441017190     0.141009773986     0.001172883183    12.000000000000
         H            0.735624382810    -1.377333726014    -0.098861116817     1.007825032230
         H           -0.735624017190     1.377341773986     0.001327883183     1.007825032230
         H            1.726358982810     1.527003773986     0.001370883183     1.007825032230
         H           -1.726358017190    -1.527003226014     0.001074883183     1.007825032230
         H            3.148168982810    -1.234171226014     0.001174883183     1.007825032230
         H            3.749037982810     0.182318773986    -0.879240116817     1.007825032230
         H            3.748980982810     0.182147773986     0.881903883183     1.007825032230
         H           -3.748990017190    -0.182167226014    -0.879437116817     1.007825032230
         H           -3.749028017190    -0.182302226014     0.881707883183     1.007825032230
         H           -3.148170017190     1.234169773986     0.001256883183     1.007825032230

  Basis Set: AUG-CC-PVTZ
    Blend: AUG-CC-PVTZ
  Basis Set: (AUG-CC-PVTZ AUX)
    Blend: AUG-CC-PVTZ-JKFIT
	 Reference Energy          =    -233.0811105839568995 [Eh]
	 Singles Energy            =      -0.0000000000000000 [Eh]
	 Same-Spin Energy          =      -0.2455155874871127 [Eh]
	 Opposite-Spin Energy      =      -0.8820529725948486 [Eh]
	 Correlation Energy        =      -1.1275685600819614 [Eh]
	 Total Energy              =    -234.2086791440388538 [Eh]

	 ================> DF-SCS-MP2 Energies <==================
	-----------------------------------------------------------
	 SCS Same-Spin Scale       =       0.3333333333333333 [-]
	 SCS Opposite-Spin Scale   =       1.2000000000000000 [-]
	 SCS Same-Spin Energy      =      -0.0818385291623709 [Eh]
	 SCS Opposite-Spin Energy  =      -1.0584635671138183 [Eh]
	 SCS Correlation Energy    =      -1.1403020962761892 [Eh]
	 SCS Total Energy          =    -234.2214126802331009 [Eh]
	-----------------------------------------------------------

  Dipole Moment: [D]
     X:     0.0011      Y:     0.0056      Z:    -0.0605     Total:     0.0608

*** Psi4 exiting successfully. Buy a developer a beer!
