                               Psi4 1.3.2 release

  ==> Input File <==

--------------------------------------------------------------------------
#psi4
#
memory 32 gb

molecule  {
0 1
  C        0.6677790    -0.2877210    -0.0000110
  C       -0.6677790     0.2877220     0.0000160
  C        1.8019300     0.4385480     0.0000620
  C       -1.8019300    -0.4385470    -0.0000660
  C        3.1824410    -0.1410110     0.0000540
  C       -3.1824410     0.1410100    -0.0000550
  H        0.7356230    -1.3773410    -0.0000890
  H       -0.7356240     1.3773420     0.0001000
  H        1.7263536     1.5269859     0.2501430
  H       -1.7263580    -1.5270030    -0.0001530
  H        3.1481690    -1.2341710    -0.0000530
  H        3.7490380     0.1823190    -0.8804680
  H        3.7489810     0.1821480     0.8806760
  H       -3.7489900    -0.1821670    -0.8806650
  H       -3.7490280    -0.1823020     0.8804800
  H       -3.1481700     1.2341700     0.0000290
units angstrom
no_reorient  #important for SAPT in psi4, default
symmetry c1  #important for SAPT in psi4, default
}

set PROPERTIES_ORIGIN ["COM"]
properties('MP2/aug-cc-pvtz', properties = ['dipole'])
--------------------------------------------------------------------------

    Molecular point group: c1
  Charge       = 0
  Multiplicity = 1
  Basis Set: AUG-CC-PVTZ
    Blend: AUG-CC-PVTZ
  Basis Set: (AUG-CC-PVTZ AUX)
    Blend: AUG-CC-PVTZ-JKFIT

    Orbital Energies [Eh]
    ---------------------

    Doubly Occupied:

       1A    -11.233382     2A    -11.231427     3A    -11.227830
       4A    -11.226597     5A    -11.221567     6A    -11.221127
       7A     -1.096589     8A     -1.045558     9A     -0.966760
      10A     -0.892584    11A     -0.761823    12A     -0.746647
      13A     -0.643242    14A     -0.609989    15A     -0.567419
      16A     -0.564343    17A     -0.556548    18A     -0.546328
      19A     -0.511387    20A     -0.500007    21A     -0.481584
      22A     -0.422238    23A     -0.298512

  @DF-RHF Final Energy:  -233.07773811103675

   => Energetics <=

    Nuclear Repulsion Energy =            207.8660919555335056
    One-Electron Energy =                -724.7406830607538950
    Two-Electron Energy =                 283.7968529941836096
    Total Energy =                       -233.0777381110367514
  Basis Set: (AUG-CC-PVTZ AUX)
    Blend: AUG-CC-PVTZ-RI
    Molecular point group: c1

    Geometry (in Angstrom), charge = 0, multiplicity = 1:

       Center              X                  Y                   Z               Mass
    ------------   -----------------  -----------------  -----------------  -----------------
         C            0.667779066306    -0.287720911676    -0.003080707956    12.000000000000
         C           -0.667778933694     0.287722088324    -0.003053707956    12.000000000000
         C            1.801930066306     0.438548088324    -0.003007707956    12.000000000000
         C           -1.801929933694    -0.438546911676    -0.003135707956    12.000000000000
         C            3.182441066306    -0.141010911676    -0.003015707956    12.000000000000
         C           -3.182440933694     0.141010088324    -0.003124707956    12.000000000000
         H            0.735623066306    -1.377340911676    -0.003158707956     1.007825032230
         H           -0.735623933694     1.377342088324    -0.002969707956     1.007825032230
         H            1.726353666306     1.526985988324     0.247073292044     1.007825032230
         H           -1.726357933694    -1.527002911676    -0.003222707956     1.007825032230
         H            3.148169066306    -1.234170911676    -0.003122707956     1.007825032230
         H            3.749038066306     0.182319088324    -0.883537707956     1.007825032230
         H            3.748981066306     0.182148088324     0.877606292044     1.007825032230
         H           -3.748989933694    -0.182166911676    -0.883734707956     1.007825032230
         H           -3.749027933694    -0.182301911676     0.877410292044     1.007825032230
         H           -3.148169933694     1.234170088324    -0.003040707956     1.007825032230

  Basis Set: AUG-CC-PVTZ
    Blend: AUG-CC-PVTZ
  Basis Set: (AUG-CC-PVTZ AUX)
    Blend: AUG-CC-PVTZ-JKFIT
	 Reference Energy          =    -233.0777381110367514 [Eh]
	 Singles Energy            =      -0.0000000000000000 [Eh]
	 Same-Spin Energy          =      -0.2456760391521839 [Eh]
	 Opposite-Spin Energy      =      -0.8824846151300966 [Eh]
	 Correlation Energy        =      -1.1281606542822806 [Eh]
	 Total Energy              =    -234.2058987653190343 [Eh]

	 ================> DF-SCS-MP2 Energies <==================
	-----------------------------------------------------------
	 SCS Same-Spin Scale       =       0.3333333333333333 [-]
	 SCS Opposite-Spin Scale   =       1.2000000000000000 [-]
	 SCS Same-Spin Energy      =      -0.0818920130507280 [Eh]
	 SCS Opposite-Spin Energy  =      -1.0589815381561158 [Eh]
	 SCS Correlation Energy    =      -1.1408735512068438 [Eh]
	 SCS Total Energy          =    -234.2186116622436032 [Eh]
	-----------------------------------------------------------

  Dipole Moment: [D]
     X:    -0.0311      Y:    -0.0411      Z:     0.1570     Total:     0.1652

*** Psi4 exiting successfully. Buy a developer a beer!
