                               Psi4 1.3.2 release

  ==> Input File <==

--------------------------------------------------------------------------
#psi4
#
memory 32 gb

molecule  {
0 1
  C        0.6677790    -0.2877210    -0.0000110
  C       -0.6677790     0.2877220     0.0000160
  C        1.8019300     0.4385480     0.0000620
  C       -1.8019300    -0.4385470    -0.0000660
  C        3.1824410    -0.1410110     0.0000540
  C       -3.1824410     0.1410100    -0.0000550
  H        0.7356230    -1.3773410    -0.0000890
  H       -0.7356240     1.3773420     0.0001000
  H        1.7263579     1.5270004     0.0501430
  H       -1.7263580    -1.5270030    -0.0001530
  H        3.1481690    -1.2341710    -0.0000530
  H        3.7490380     0.1823190    -0.8804680
  H        3.7489810     0.1821480     0.8806760
  H       -3.7489900    -0.1821670    -0.8806650
  H       -3.7490280    -0.1823020     0.8804800
  H       -3.1481700     1.2341700     0.0000290
units angstrom
no_reorient  #important for SAPT in psi4, default
symmetry c1  #important for SAPT in psi4, default
}

set PROPERTIES_ORIGIN ["COM"]
properties('MP2/aug-cc-pvtz', properties = ['dipole'])
--------------------------------------------------------------------------

    Molecular point group: c1
  Charge       = 0
  Multiplicity = 1
  Basis Set: AUG-CC-PVTZ
    Blend: AUG-CC-PVTZ
  Basis Set: (AUG-CC-PVTZ AUX)
    Blend: AUG-CC-PVTZ-JKFIT

    Orbital Energies [Eh]
    ---------------------

    Doubly Occupied:

       1A    -11.230911     2A    -11.230829     3A    -11.226935
       4A    -11.226107     5A    -11.221236     6A    -11.221218
       7A     -1.096479     8A     -1.045713     9A     -0.966546
      10A     -0.892493    11A     -0.763220    12A     -0.748698
      13A     -0.644489    14A     -0.610262    15A     -0.566904
      16A     -0.563879    17A     -0.556840    18A     -0.546150
      19A     -0.511554    20A     -0.502117    21A     -0.482351
      22A     -0.422808    23A     -0.298471

  @DF-RHF Final Energy:  -233.08158607849288

   => Energetics <=

    Nuclear Repulsion Energy =            207.9661573606196612
    One-Electron Energy =                -724.9430625381122582
    Two-Electron Energy =                 283.8953190989997779
    Total Energy =                       -233.0815860784928759
  Basis Set: (AUG-CC-PVTZ AUX)
    Blend: AUG-CC-PVTZ-RI
    Molecular point group: c1

    Geometry (in Angstrom), charge = 0, multiplicity = 1:

       Center              X                  Y                   Z               Mass
    ------------   -----------------  -----------------  -----------------  -----------------
         C            0.667779013507    -0.287721089719    -0.000624941591    12.000000000000
         C           -0.667778986493     0.287721910281    -0.000597941591    12.000000000000
         C            1.801930013507     0.438547910281    -0.000551941591    12.000000000000
         C           -1.801929986493    -0.438547089719    -0.000679941591    12.000000000000
         C            3.182441013507    -0.141011089719    -0.000559941591    12.000000000000
         C           -3.182440986493     0.141009910281    -0.000668941591    12.000000000000
         H            0.735623013507    -1.377341089719    -0.000702941591     1.007825032230
         H           -0.735623986493     1.377341910281    -0.000513941591     1.007825032230
         H            1.726357913507     1.527000310281     0.049529058409     1.007825032230
         H           -1.726357986493    -1.527003089719    -0.000766941591     1.007825032230
         H            3.148169013507    -1.234171089719    -0.000666941591     1.007825032230
         H            3.749038013507     0.182318910281    -0.881081941591     1.007825032230
         H            3.748981013507     0.182147910281     0.880062058409     1.007825032230
         H           -3.748989986493    -0.182167089719    -0.881278941591     1.007825032230
         H           -3.749027986493    -0.182302089719     0.879866058409     1.007825032230
         H           -3.148169986493     1.234169910281    -0.000584941591     1.007825032230

  Basis Set: AUG-CC-PVTZ
    Blend: AUG-CC-PVTZ
  Basis Set: (AUG-CC-PVTZ AUX)
    Blend: AUG-CC-PVTZ-JKFIT
	 Reference Energy          =    -233.0815860784928759 [Eh]
	 Singles Energy            =      -0.0000000000000000 [Eh]
	 Same-Spin Energy          =      -0.2454903335099356 [Eh]
	 Opposite-Spin Energy      =      -0.8820012300303239 [Eh]
	 Correlation Energy        =      -1.1274915635402596 [Eh]
	 Total Energy              =    -234.2090776420331224 [Eh]

	 ================> DF-SCS-MP2 Energies <==================
	-----------------------------------------------------------
	 SCS Same-Spin Scale       =       0.3333333333333333 [-]
	 SCS Opposite-Spin Scale   =       1.2000000000000000 [-]
	 SCS Same-Spin Energy      =      -0.0818301111699785 [Eh]
	 SCS Opposite-Spin Energy  =      -1.0584014760363887 [Eh]
	 SCS Correlation Energy    =      -1.1402315872063673 [Eh]
	 SCS Total Energy          =    -234.2218176656992341 [Eh]
	-----------------------------------------------------------

  Dipole Moment: [D]
     X:    -0.0013      Y:    -0.0017      Z:     0.0322     Total:     0.0323

*** Psi4 exiting successfully. Buy a developer a beer!
