                               Psi4 1.3.2 release

  ==> Input File <==

--------------------------------------------------------------------------
#psi4
#
memory 32 gb

molecule  {
0 1
  C        0.6677790    -0.2877210    -0.0000110
  C       -0.6677790     0.2877220     0.0000160
  C        1.8019300     0.4385480     0.0000620
  C       -1.8019300    -0.4385470    -0.0000660
  C        3.1824410    -0.1410110     0.0000540
  C       -3.1824410     0.1410100    -0.0000550
  H        0.7356265    -1.3773223    -0.2500890
  H       -0.7356240     1.3773420     0.0001000
  H        1.7263590     1.5270040     0.0001430
  H       -1.7263580    -1.5270030    -0.0001530
  H        3.1481690    -1.2341710    -0.0000530
  H        3.7490380     0.1823190    -0.8804680
  H        3.7489810     0.1821480     0.8806760
  H       -3.7489900    -0.1821670    -0.8806650
  H       -3.7490280    -0.1823020     0.8804800
  H       -3.1481700     1.2341700     0.0000290
units angstrom
no_reorient  #important for SAPT in psi4, default
symmetry c1  #important for SAPT in psi4, default
}

set PROPERTIES_ORIGIN ["COM"]
properties('MP2/aug-cc-pvtz', properties = ['dipole'])
--------------------------------------------------------------------------

    Molecular point group: c1
  Charge       = 0
  Multiplicity = 1
  Basis Set: AUG-CC-PVTZ
    Blend: AUG-CC-PVTZ
  Basis Set: (AUG-CC-PVTZ AUX)
    Blend: AUG-CC-PVTZ-JKFIT

    Orbital Energies [Eh]
    ---------------------

    Doubly Occupied:

       1A    -11.232037     2A    -11.230688     3A    -11.229223
       4A    -11.226382     5A    -11.221510     6A    -11.221140
       7A     -1.096151     8A     -1.045838     9A     -0.966424
      10A     -0.892467    11A     -0.763012    12A     -0.745220
      13A     -0.644345    14A     -0.608902    15A     -0.567356
      16A     -0.564026    17A     -0.556828    18A     -0.544107
      19A     -0.511670    20A     -0.502086    21A     -0.482075
      22A     -0.420303    23A     -0.298679

  @DF-RHF Final Energy:  -233.07757222881247

   => Energetics <=

    Nuclear Repulsion Energy =            207.8615197055952990
    One-Electron Energy =                -724.7372445357373181
    Two-Electron Energy =                 283.7981526013294911
    Total Energy =                       -233.0775722288124712
  Basis Set: (AUG-CC-PVTZ AUX)
    Blend: AUG-CC-PVTZ-RI
    Molecular point group: c1

    Geometry (in Angstrom), charge = 0, multiplicity = 1:

       Center              X                  Y                   Z               Mass
    ------------   -----------------  -----------------  -----------------  -----------------
         C            0.667778957024    -0.287721363537     0.003058707956    12.000000000000
         C           -0.667779042976     0.287721636463     0.003085707956    12.000000000000
         C            1.801929957024     0.438547636463     0.003131707956    12.000000000000
         C           -1.801930042976    -0.438547363537     0.003003707956    12.000000000000
         C            3.182440957024    -0.141011363537     0.003123707956    12.000000000000
         C           -3.182441042976     0.141009636463     0.003014707956    12.000000000000
         H            0.735626457024    -1.377322663537    -0.247019292044     1.007825032230
         H           -0.735624042976     1.377341636463     0.003169707956     1.007825032230
         H            1.726358957024     1.527003636463     0.003212707956     1.007825032230
         H           -1.726358042976    -1.527003363537     0.002916707956     1.007825032230
         H            3.148168957024    -1.234171363537     0.003016707956     1.007825032230
         H            3.749037957024     0.182318636463    -0.877398292044     1.007825032230
         H            3.748980957024     0.182147636463     0.883745707956     1.007825032230
         H           -3.748990042976    -0.182167363537    -0.877595292044     1.007825032230
         H           -3.749028042976    -0.182302363537     0.883549707956     1.007825032230
         H           -3.148170042976     1.234169636463     0.003098707956     1.007825032230

  Basis Set: AUG-CC-PVTZ
    Blend: AUG-CC-PVTZ
  Basis Set: (AUG-CC-PVTZ AUX)
    Blend: AUG-CC-PVTZ-JKFIT
	 Reference Energy          =    -233.0775722288124712 [Eh]
	 Singles Energy            =      -0.0000000000000000 [Eh]
	 Same-Spin Energy          =      -0.2456866732440833 [Eh]
	 Opposite-Spin Energy      =      -0.8824683744450721 [Eh]
	 Correlation Energy        =      -1.1281550476891553 [Eh]
	 Total Energy              =    -234.2057272765016194 [Eh]

	 ================> DF-SCS-MP2 Energies <==================
	-----------------------------------------------------------
	 SCS Same-Spin Scale       =       0.3333333333333333 [-]
	 SCS Opposite-Spin Scale   =       1.2000000000000000 [-]
	 SCS Same-Spin Energy      =      -0.0818955577480278 [Eh]
	 SCS Opposite-Spin Energy  =      -1.0589620493340866 [Eh]
	 SCS Correlation Energy    =      -1.1408576070821144 [Eh]
	 SCS Total Energy          =    -234.2184298358945966 [Eh]
	-----------------------------------------------------------

  Dipole Moment: [D]
     X:     0.0066      Y:     0.0345      Z:    -0.1485     Total:     0.1526

*** Psi4 exiting successfully. Buy a developer a beer!
