                               Psi4 1.3.2 release

  ==> Input File <==

--------------------------------------------------------------------------
#psi4
#
memory 32 gb

molecule  {
0 1
  C        0.6677790    -0.2877210    -0.0000110
  C       -0.6677790     0.2877220     0.0000160
  C        1.8019300     0.4385480     0.0000620
  C       -1.8019300    -0.4385470    -0.0000660
  C        3.1824410    -0.1410110     0.0000540
  C       -3.1824410     0.1410100    -0.0000550
  H        0.7356230    -1.3773410    -0.0000890
  H       -0.7356240     1.3773420     0.0001000
  H        1.7263547     1.5269896     0.2001430
  H       -1.7263580    -1.5270030    -0.0001530
  H        3.1481690    -1.2341710    -0.0000530
  H        3.7490380     0.1823190    -0.8804680
  H        3.7489810     0.1821480     0.8806760
  H       -3.7489900    -0.1821670    -0.8806650
  H       -3.7490280    -0.1823020     0.8804800
  H       -3.1481700     1.2341700     0.0000290
units angstrom
no_reorient  #important for SAPT in psi4, default
symmetry c1  #important for SAPT in psi4, default
}

set PROPERTIES_ORIGIN ["COM"]
properties('MP2/aug-cc-pvtz', properties = ['dipole'])
--------------------------------------------------------------------------

    Molecular point group: c1
  Charge       = 0
  Multiplicity = 1
  Basis Set: AUG-CC-PVTZ
    Blend: AUG-CC-PVTZ
  Basis Set: (AUG-CC-PVTZ AUX)
    Blend: AUG-CC-PVTZ-JKFIT

    Orbital Energies [Eh]
    ---------------------

    Doubly Occupied:

       1A    -11.232463     2A    -11.231206     3A    -11.227467
       4A    -11.226449     5A    -11.221444     6A    -11.221157
       7A     -1.096544     8A     -1.045611     9A     -0.966679
      10A     -0.892546    11A     -0.762258    12A     -0.747446
      13A     -0.643696    14A     -0.610097    15A     -0.567233
      16A     -0.564180    17A     -0.556641    18A     -0.546258
      19A     -0.511418    20A     -0.500786    21A     -0.481913
      22A     -0.422453    23A     -0.298494

  @DF-RHF Final Energy:  -233.07925003277387

   => Energetics <=

    Nuclear Repulsion Energy =            207.9029574457497347
    One-Electron Energy =                -724.8155371384868886
    Two-Electron Energy =                 283.8333296599632831
    Total Energy =                       -233.0792500327738708
  Basis Set: (AUG-CC-PVTZ AUX)
    Blend: AUG-CC-PVTZ-RI
    Molecular point group: c1

    Geometry (in Angstrom), charge = 0, multiplicity = 1:

       Center              X                  Y                   Z               Mass
    ------------   -----------------  -----------------  -----------------  -----------------
         C            0.667779052799    -0.287720957108    -0.002466766365    12.000000000000
         C           -0.667778947201     0.287722042892    -0.002439766365    12.000000000000
         C            1.801930052799     0.438548042892    -0.002393766365    12.000000000000
         C           -1.801929947201    -0.438546957108    -0.002521766365    12.000000000000
         C            3.182441052799    -0.141010957108    -0.002401766365    12.000000000000
         C           -3.182440947201     0.141010042892    -0.002510766365    12.000000000000
         H            0.735623052799    -1.377340957108    -0.002544766365     1.007825032230
         H           -0.735623947201     1.377342042892    -0.002355766365     1.007825032230
         H            1.726354752799     1.526989642892     0.197687233635     1.007825032230
         H           -1.726357947201    -1.527002957108    -0.002608766365     1.007825032230
         H            3.148169052799    -1.234170957108    -0.002508766365     1.007825032230
         H            3.749038052799     0.182319042892    -0.882923766365     1.007825032230
         H            3.748981052799     0.182148042892     0.878220233635     1.007825032230
         H           -3.748989947201    -0.182166957108    -0.883120766365     1.007825032230
         H           -3.749027947201    -0.182301957108     0.878024233635     1.007825032230
         H           -3.148169947201     1.234170042892    -0.002426766365     1.007825032230

  Basis Set: AUG-CC-PVTZ
    Blend: AUG-CC-PVTZ
  Basis Set: (AUG-CC-PVTZ AUX)
    Blend: AUG-CC-PVTZ-JKFIT
	 Reference Energy          =    -233.0792500327738708 [Eh]
	 Singles Energy            =      -0.0000000000000000 [Eh]
	 Same-Spin Energy          =      -0.2456072797895815 [Eh]
	 Opposite-Spin Energy      =      -0.8822989173660083 [Eh]
	 Correlation Energy        =      -1.1279061971555899 [Eh]
	 Total Energy              =    -234.2071562299294669 [Eh]

	 ================> DF-SCS-MP2 Energies <==================
	-----------------------------------------------------------
	 SCS Same-Spin Scale       =       0.3333333333333333 [-]
	 SCS Opposite-Spin Scale   =       1.2000000000000000 [-]
	 SCS Same-Spin Energy      =      -0.0818690932631938 [Eh]
	 SCS Opposite-Spin Energy  =      -1.0587587008392099 [Eh]
	 SCS Correlation Energy    =      -1.1406277941024037 [Eh]
	 SCS Total Energy          =    -234.2198778268762851 [Eh]
	-----------------------------------------------------------

  Dipole Moment: [D]
     X:    -0.0203      Y:    -0.0264      Z:     0.1268     Total:     0.1311

*** Psi4 exiting successfully. Buy a developer a beer!
