                               Psi4 1.3.2 release

  ==> Input File <==

--------------------------------------------------------------------------
#psi4
#
memory 32 gb

molecule  {
0 1
  O       -0.4983720     2.1660820    -0.3008080
  O        1.7439460     0.8852250     1.1595980
  N        2.0846670    -0.6693810    -0.4855240
  C       -0.1775241    -0.0338305     0.0268653
  C       -1.0501490     0.9240530    -0.1297870
  C       -0.6950920    -1.4344860     0.2644570
  C        1.2926210     0.1057900     0.3196980
  C       -2.4223480     0.6871570    -0.2466200
  C       -2.0666220    -1.6719060     0.1573390
  C       -2.9283400    -0.6051620    -0.0964900
  C        3.5272930    -0.5029810    -0.4769650
  H       -0.0118380    -2.2529100     0.4809780
  H       -3.0973410     1.5164000    -0.4561860
  H       -2.4584240    -2.6782030     0.2778980
  H       -3.9991860    -0.7724420    -0.1829770
  H        1.6477640    -1.1074140    -1.2860730
  H        3.8478870     0.3529870    -1.0808760
  H        3.9959260    -1.4118430    -0.8588240
  H        3.8425270    -0.3337350     0.5522170
  H       -1.2204240     2.8028430    -0.4486720
units angstrom
no_reorient  #important for SAPT in psi4, default
symmetry c1  #important for SAPT in psi4, default
}

set PROPERTIES_ORIGIN ["COM"]
properties('MP2/aug-cc-pvtz', properties = ['dipole'])
--------------------------------------------------------------------------

    Molecular point group: c1
  Charge       = 0
  Multiplicity = 1
  Basis Set: AUG-CC-PVTZ
    Blend: AUG-CC-PVTZ
  Basis Set: (AUG-CC-PVTZ AUX)
    Blend: AUG-CC-PVTZ-JKFIT

    Orbital Energies [Eh]
    ---------------------

    Doubly Occupied:

       1A    -20.590652     2A    -20.512468     3A    -15.582839
       4A    -11.351123     5A    -11.305949     6A    -11.268447
       7A    -11.259114     8A    -11.255787     9A    -11.250084
      10A    -11.245487    11A    -11.243672    12A     -1.407586
      13A     -1.366049    14A     -1.224377    15A     -1.159477
      16A     -1.047677    17A     -1.019967    18A     -0.951142
      19A     -0.871294    20A     -0.839161    21A     -0.780667
      22A     -0.742425    23A     -0.721474    24A     -0.670009
      25A     -0.656100    26A     -0.636929    27A     -0.617962
      28A     -0.607846    29A     -0.596885    30A     -0.584982
      31A     -0.568206    32A     -0.544776    33A     -0.533046
      34A     -0.527539    35A     -0.511446    36A     -0.485683
      37A     -0.419828    38A     -0.387479    39A     -0.345843
      40A     -0.337610

  @DF-RHF Final Energy:  -512.53158889638610

   => Energetics <=

    Nuclear Repulsion Energy =            587.5632011470039515
    One-Electron Energy =               -1864.1314034659849312
    Two-Electron Energy =                 764.0366134225949963
    Total Energy =                       -512.5315888963860971
  Basis Set: (AUG-CC-PVTZ AUX)
    Blend: AUG-CC-PVTZ-RI
    Molecular point group: c1

    Geometry (in Angstrom), charge = 0, multiplicity = 1:

       Center              X                  Y                   Z               Mass
    ------------   -----------------  -----------------  -----------------  -----------------
         O           -0.481422044887     2.132050541756    -0.312282671341    15.994914619570
         O            1.760895955113     0.851193541756     1.148123328659    15.994914619570
         N            2.101616955113    -0.703412458244    -0.496998671341    14.003074004430
         C           -0.160574144887    -0.067861958244     0.015390628659    12.000000000000
         C           -1.033199044887     0.890021541756    -0.141261671341    12.000000000000
         C           -0.678142044887    -1.468517458244     0.252982328659    12.000000000000
         C            1.309570955113     0.071758541756     0.308223328659    12.000000000000
         C           -2.405398044887     0.653125541756    -0.258094671341    12.000000000000
         C           -2.049672044887    -1.705937458244     0.145864328659    12.000000000000
         C           -2.911390044887    -0.639193458244    -0.107964671341    12.000000000000
         C            3.544242955113    -0.537012458244    -0.488439671341    12.000000000000
         H            0.005111955113    -2.286941458244     0.469503328659     1.007825032230
         H           -3.080391044887     1.482368541756    -0.467660671341     1.007825032230
         H           -2.441474044887    -2.712234458244     0.266423328659     1.007825032230
         H           -3.982236044887    -0.806473458244    -0.194451671341     1.007825032230
         H            1.664713955113    -1.141445458244    -1.297547671341     1.007825032230
         H            3.864836955113     0.318955541756    -1.092350671341     1.007825032230
         H            4.012875955113    -1.445874458244    -0.870298671341     1.007825032230
         H            3.859476955113    -0.367766458244     0.540742328659     1.007825032230
         H           -1.203474044887     2.768811541756    -0.460146671341     1.007825032230

  Basis Set: AUG-CC-PVTZ
    Blend: AUG-CC-PVTZ
  Basis Set: (AUG-CC-PVTZ AUX)
    Blend: AUG-CC-PVTZ-JKFIT
	 Reference Energy          =    -512.5315888963860971 [Eh]
	 Singles Energy            =      -0.0000000000000000 [Eh]
	 Same-Spin Energy          =      -0.5368730855781099 [Eh]
	 Opposite-Spin Energy      =      -1.6470329381721669 [Eh]
	 Correlation Energy        =      -2.1839060237502768 [Eh]
	 Total Energy              =    -514.7154949201363934 [Eh]

	 ================> DF-SCS-MP2 Energies <==================
	-----------------------------------------------------------
	 SCS Same-Spin Scale       =       0.3333333333333333 [-]
	 SCS Opposite-Spin Scale   =       1.2000000000000000 [-]
	 SCS Same-Spin Energy      =      -0.1789576951927033 [Eh]
	 SCS Opposite-Spin Energy  =      -1.9764395258066001 [Eh]
	 SCS Correlation Energy    =      -2.1553972209993035 [Eh]
	 SCS Total Energy          =    -514.6869861173853451 [Eh]
	-----------------------------------------------------------

  Dipole Moment: [D]
     X:    -1.8427      Y:    -1.7037      Z:    -2.9434     Total:     3.8681

*** Psi4 exiting successfully. Buy a developer a beer!
