                               Psi4 1.3.2 release

  ==> Input File <==

--------------------------------------------------------------------------
#psi4
#
memory 32 gb

molecule  {
0 1
  O       -0.4983720     2.1660820    -0.3008080
  O        1.7439460     0.8852250     1.1595980
  N        2.0846670    -0.6693810    -0.4855240
  C       -0.1784588     0.0024073    -0.0075723
  C       -1.0501490     0.9240530    -0.1297870
  C       -0.6950920    -1.4344860     0.2644570
  C        1.2926210     0.1057900     0.3196980
  C       -2.4223480     0.6871570    -0.2466200
  C       -2.0666220    -1.6719060     0.1573390
  C       -2.9283400    -0.6051620    -0.0964900
  C        3.5272930    -0.5029810    -0.4769650
  H       -0.0118380    -2.2529100     0.4809780
  H       -3.0973410     1.5164000    -0.4561860
  H       -2.4584240    -2.6782030     0.2778980
  H       -3.9991860    -0.7724420    -0.1829770
  H        1.6477640    -1.1074140    -1.2860730
  H        3.8478870     0.3529870    -1.0808760
  H        3.9959260    -1.4118430    -0.8588240
  H        3.8425270    -0.3337350     0.5522170
  H       -1.2204240     2.8028430    -0.4486720
units angstrom
no_reorient  #important for SAPT in psi4, default
symmetry c1  #important for SAPT in psi4, default
}

set PROPERTIES_ORIGIN ["COM"]
properties('MP2/aug-cc-pvtz', properties = ['dipole'])
--------------------------------------------------------------------------

    Molecular point group: c1
  Charge       = 0
  Multiplicity = 1
  Basis Set: AUG-CC-PVTZ
    Blend: AUG-CC-PVTZ
  Basis Set: (AUG-CC-PVTZ AUX)
    Blend: AUG-CC-PVTZ-JKFIT

    Orbital Energies [Eh]
    ---------------------

    Doubly Occupied:

       1A    -20.588199     2A    -20.512625     3A    -15.582642
       4A    -11.352155     5A    -11.300774     6A    -11.271193
       7A    -11.259928     8A    -11.255854     9A    -11.251002
      10A    -11.244583    11A    -11.243913    12A     -1.407065
      13A     -1.365937    14A     -1.224202    15A     -1.159692
      16A     -1.050478    17A     -1.018745    18A     -0.951621
      19A     -0.873088    20A     -0.837191    21A     -0.779789
      22A     -0.742175    23A     -0.721288    24A     -0.668837
      25A     -0.658110    26A     -0.637149    27A     -0.617459
      28A     -0.606347    29A     -0.597566    30A     -0.584640
      31A     -0.565464    32A     -0.544773    33A     -0.532045
      34A     -0.529766    35A     -0.508432    36A     -0.484209
      37A     -0.418738    38A     -0.387152    39A     -0.348552
      40A     -0.337077

  @DF-RHF Final Energy:  -512.51586261505179

   => Energetics <=

    Nuclear Repulsion Energy =            587.6817196873515741
    One-Electron Energy =               -1864.3542541479532701
    Two-Electron Energy =                 764.1566718455497949
    Total Energy =                       -512.5158626150517875
  Basis Set: (AUG-CC-PVTZ AUX)
    Blend: AUG-CC-PVTZ-RI
    Molecular point group: c1

    Geometry (in Angstrom), charge = 0, multiplicity = 1:

       Center              X                  Y                   Z               Mass
    ------------   -----------------  -----------------  -----------------  -----------------
         O           -0.481347795232     2.129171923866    -0.309547055728    15.994914619570
         O            1.760970204768     0.848314923866     1.150858944272    15.994914619570
         N            2.101691204768    -0.706291076134    -0.494263055728    14.003074004430
         C           -0.161434595232    -0.034502776134    -0.016311355728    12.000000000000
         C           -1.033124795232     0.887142923866    -0.138526055728    12.000000000000
         C           -0.678067795232    -1.471396076134     0.255717944272    12.000000000000
         C            1.309645204768     0.068879923866     0.310958944272    12.000000000000
         C           -2.405323795232     0.650246923866    -0.255359055728    12.000000000000
         C           -2.049597795232    -1.708816076134     0.148599944272    12.000000000000
         C           -2.911315795232    -0.642072076134    -0.105229055728    12.000000000000
         C            3.544317204768    -0.539891076134    -0.485704055728    12.000000000000
         H            0.005186204768    -2.289820076134     0.472238944272     1.007825032230
         H           -3.080316795232     1.479489923866    -0.464925055728     1.007825032230
         H           -2.441399795232    -2.715113076134     0.269158944272     1.007825032230
         H           -3.982161795232    -0.809352076134    -0.191716055728     1.007825032230
         H            1.664788204768    -1.144324076134    -1.294812055728     1.007825032230
         H            3.864911204768     0.316076923866    -1.089615055728     1.007825032230
         H            4.012950204768    -1.448753076134    -0.867563055728     1.007825032230
         H            3.859551204768    -0.370645076134     0.543477944272     1.007825032230
         H           -1.203399795232     2.765932923866    -0.457411055728     1.007825032230

  Basis Set: AUG-CC-PVTZ
    Blend: AUG-CC-PVTZ
  Basis Set: (AUG-CC-PVTZ AUX)
    Blend: AUG-CC-PVTZ-JKFIT
	 Reference Energy          =    -512.5158626150517875 [Eh]
	 Singles Energy            =      -0.0000000000000000 [Eh]
	 Same-Spin Energy          =      -0.5367361501395803 [Eh]
	 Opposite-Spin Energy      =      -1.6477175314569374 [Eh]
	 Correlation Energy        =      -2.1844536815965179 [Eh]
	 Total Energy              =    -514.7003162966483387 [Eh]

	 ================> DF-SCS-MP2 Energies <==================
	-----------------------------------------------------------
	 SCS Same-Spin Scale       =       0.3333333333333333 [-]
	 SCS Opposite-Spin Scale   =       1.2000000000000000 [-]
	 SCS Same-Spin Energy      =      -0.1789120500465268 [Eh]
	 SCS Opposite-Spin Energy  =      -1.9772610377483248 [Eh]
	 SCS Correlation Energy    =      -2.1561730877948517 [Eh]
	 SCS Total Energy          =    -514.6720357028466424 [Eh]
	-----------------------------------------------------------

  Dipole Moment: [D]
     X:    -1.8807      Y:    -1.7500      Z:    -2.9290     Total:     3.8960

*** Psi4 exiting successfully. Buy a developer a beer!
