                               Psi4 1.3.2 release

  ==> Input File <==

--------------------------------------------------------------------------
#psi4
#
memory 32 gb

molecule  {
0 1
  O       -0.4983720     2.1660820    -0.3008080
  O        1.7439460     0.8852250     1.1595980
  N        2.0846670    -0.6693810    -0.4855240
  C       -0.1793935     0.0386451    -0.0420099
  C       -1.0501490     0.9240530    -0.1297870
  C       -0.6950920    -1.4344860     0.2644570
  C        1.2926210     0.1057900     0.3196980
  C       -2.4223480     0.6871570    -0.2466200
  C       -2.0666220    -1.6719060     0.1573390
  C       -2.9283400    -0.6051620    -0.0964900
  C        3.5272930    -0.5029810    -0.4769650
  H       -0.0118380    -2.2529100     0.4809780
  H       -3.0973410     1.5164000    -0.4561860
  H       -2.4584240    -2.6782030     0.2778980
  H       -3.9991860    -0.7724420    -0.1829770
  H        1.6477640    -1.1074140    -1.2860730
  H        3.8478870     0.3529870    -1.0808760
  H        3.9959260    -1.4118430    -0.8588240
  H        3.8425270    -0.3337350     0.5522170
  H       -1.2204240     2.8028430    -0.4486720
units angstrom
no_reorient  #important for SAPT in psi4, default
symmetry c1  #important for SAPT in psi4, default
}

set PROPERTIES_ORIGIN ["COM"]
properties('MP2/aug-cc-pvtz', properties = ['dipole'])
--------------------------------------------------------------------------

    Molecular point group: c1
  Charge       = 0
  Multiplicity = 1
  Basis Set: AUG-CC-PVTZ
    Blend: AUG-CC-PVTZ
  Basis Set: (AUG-CC-PVTZ AUX)
    Blend: AUG-CC-PVTZ-JKFIT

    Orbital Energies [Eh]
    ---------------------

    Doubly Occupied:

       1A    -20.585813     2A    -20.512990     3A    -15.582527
       4A    -11.353545     5A    -11.295630     6A    -11.273407
       7A    -11.260728     8A    -11.255985     9A    -11.251768
      10A    -11.245348    11A    -11.242386    12A     -1.406818
      13A     -1.365963    14A     -1.224104    15A     -1.160039
      16A     -1.053983    17A     -1.017015    18A     -0.952143
      19A     -0.874747    20A     -0.835050    21A     -0.778926
      22A     -0.741817    23A     -0.721296    24A     -0.668150
      25A     -0.659514    26A     -0.637429    27A     -0.617037
      28A     -0.605016    29A     -0.598407    30A     -0.584330
      31A     -0.562875    32A     -0.544845    33A     -0.533027
      34A     -0.529742    35A     -0.504486    36A     -0.482549
      37A     -0.417313    38A     -0.386865    39A     -0.353209
      40A     -0.335010

  @DF-RHF Final Energy:  -512.49572305291792

   => Energetics <=

    Nuclear Repulsion Energy =            587.7909761769509487
    One-Electron Energy =               -1864.5497373376360883
    Two-Electron Energy =                 764.2630381077671018
    Total Energy =                       -512.4957230529179242
  Basis Set: (AUG-CC-PVTZ AUX)
    Blend: AUG-CC-PVTZ-RI
    Molecular point group: c1

    Geometry (in Angstrom), charge = 0, multiplicity = 1:

       Center              X                  Y                   Z               Mass
    ------------   -----------------  -----------------  -----------------  -----------------
         O           -0.481273545577     2.126293305976    -0.306811440116    15.994914619570
         O            1.761044454423     0.845436305976     1.153594559884    15.994914619570
         N            2.101765454423    -0.709169694024    -0.491527440116    14.003074004430
         C           -0.162295045577    -0.001143594024    -0.048013340116    12.000000000000
         C           -1.033050545577     0.884264305976    -0.135790440116    12.000000000000
         C           -0.677993545577    -1.474274694024     0.258453559884    12.000000000000
         C            1.309719454423     0.066001305976     0.313694559884    12.000000000000
         C           -2.405249545577     0.647368305976    -0.252623440116    12.000000000000
         C           -2.049523545577    -1.711694694024     0.151335559884    12.000000000000
         C           -2.911241545577    -0.644950694024    -0.102493440116    12.000000000000
         C            3.544391454423    -0.542769694024    -0.482968440116    12.000000000000
         H            0.005260454423    -2.292698694024     0.474974559884     1.007825032230
         H           -3.080242545577     1.476611305976    -0.462189440116     1.007825032230
         H           -2.441325545577    -2.717991694024     0.271894559884     1.007825032230
         H           -3.982087545577    -0.812230694024    -0.188980440116     1.007825032230
         H            1.664862454423    -1.147202694024    -1.292076440116     1.007825032230
         H            3.864985454423     0.313198305976    -1.086879440116     1.007825032230
         H            4.013024454423    -1.451631694024    -0.864827440116     1.007825032230
         H            3.859625454423    -0.373523694024     0.546213559884     1.007825032230
         H           -1.203325545577     2.763054305976    -0.454675440116     1.007825032230

  Basis Set: AUG-CC-PVTZ
    Blend: AUG-CC-PVTZ
  Basis Set: (AUG-CC-PVTZ AUX)
    Blend: AUG-CC-PVTZ-JKFIT
	 Reference Energy          =    -512.4957230529179242 [Eh]
	 Singles Energy            =      -0.0000000000000000 [Eh]
	 Same-Spin Energy          =      -0.5366286886923608 [Eh]
	 Opposite-Spin Energy      =      -1.6486122176340026 [Eh]
	 Correlation Energy        =      -2.1852409063263636 [Eh]
	 Total Energy              =    -514.6809639592443091 [Eh]

	 ================> DF-SCS-MP2 Energies <==================
	-----------------------------------------------------------
	 SCS Same-Spin Scale       =       0.3333333333333333 [-]
	 SCS Opposite-Spin Scale   =       1.2000000000000000 [-]
	 SCS Same-Spin Energy      =      -0.1788762295641202 [Eh]
	 SCS Opposite-Spin Energy  =      -1.9783346611608030 [Eh]
	 SCS Correlation Energy    =      -2.1572108907249232 [Eh]
	 SCS Total Energy          =    -514.6529339436428927 [Eh]
	-----------------------------------------------------------

  Dipole Moment: [D]
     X:    -1.9131      Y:    -1.7958      Z:    -2.9129     Total:     3.9205

*** Psi4 exiting successfully. Buy a developer a beer!
