                               Psi4 1.3.2 release

  ==> Input File <==

--------------------------------------------------------------------------
#psi4
#
memory 32 gb

molecule  {
0 1
  O       -0.4983720     2.1660820    -0.3008080
  O        1.7439460     0.8852250     1.1595980
  N        2.0846670    -0.6693810    -0.4855240
  C       -0.1756547    -0.1063062     0.0957404
  C       -1.0501490     0.9240530    -0.1297870
  C       -0.6950920    -1.4344860     0.2644570
  C        1.2926210     0.1057900     0.3196980
  C       -2.4223480     0.6871570    -0.2466200
  C       -2.0666220    -1.6719060     0.1573390
  C       -2.9283400    -0.6051620    -0.0964900
  C        3.5272930    -0.5029810    -0.4769650
  H       -0.0118380    -2.2529100     0.4809780
  H       -3.0973410     1.5164000    -0.4561860
  H       -2.4584240    -2.6782030     0.2778980
  H       -3.9991860    -0.7724420    -0.1829770
  H        1.6477640    -1.1074140    -1.2860730
  H        3.8478870     0.3529870    -1.0808760
  H        3.9959260    -1.4118430    -0.8588240
  H        3.8425270    -0.3337350     0.5522170
  H       -1.2204240     2.8028430    -0.4486720
units angstrom
no_reorient  #important for SAPT in psi4, default
symmetry c1  #important for SAPT in psi4, default
}

set PROPERTIES_ORIGIN ["COM"]
properties('MP2/aug-cc-pvtz', properties = ['dipole'])
--------------------------------------------------------------------------

    Molecular point group: c1
  Charge       = 0
  Multiplicity = 1
  Basis Set: AUG-CC-PVTZ
    Blend: AUG-CC-PVTZ
  Basis Set: (AUG-CC-PVTZ AUX)
    Blend: AUG-CC-PVTZ-JKFIT

    Orbital Energies [Eh]
    ---------------------

    Doubly Occupied:

       1A    -20.595480     2A    -20.512730     3A    -15.583477
       4A    -11.350081     5A    -11.315879     6A    -11.261472
       7A    -11.257505     8A    -11.255850     9A    -11.248368
      10A    -11.247841    11A    -11.241549    12A     -1.409104
      13A     -1.366618    14A     -1.224949    15A     -1.159597
      16A     -1.045664    17A     -1.019549    18A     -0.950437
      19A     -0.867340    20A     -0.842666    21A     -0.782369
      22A     -0.742481    23A     -0.722626    24A     -0.673309
      25A     -0.650989    26A     -0.636480    27A     -0.618954
      28A     -0.611023    29A     -0.596001    30A     -0.585737
      31A     -0.573298    32A     -0.545003    33A     -0.535137
      34A     -0.523146    35A     -0.513385    36A     -0.488407
      37A     -0.421193    38A     -0.388310    39A     -0.350310
      40A     -0.330494

  @DF-RHF Final Energy:  -512.54971951731272

   => Energetics <=

    Nuclear Repulsion Energy =            587.3028917767984467
    One-Electron Energy =               -1863.6156026309711251
    Two-Electron Energy =                 763.7629913368598409
    Total Energy =                       -512.5497195173127238
  Basis Set: (AUG-CC-PVTZ AUX)
    Blend: AUG-CC-PVTZ-RI
    Molecular point group: c1

    Geometry (in Angstrom), charge = 0, multiplicity = 1:

       Center              X                  Y                   Z               Mass
    ------------   -----------------  -----------------  -----------------  -----------------
         O           -0.481570544196     2.137807785479    -0.317753894622    15.994914619570
         O            1.760747455804     0.856950785479     1.142652105378    15.994914619570
         N            2.101468455804    -0.697655214521    -0.502469894622    14.003074004430
         C           -0.158853244196    -0.134580414521     0.078794505378    12.000000000000
         C           -1.033347544196     0.895778785479    -0.146732894622    12.000000000000
         C           -0.678290544196    -1.462760214521     0.247511105378    12.000000000000
         C            1.309422455804     0.077515785479     0.302752105378    12.000000000000
         C           -2.405546544196     0.658882785479    -0.263565894622    12.000000000000
         C           -2.049820544196    -1.700180214521     0.140393105378    12.000000000000
         C           -2.911538544196    -0.633436214521    -0.113435894622    12.000000000000
         C            3.544094455804    -0.531255214521    -0.493910894622    12.000000000000
         H            0.004963455804    -2.281184214521     0.464032105378     1.007825032230
         H           -3.080539544196     1.488125785479    -0.473131894622     1.007825032230
         H           -2.441622544196    -2.706477214521     0.260952105378     1.007825032230
         H           -3.982384544196    -0.800716214521    -0.199922894622     1.007825032230
         H            1.664565455804    -1.135688214521    -1.303018894622     1.007825032230
         H            3.864688455804     0.324712785479    -1.097821894622     1.007825032230
         H            4.012727455804    -1.440117214521    -0.875769894622     1.007825032230
         H            3.859328455804    -0.362009214521     0.535271105378     1.007825032230
         H           -1.203622544196     2.774568785479    -0.465617894622     1.007825032230

  Basis Set: AUG-CC-PVTZ
    Blend: AUG-CC-PVTZ
  Basis Set: (AUG-CC-PVTZ AUX)
    Blend: AUG-CC-PVTZ-JKFIT
	 Reference Energy          =    -512.5497195173127238 [Eh]
	 Singles Energy            =      -0.0000000000000000 [Eh]
	 Same-Spin Energy          =      -0.5370609119295110 [Eh]
	 Opposite-Spin Energy      =      -1.6462224717261589 [Eh]
	 Correlation Energy        =      -2.1832833836556698 [Eh]
	 Total Energy              =    -514.7330029009683585 [Eh]

	 ================> DF-SCS-MP2 Energies <==================
	-----------------------------------------------------------
	 SCS Same-Spin Scale       =       0.3333333333333333 [-]
	 SCS Opposite-Spin Scale   =       1.2000000000000000 [-]
	 SCS Same-Spin Energy      =      -0.1790203039765036 [Eh]
	 SCS Opposite-Spin Energy  =      -1.9754669660713906 [Eh]
	 SCS Correlation Energy    =      -2.1544872700478943 [Eh]
	 SCS Total Energy          =    -514.7042067873605902 [Eh]
	-----------------------------------------------------------

  Dipole Moment: [D]
     X:    -1.7558      Y:    -1.6174      Z:    -2.9660     Total:     3.8074

*** Psi4 exiting successfully. Buy a developer a beer!
