                               Psi4 1.3.2 release

  ==> Input File <==

--------------------------------------------------------------------------
#psi4
#
memory 32 gb

molecule  {
0 1
  O       -0.4983720     2.1660820    -0.3008080
  O        1.7439460     0.8852250     1.1595980
  N        2.0846670    -0.6693810    -0.4855240
  C       -0.1765894    -0.0700684     0.0613029
  C       -1.0501490     0.9240530    -0.1297870
  C       -0.6950920    -1.4344860     0.2644570
  C        1.2926210     0.1057900     0.3196980
  C       -2.4223480     0.6871570    -0.2466200
  C       -2.0666220    -1.6719060     0.1573390
  C       -2.9283400    -0.6051620    -0.0964900
  C        3.5272930    -0.5029810    -0.4769650
  H       -0.0118380    -2.2529100     0.4809780
  H       -3.0973410     1.5164000    -0.4561860
  H       -2.4584240    -2.6782030     0.2778980
  H       -3.9991860    -0.7724420    -0.1829770
  H        1.6477640    -1.1074140    -1.2860730
  H        3.8478870     0.3529870    -1.0808760
  H        3.9959260    -1.4118430    -0.8588240
  H        3.8425270    -0.3337350     0.5522170
  H       -1.2204240     2.8028430    -0.4486720
units angstrom
no_reorient  #important for SAPT in psi4, default
symmetry c1  #important for SAPT in psi4, default
}

set PROPERTIES_ORIGIN ["COM"]
properties('MP2/aug-cc-pvtz', properties = ['dipole'])
--------------------------------------------------------------------------

    Molecular point group: c1
  Charge       = 0
  Multiplicity = 1
  Basis Set: AUG-CC-PVTZ
    Blend: AUG-CC-PVTZ
  Basis Set: (AUG-CC-PVTZ AUX)
    Blend: AUG-CC-PVTZ-JKFIT

    Orbital Energies [Eh]
    ---------------------

    Doubly Occupied:

       1A    -20.593101     2A    -20.512508     3A    -15.583118
       4A    -11.350437     5A    -11.311025     6A    -11.265194
       7A    -11.258301     8A    -11.255786     9A    -11.249026
      10A    -11.247003    11A    -11.242649    12A     -1.408293
      13A     -1.366282    14A     -1.224627    15A     -1.159431
      16A     -1.045972    17A     -1.020326    18A     -0.950739
      19A     -0.869376    20A     -0.840978    21A     -0.781534
      22A     -0.742534    23A     -0.721909    24A     -0.671540
      25A     -0.653660    26A     -0.636727    27A     -0.618489
      28A     -0.609431    29A     -0.596372    30A     -0.585349
      31A     -0.570886    32A     -0.544853    33A     -0.534184
      34A     -0.525033    35A     -0.513282    36A     -0.487061
      37A     -0.420638    38A     -0.387863    39A     -0.347067
      40A     -0.334748

  @DF-RHF Final Energy:  -512.54287879146545

   => Energetics <=

    Nuclear Repulsion Energy =            587.4366189624723802
    One-Electron Energy =               -1863.8843249924846077
    Two-Electron Energy =                 763.9048272385468863
    Total Energy =                       -512.5428787914654549
  Basis Set: (AUG-CC-PVTZ AUX)
    Blend: AUG-CC-PVTZ-RI
    Molecular point group: c1

    Geometry (in Angstrom), charge = 0, multiplicity = 1:

       Center              X                  Y                   Z               Mass
    ------------   -----------------  -----------------  -----------------  -----------------
         O           -0.481496294542     2.134929167589    -0.315018286953    15.994914619570
         O            1.760821705458     0.854072167589     1.145387713047    15.994914619570
         N            2.101542705458    -0.700533832411    -0.499734286953    14.003074004430
         C           -0.159713694542    -0.101221232411     0.047092613047    12.000000000000
         C           -1.033273294542     0.892900167589    -0.143997286953    12.000000000000
         C           -0.678216294542    -1.465638832411     0.250246713047    12.000000000000
         C            1.309496705458     0.074637167589     0.305487713047    12.000000000000
         C           -2.405472294542     0.656004167589    -0.260830286953    12.000000000000
         C           -2.049746294542    -1.703058832411     0.143128713047    12.000000000000
         C           -2.911464294542    -0.636314832411    -0.110700286953    12.000000000000
         C            3.544168705458    -0.534133832411    -0.491175286953    12.000000000000
         H            0.005037705458    -2.284062832411     0.466767713047     1.007825032230
         H           -3.080465294542     1.485247167589    -0.470396286953     1.007825032230
         H           -2.441548294542    -2.709355832411     0.263687713047     1.007825032230
         H           -3.982310294542    -0.803594832411    -0.197187286953     1.007825032230
         H            1.664639705458    -1.138566832411    -1.300283286953     1.007825032230
         H            3.864762705458     0.321834167589    -1.095086286953     1.007825032230
         H            4.012801705458    -1.442995832411    -0.873034286953     1.007825032230
         H            3.859402705458    -0.364887832411     0.538006713047     1.007825032230
         H           -1.203548294542     2.771690167589    -0.462882286953     1.007825032230

  Basis Set: AUG-CC-PVTZ
    Blend: AUG-CC-PVTZ
  Basis Set: (AUG-CC-PVTZ AUX)
    Blend: AUG-CC-PVTZ-JKFIT
	 Reference Energy          =    -512.5428787914654549 [Eh]
	 Singles Energy            =      -0.0000000000000000 [Eh]
	 Same-Spin Energy          =      -0.5369944225516148 [Eh]
	 Opposite-Spin Energy      =      -1.6465410318818758 [Eh]
	 Correlation Energy        =      -2.1835354544334908 [Eh]
	 Total Energy              =    -514.7264142458989227 [Eh]

	 ================> DF-SCS-MP2 Energies <==================
	-----------------------------------------------------------
	 SCS Same-Spin Scale       =       0.3333333333333333 [-]
	 SCS Opposite-Spin Scale   =       1.2000000000000000 [-]
	 SCS Same-Spin Energy      =      -0.1789981408505383 [Eh]
	 SCS Opposite-Spin Energy  =      -1.9758492382582509 [Eh]
	 SCS Correlation Energy    =      -2.1548473791087890 [Eh]
	 SCS Total Energy          =    -514.6977261705742421 [Eh]
	-----------------------------------------------------------

  Dipole Moment: [D]
     X:    -1.8007      Y:    -1.6589      Z:    -2.9558     Total:     3.8381

*** Psi4 exiting successfully. Buy a developer a beer!
