                               Psi4 1.4a3.dev225

  ==> Input File <==

--------------------------------------------------------------------------
#psi4
#
memory 32 gb

molecule  {
0 1
  O       -1.3621950    -1.7118670    -1.0487160
  O        1.3250660    -1.5098260    -0.8661080
  O       -3.0202870    -0.6972320     0.8011600
  O        1.4000820    -0.3698310     1.7931610
  O       -3.3935320     1.8007080    -0.1346550
  O        2.6070010     1.5395500    -0.9938350
  O        3.6924620     0.1319130     0.4259740
  C       -0.8211920    -0.9649900     0.0477000
  C        0.4956150    -0.4174700    -0.4760140
  C       -1.8427190     0.0633310     0.5156670
  C        1.2861160     0.3473610     0.5837090
  C       -2.1923660     1.1169960    -0.5276460
  C        2.7506788     0.6055199     0.0581413
  H       -0.6001840    -1.6333830     0.8895000
  H        0.3094840     0.2426950    -1.3366810
  H       -1.4776870     0.5490530     1.4357690
  H        0.7848540     1.2951930     0.8109900
  H       -2.4256530     0.6242850    -1.4728150
  H       -1.3693410     1.8242450    -0.6894300
  H       -2.2436880    -1.9988170    -0.7384990
  H        0.7382740    -2.1149450    -1.3600910
  H       -3.7555350    -0.0560060     0.7240450
  H        2.1352240    -0.9985780     1.6549180
  H       -3.1588320     2.4130520     0.5846580
  H        3.5236120     1.6268920    -1.3298730
units angstrom
no_reorient  #important for SAPT in psi4, default
symmetry c1  #important for SAPT in psi4, default
}

set PROPERTIES_ORIGIN ["COM"]
properties('MP2/aug-cc-pvtz', properties = ['dipole'])
--------------------------------------------------------------------------

    Molecular point group: c1
  Charge       = 0
  Multiplicity = 1
  Basis Set: AUG-CC-PVTZ
    Blend: AUG-CC-PVTZ
  Basis Set: (AUG-CC-PVTZ AUX)
    Blend: AUG-CC-PVTZ-JKFIT

    Orbital Energies [Eh]
    ---------------------

    Doubly Occupied:

       1A    -20.612953     2A    -20.590265     3A    -20.583204
       4A    -20.573650     5A    -20.572595     6A    -20.571239
       7A    -20.568589     8A    -11.392242     9A    -11.314678
      10A    -11.300316    11A    -11.299977    12A    -11.298311
      13A    -11.293579    14A     -1.508905    15A     -1.405800
      16A     -1.392532    17A     -1.390417    18A     -1.377711
      19A     -1.363717    20A     -1.348831    21A     -1.074931
      22A     -1.017075    23A     -0.952755    24A     -0.881054
      25A     -0.816363    26A     -0.797519    27A     -0.754627
      28A     -0.738108    29A     -0.730792    30A     -0.714303
      31A     -0.713363    32A     -0.682571    33A     -0.675735
      34A     -0.655389    35A     -0.643102    36A     -0.634328
      37A     -0.626990    38A     -0.615375    39A     -0.599354
      40A     -0.579828    41A     -0.556832    42A     -0.548386
      43A     -0.540502    44A     -0.532676    45A     -0.530159
      46A     -0.521165    47A     -0.501279    48A     -0.485877
      49A     -0.464396    50A     -0.455869    51A     -0.451151
      52A     -0.436260

  @DF-RHF Final Energy:  -758.51148155066642

   => Energetics <=

    Nuclear Repulsion Energy =            915.3957910168501257
    One-Electron Energy =               -2862.4392919653823810
    Two-Electron Energy =                1188.5320193978657244
    Total Energy =                       -758.5114815506665309
  Basis Set: (AUG-CC-PVTZ AUX)
    Blend: AUG-CC-PVTZ-RI
    Molecular point group: c1

    Geometry (in Angstrom), charge = 0, multiplicity = 1:

       Center              X                  Y                   Z               Mass
    ------------   -----------------  -----------------  -----------------  -----------------
         O           -1.405479713169    -1.700316010457    -1.054920870484    15.994914619570
         O            1.281781286831    -1.498275010457    -0.872312870484    15.994914619570
         O           -3.063571713169    -0.685681010457     0.794955129516    15.994914619570
         O            1.356797286831    -0.358280010457     1.786956129516    15.994914619570
         O           -3.436816713169     1.812258989543    -0.140859870484    15.994914619570
         O            2.563716286831     1.551100989543    -1.000039870484    15.994914619570
         O            3.649177286831     0.143463989543     0.419769129516    15.994914619570
         C           -0.864476713169    -0.953439010457     0.041495129516    12.000000000000
         C            0.452330286831    -0.405919010457    -0.482218870484    12.000000000000
         C           -1.886003713169     0.074881989543     0.509462129516    12.000000000000
         C            1.242831286831     0.358911989543     0.577504129516    12.000000000000
         C           -2.235650713169     1.128546989543    -0.533850870484    12.000000000000
         C            2.707394086831     0.617070889543     0.051936429516    12.000000000000
         H           -0.643468713169    -1.621832010457     0.883295129516     1.007825032230
         H            0.266199286831     0.254245989543    -1.342885870484     1.007825032230
         H           -1.520971713169     0.560603989543     1.429564129516     1.007825032230
         H            0.741569286831     1.306743989543     0.804785129516     1.007825032230
         H           -2.468937713169     0.635835989543    -1.479019870484     1.007825032230
         H           -1.412625713169     1.835795989543    -0.695634870484     1.007825032230
         H           -2.286972713169    -1.987266010457    -0.744703870484     1.007825032230
         H            0.694989286831    -2.103394010457    -1.366295870484     1.007825032230
         H           -3.798819713169    -0.044455010457     0.717840129516     1.007825032230
         H            2.091939286831    -0.987027010457     1.648713129516     1.007825032230
         H           -3.202116713169     2.424602989543     0.578453129516     1.007825032230
         H            3.480327286831     1.638442989543    -1.336077870484     1.007825032230

  Basis Set: AUG-CC-PVTZ
    Blend: AUG-CC-PVTZ
  Basis Set: (AUG-CC-PVTZ AUX)
    Blend: AUG-CC-PVTZ-JKFIT
	 Reference Energy          =    -758.5114815506664172 [Eh]
	 Singles Energy            =      -0.0000000000000000 [Eh]
	 Same-Spin Energy          =      -0.7324553739152719 [Eh]
	 Opposite-Spin Energy      =      -2.2278505360136918 [Eh]
	 Correlation Energy        =      -2.9603059099289637 [Eh]
	 Total Energy              =    -761.4717874605953511 [Eh]

	 ================> DF-SCS-MP2 Energies <==================
	-----------------------------------------------------------
	 SCS Same-Spin Scale       =       0.3333333333333333 [-]
	 SCS Opposite-Spin Scale   =       1.2000000000000000 [-]
	 SCS Same-Spin Energy      =      -0.2441517913050906 [Eh]
	 SCS Opposite-Spin Energy  =      -2.6734206432164300 [Eh]
	 SCS Correlation Energy    =      -2.9175724345215208 [Eh]
	 SCS Total Energy          =    -761.4290539851879203 [Eh]
	-----------------------------------------------------------

  Dipole Moment: [D]
     X:    -0.6827      Y:     2.3372      Z:    -0.4371     Total:     2.4738

*** Psi4 exiting successfully. Buy a developer a beer!
