                               Psi4 1.4a3.dev225

  ==> Input File <==

--------------------------------------------------------------------------
#psi4
#
memory 32 gb

molecule  {
0 1
  O       -1.3621950    -1.7118670    -1.0487160
  O        1.3250660    -1.5098260    -0.8661080
  O       -3.0202870    -0.6972320     0.8011600
  O        1.4000820    -0.3698310     1.7931610
  O       -3.3935320     1.8007080    -0.1346550
  O        2.6070010     1.5395500    -0.9938350
  O        3.6924620     0.1319130     0.4259740
  C       -0.8211920    -0.9649900     0.0477000
  C        0.4956150    -0.4174700    -0.4760140
  C       -1.8427190     0.0633310     0.5156670
  C        1.2861160     0.3473610     0.5837090
  C       -2.1923660     1.1169960    -0.5276460
  C        2.6663270     0.6479390     0.0251960
  H       -0.6001840    -1.6333830     0.8895000
  H        0.3094840     0.2426950    -1.3366810
  H       -1.4776870     0.5490530     1.4357690
  H        0.8763218     1.1222374     0.7695169
  H       -2.4256530     0.6242850    -1.4728150
  H       -1.3693410     1.8242450    -0.6894300
  H       -2.2436880    -1.9988170    -0.7384990
  H        0.7382740    -2.1149450    -1.3600910
  H       -3.7555350    -0.0560060     0.7240450
  H        2.1352240    -0.9985780     1.6549180
  H       -3.1588320     2.4130520     0.5846580
  H        3.5236120     1.6268920    -1.3298730
units angstrom
no_reorient  #important for SAPT in psi4, default
symmetry c1  #important for SAPT in psi4, default
}

set PROPERTIES_ORIGIN ["COM"]
properties('MP2/aug-cc-pvtz', properties = ['dipole'])
--------------------------------------------------------------------------

    Molecular point group: c1
  Charge       = 0
  Multiplicity = 1
  Basis Set: AUG-CC-PVTZ
    Blend: AUG-CC-PVTZ
  Basis Set: (AUG-CC-PVTZ AUX)
    Blend: AUG-CC-PVTZ-JKFIT

    Orbital Energies [Eh]
    ---------------------

    Doubly Occupied:

       1A    -20.632027     2A    -20.592443     3A    -20.575722
       4A    -20.573104     5A    -20.572541     6A    -20.569578
       7A    -20.564488     8A    -11.400844     9A    -11.303276
      10A    -11.302823    11A    -11.300994    12A    -11.295857
      13A    -11.294073    14A     -1.476546    15A     -1.407927
      16A     -1.396122    17A     -1.383469    18A     -1.369402
      19A     -1.362278    20A     -1.350426    21A     -1.087051
      22A     -1.037228    23A     -0.964436    24A     -0.889055
      25A     -0.843446    26A     -0.811505    27A     -0.761340
      28A     -0.736480    29A     -0.727865    30A     -0.715798
      31A     -0.712815    32A     -0.683384    33A     -0.676858
      34A     -0.650622    35A     -0.649574    36A     -0.639031
      37A     -0.628907    38A     -0.610071    39A     -0.603317
      40A     -0.584968    41A     -0.555055    42A     -0.550389
      43A     -0.541062    44A     -0.534459    45A     -0.532337
      46A     -0.503779    47A     -0.495723    48A     -0.486317
      49A     -0.466414    50A     -0.459878    51A     -0.455532
      52A     -0.442752

  @DF-RHF Final Energy:  -758.49087405108446

   => Energetics <=

    Nuclear Repulsion Energy =            916.8252581912217920
    One-Electron Energy =               -2865.1094877056339101
    Two-Electron Energy =                1189.7933554633275435
    Total Energy =                       -758.4908740510845746
  Basis Set: (AUG-CC-PVTZ AUX)
    Blend: AUG-CC-PVTZ-RI
    Molecular point group: c1

    Geometry (in Angstrom), charge = 0, multiplicity = 1:

       Center              X                  Y                   Z               Mass
    ------------   -----------------  -----------------  -----------------  -----------------
         O           -1.400787037324    -1.702023258823    -1.052691221333    15.994914619570
         O            1.286473962676    -1.499982258823    -0.870083221333    15.994914619570
         O           -3.058879037324    -0.687388258823     0.797184778667    15.994914619570
         O            1.361489962676    -0.359987258823     1.789185778667    15.994914619570
         O           -3.432124037324     1.810551741177    -0.138630221333    15.994914619570
         O            2.568408962676     1.549393741177    -0.997810221333    15.994914619570
         O            3.653869962676     0.141756741177     0.421998778667    15.994914619570
         C           -0.859784037324    -0.955146258823     0.043724778667    12.000000000000
         C            0.457022962676    -0.407626258823    -0.479989221333    12.000000000000
         C           -1.881311037324     0.073174741177     0.511691778667    12.000000000000
         C            1.247523962676     0.357204741177     0.579733778667    12.000000000000
         C           -2.230958037324     1.126839741177    -0.531621221333    12.000000000000
         C            2.627734962676     0.657782741177     0.021220778667    12.000000000000
         H           -0.638776037324    -1.623539258823     0.885524778667     1.007825032230
         H            0.270891962676     0.252538741177    -1.340656221333     1.007825032230
         H           -1.516279037324     0.558896741177     1.431793778667     1.007825032230
         H            0.837729762676     1.132081141177     0.765541678667     1.007825032230
         H           -2.464245037324     0.634128741177    -1.476790221333     1.007825032230
         H           -1.407933037324     1.834088741177    -0.693405221333     1.007825032230
         H           -2.282280037324    -1.988973258823    -0.742474221333     1.007825032230
         H            0.699681962676    -2.105101258823    -1.364066221333     1.007825032230
         H           -3.794127037324    -0.046162258823     0.720069778667     1.007825032230
         H            2.096631962676    -0.988734258823     1.650942778667     1.007825032230
         H           -3.197424037324     2.422895741177     0.580682778667     1.007825032230
         H            3.485019962676     1.636735741177    -1.333848221333     1.007825032230

  Basis Set: AUG-CC-PVTZ
    Blend: AUG-CC-PVTZ
  Basis Set: (AUG-CC-PVTZ AUX)
    Blend: AUG-CC-PVTZ-JKFIT
	 Reference Energy          =    -758.4908740510844609 [Eh]
	 Singles Energy            =      -0.0000000000000000 [Eh]
	 Same-Spin Energy          =      -0.7340302538062127 [Eh]
	 Opposite-Spin Energy      =      -2.2301355952177606 [Eh]
	 Correlation Energy        =      -2.9641658490239733 [Eh]
	 Total Energy              =    -761.4550399001084315 [Eh]

	 ================> DF-SCS-MP2 Energies <==================
	-----------------------------------------------------------
	 SCS Same-Spin Scale       =       0.3333333333333333 [-]
	 SCS Opposite-Spin Scale   =       1.2000000000000000 [-]
	 SCS Same-Spin Energy      =      -0.2446767512687376 [Eh]
	 SCS Opposite-Spin Energy  =      -2.6761627142613125 [Eh]
	 SCS Correlation Energy    =      -2.9208394655300500 [Eh]
	 SCS Total Energy          =    -761.4117135166145545 [Eh]
	-----------------------------------------------------------

  Dipole Moment: [D]
     X:    -1.2433      Y:     2.7113      Z:    -0.8329     Total:     3.0969

*** Psi4 exiting successfully. Buy a developer a beer!
