                               Psi4 1.4a3.dev225

  ==> Input File <==

--------------------------------------------------------------------------
#psi4
#
memory 32 gb

molecule  {
0 1
  O       -1.3621950    -1.7118670    -1.0487160
  O        1.3250660    -1.5098260    -0.8661080
  O       -3.0202870    -0.6972320     0.8011600
  O        1.4000820    -0.3698310     1.7931610
  O       -3.3935320     1.8007080    -0.1346550
  O        2.6070010     1.5395500    -0.9938350
  O        3.6924620     0.1319130     0.4259740
  C       -0.8211920    -0.9649900     0.0477000
  C        0.4956150    -0.4174700    -0.4760140
  C       -1.8427190     0.0633310     0.5156670
  C        1.2861160     0.3473610     0.5837090
  C       -2.1923660     1.1169960    -0.5276460
  C        2.6663270     0.6479390     0.0251960
  H       -0.6001840    -1.6333830     0.8895000
  H        0.3094840     0.2426950    -1.3366810
  H       -1.4843082     0.5402426     1.4190796
  H        0.7848540     1.2951930     0.8109900
  H       -2.4256530     0.6242850    -1.4728150
  H       -1.3693410     1.8242450    -0.6894300
  H       -2.2436880    -1.9988170    -0.7384990
  H        0.7382740    -2.1149450    -1.3600910
  H       -3.7555350    -0.0560060     0.7240450
  H        2.1352240    -0.9985780     1.6549180
  H       -3.1588320     2.4130520     0.5846580
  H        3.5236120     1.6268920    -1.3298730
units angstrom
no_reorient  #important for SAPT in psi4, default
symmetry c1  #important for SAPT in psi4, default
}

set PROPERTIES_ORIGIN ["COM"]
properties('MP2/aug-cc-pvtz', properties = ['dipole'])
--------------------------------------------------------------------------

    Molecular point group: c1
  Charge       = 0
  Multiplicity = 1
  Basis Set: AUG-CC-PVTZ
    Blend: AUG-CC-PVTZ
  Basis Set: (AUG-CC-PVTZ AUX)
    Blend: AUG-CC-PVTZ-JKFIT

    Orbital Energies [Eh]
    ---------------------

    Doubly Occupied:

       1A    -20.631492     2A    -20.592031     3A    -20.574877
       4A    -20.574875     5A    -20.572910     6A    -20.570394
       7A    -20.565153     8A    -11.401963     9A    -11.318361
      10A    -11.304326    11A    -11.300419    12A    -11.299564
      13A    -11.295628    14A     -1.476342    15A     -1.407689
      16A     -1.396373    17A     -1.383675    18A     -1.369513
      19A     -1.362544    20A     -1.350461    21A     -1.080705
      22A     -1.028607    23A     -0.961279    24A     -0.888849
      25A     -0.831150    26A     -0.803223    27A     -0.758325
      28A     -0.736612    29A     -0.725994    30A     -0.715186
      31A     -0.712993    32A     -0.683807    33A     -0.676302
      34A     -0.649999    35A     -0.640619    36A     -0.636899
      37A     -0.629033    38A     -0.607200    39A     -0.601842
      40A     -0.581044    41A     -0.553367    42A     -0.549940
      43A     -0.539621    44A     -0.534260    45A     -0.531093
      46A     -0.503584    47A     -0.495773    48A     -0.484586
      49A     -0.466965    50A     -0.460003    51A     -0.455749
      52A     -0.442849

  @DF-RHF Final Energy:  -758.52372060052858

   => Energetics <=

    Nuclear Repulsion Energy =            915.6940446954356503
    One-Electron Energy =               -2863.0034338861005381
    Two-Electron Energy =                1188.7856685901363107
    Total Energy =                       -758.5237206005285771
  Basis Set: (AUG-CC-PVTZ AUX)
    Blend: AUG-CC-PVTZ-RI
    Molecular point group: c1

    Geometry (in Angstrom), charge = 0, multiplicity = 1:

       Center              X                  Y                   Z               Mass
    ------------   -----------------  -----------------  -----------------  -----------------
         O           -1.400282817160    -1.702867036613    -1.052818620341    15.994914619570
         O            1.286978182840    -1.500826036613    -0.870210620341    15.994914619570
         O           -3.058374817160    -0.688232036613     0.797057379659    15.994914619570
         O            1.361994182840    -0.360831036613     1.789058379659    15.994914619570
         O           -3.431619817160     1.809707963387    -0.138757620341    15.994914619570
         O            2.568913182840     1.548549963387    -0.997937620341    15.994914619570
         O            3.654374182840     0.140912963387     0.421871379659    15.994914619570
         C           -0.859279817160    -0.955990036613     0.043597379659    12.000000000000
         C            0.457527182840    -0.408470036613    -0.480116620341    12.000000000000
         C           -1.880806817160     0.072330963387     0.511564379659    12.000000000000
         C            1.248028182840     0.356360963387     0.579606379659    12.000000000000
         C           -2.230453817160     1.125995963387    -0.531748620341    12.000000000000
         C            2.628239182840     0.656938963387     0.021093379659    12.000000000000
         H           -0.638271817160    -1.624383036613     0.885397379659     1.007825032230
         H            0.271396182840     0.251694963387    -1.340783620341     1.007825032230
         H           -1.522396017160     0.549242563387     1.414976979659     1.007825032230
         H            0.746766182840     1.304192963387     0.806887379659     1.007825032230
         H           -2.463740817160     0.633284963387    -1.476917620341     1.007825032230
         H           -1.407428817160     1.833244963387    -0.693532620341     1.007825032230
         H           -2.281775817160    -1.989817036613    -0.742601620341     1.007825032230
         H            0.700186182840    -2.105945036613    -1.364193620341     1.007825032230
         H           -3.793622817160    -0.047006036613     0.719942379659     1.007825032230
         H            2.097136182840    -0.989578036613     1.650815379659     1.007825032230
         H           -3.196919817160     2.422051963387     0.580555379659     1.007825032230
         H            3.485524182840     1.635891963387    -1.333975620341     1.007825032230

  Basis Set: AUG-CC-PVTZ
    Blend: AUG-CC-PVTZ
  Basis Set: (AUG-CC-PVTZ AUX)
    Blend: AUG-CC-PVTZ-JKFIT
	 Reference Energy          =    -758.5237206005285771 [Eh]
	 Singles Energy            =      -0.0000000000000000 [Eh]
	 Same-Spin Energy          =      -0.7342743200359529 [Eh]
	 Opposite-Spin Energy      =      -2.2308352459533811 [Eh]
	 Correlation Energy        =      -2.9651095659893341 [Eh]
	 Total Energy              =    -761.4888301665179142 [Eh]

	 ================> DF-SCS-MP2 Energies <==================
	-----------------------------------------------------------
	 SCS Same-Spin Scale       =       0.3333333333333333 [-]
	 SCS Opposite-Spin Scale   =       1.2000000000000000 [-]
	 SCS Same-Spin Energy      =      -0.2447581066786510 [Eh]
	 SCS Opposite-Spin Energy  =      -2.6770022951440571 [Eh]
	 SCS Correlation Energy    =      -2.9217604018227079 [Eh]
	 SCS Total Energy          =    -761.4454810023512437 [Eh]
	-----------------------------------------------------------

  Dipole Moment: [D]
     X:    -1.2037      Y:     2.6849      Z:    -0.7947     Total:     3.0478

*** Psi4 exiting successfully. Buy a developer a beer!
