                               Psi4 1.4a3.dev225

  ==> Input File <==

--------------------------------------------------------------------------
#psi4
#
memory 32 gb

molecule  {
0 1
  O       -1.3621950    -1.7118670    -1.0487160
  O        1.3250660    -1.5098260    -0.8661080
  O       -3.0202870    -0.6972320     0.8011600
  O        1.4000820    -0.3698310     1.7931610
  O       -3.3935320     1.8007080    -0.1346550
  O        2.6070010     1.5395500    -0.9938350
  O        3.6924620     0.1319130     0.4259740
  C       -0.8211920    -0.9649900     0.0477000
  C        0.4956150    -0.4174700    -0.4760140
  C       -1.8427190     0.0633310     0.5156670
  C        1.2861160     0.3473610     0.5837090
  C       -2.0251784     1.0218316    -0.5823455
  C        2.6663270     0.6479390     0.0251960
  H       -0.6001840    -1.6333830     0.8895000
  H        0.3094840     0.2426950    -1.3366810
  H       -1.4776870     0.5490530     1.4357690
  H        0.7848540     1.2951930     0.8109900
  H       -2.4256530     0.6242850    -1.4728150
  H       -1.3693410     1.8242450    -0.6894300
  H       -2.2436880    -1.9988170    -0.7384990
  H        0.7382740    -2.1149450    -1.3600910
  H       -3.7555350    -0.0560060     0.7240450
  H        2.1352240    -0.9985780     1.6549180
  H       -3.1588320     2.4130520     0.5846580
  H        3.5236120     1.6268920    -1.3298730
units angstrom
no_reorient  #important for SAPT in psi4, default
symmetry c1  #important for SAPT in psi4, default
}

set PROPERTIES_ORIGIN ["COM"]
properties('MP2/aug-cc-pvtz', properties = ['dipole'])
--------------------------------------------------------------------------

    Molecular point group: c1
  Charge       = 0
  Multiplicity = 1
  Basis Set: AUG-CC-PVTZ
    Blend: AUG-CC-PVTZ
  Basis Set: (AUG-CC-PVTZ AUX)
    Blend: AUG-CC-PVTZ-JKFIT

    Orbital Energies [Eh]
    ---------------------

    Doubly Occupied:

       1A    -20.633967     2A    -20.579776     3A    -20.577662
       4A    -20.577299     5A    -20.574060     6A    -20.567673
       7A    -20.567635     8A    -11.404586     9A    -11.321844
      10A    -11.308799    11A    -11.308597    12A    -11.307342
      13A    -11.298284    14A     -1.478845    15A     -1.408447
      16A     -1.394448    17A     -1.379204    18A     -1.367143
      19A     -1.356589    20A     -1.317743    21A     -1.094043
      22A     -1.041146    23A     -0.968489    24A     -0.893742
      25A     -0.834098    26A     -0.805759    27A     -0.759542
      28A     -0.739710    29A     -0.728519    30A     -0.719625
      31A     -0.708114    32A     -0.682698    33A     -0.671072
      34A     -0.653041    35A     -0.641915    36A     -0.638812
      37A     -0.622056    38A     -0.610031    39A     -0.589769
      40A     -0.582506    41A     -0.556255    42A     -0.550300
      43A     -0.541367    44A     -0.537110    45A     -0.519533
      46A     -0.498341    47A     -0.496675    48A     -0.486795
      49A     -0.478504    50A     -0.462903    51A     -0.457626
      52A     -0.447114

  @DF-RHF Final Energy:  -758.49150114987276

   => Energetics <=

    Nuclear Repulsion Energy =            916.5133189497535113
    One-Electron Energy =               -2864.5153350255154692
    Two-Electron Energy =                1189.5105149258890833
    Total Energy =                       -758.4915011498728745
  Basis Set: (AUG-CC-PVTZ AUX)
    Blend: AUG-CC-PVTZ-RI
    Molecular point group: c1

    Geometry (in Angstrom), charge = 0, multiplicity = 1:

       Center              X                  Y                   Z               Mass
    ------------   -----------------  -----------------  -----------------  -----------------
         O           -1.410549784603    -1.697087666688    -1.049556458035    15.994914619570
         O            1.276711215397    -1.495046666688    -0.866948458035    15.994914619570
         O           -3.068641784603    -0.682452666688     0.800319541965    15.994914619570
         O            1.351727215397    -0.355051666688     1.792320541965    15.994914619570
         O           -3.441886784603     1.815487333312    -0.135495458035    15.994914619570
         O            2.558646215397     1.554329333312    -0.994675458035    15.994914619570
         O            3.644107215397     0.146692333312     0.425133541965    15.994914619570
         C           -0.869546784603    -0.950210666688     0.046859541965    12.000000000000
         C            0.447260215397    -0.402690666688    -0.476854458035    12.000000000000
         C           -1.891073784603     0.078110333312     0.514826541965    12.000000000000
         C            1.237761215397     0.362140333312     0.582868541965    12.000000000000
         C           -2.073533184603     1.036610933312    -0.583185958035    12.000000000000
         C            2.617972215397     0.662718333312     0.024355541965    12.000000000000
         H           -0.648538784603    -1.618603666688     0.888659541965     1.007825032230
         H            0.261129215397     0.257474333312    -1.337521458035     1.007825032230
         H           -1.526041784603     0.563832333312     1.434928541965     1.007825032230
         H            0.736499215397     1.309972333312     0.810149541965     1.007825032230
         H           -2.474007784603     0.639064333312    -1.473655458035     1.007825032230
         H           -1.417695784603     1.839024333312    -0.690270458035     1.007825032230
         H           -2.292042784603    -1.984037666688    -0.739339458035     1.007825032230
         H            0.689919215397    -2.100165666688    -1.360931458035     1.007825032230
         H           -3.803889784603    -0.041226666688     0.723204541965     1.007825032230
         H            2.086869215397    -0.983798666688     1.654077541965     1.007825032230
         H           -3.207186784603     2.427831333312     0.583817541965     1.007825032230
         H            3.475257215397     1.641671333312    -1.330713458035     1.007825032230

  Basis Set: AUG-CC-PVTZ
    Blend: AUG-CC-PVTZ
  Basis Set: (AUG-CC-PVTZ AUX)
    Blend: AUG-CC-PVTZ-JKFIT
	 Reference Energy          =    -758.4915011498727608 [Eh]
	 Singles Energy            =      -0.0000000000000000 [Eh]
	 Same-Spin Energy          =      -0.7363039639949411 [Eh]
	 Opposite-Spin Energy      =      -2.2364858965009846 [Eh]
	 Correlation Energy        =      -2.9727898604959258 [Eh]
	 Total Energy              =    -761.4642910103686972 [Eh]

	 ================> DF-SCS-MP2 Energies <==================
	-----------------------------------------------------------
	 SCS Same-Spin Scale       =       0.3333333333333333 [-]
	 SCS Opposite-Spin Scale   =       1.2000000000000000 [-]
	 SCS Same-Spin Energy      =      -0.2454346546649804 [Eh]
	 SCS Opposite-Spin Energy  =      -2.6837830758011814 [Eh]
	 SCS Correlation Energy    =      -2.9292177304661617 [Eh]
	 SCS Total Energy          =    -761.4207188803388817 [Eh]
	-----------------------------------------------------------

  Dipole Moment: [D]
     X:    -0.6688      Y:     2.2720      Z:    -0.9254     Total:     2.5428

*** Psi4 exiting successfully. Buy a developer a beer!
