                               Psi4 1.4a3.dev225

  ==> Input File <==

--------------------------------------------------------------------------
#psi4
#
memory 32 gb

molecule  {
0 1
  O       -1.3621950    -1.7118670    -1.0487160
  O        1.3250660    -1.5098260    -0.8661080
  O       -3.0202870    -0.6972320     0.8011600
  O        1.4000820    -0.3698310     1.7931610
  O       -3.3935320     1.8007080    -0.1346550
  O        2.6070010     1.5395500    -0.9938350
  O        3.6924620     0.1319130     0.4259740
  C       -0.8211920    -0.9649900     0.0477000
  C        0.4956150    -0.4174700    -0.4760140
  C       -1.6780937     0.1696585     0.4757548
  C        1.2861160     0.3473610     0.5837090
  C       -2.1923660     1.1169960    -0.5276460
  C        2.6663270     0.6479390     0.0251960
  H       -0.6001840    -1.6333830     0.8895000
  H        0.3094840     0.2426950    -1.3366810
  H       -1.4776870     0.5490530     1.4357690
  H        0.7848540     1.2951930     0.8109900
  H       -2.4256530     0.6242850    -1.4728150
  H       -1.3693410     1.8242450    -0.6894300
  H       -2.2436880    -1.9988170    -0.7384990
  H        0.7382740    -2.1149450    -1.3600910
  H       -3.7555350    -0.0560060     0.7240450
  H        2.1352240    -0.9985780     1.6549180
  H       -3.1588320     2.4130520     0.5846580
  H        3.5236120     1.6268920    -1.3298730
units angstrom
no_reorient  #important for SAPT in psi4, default
symmetry c1  #important for SAPT in psi4, default
}

set PROPERTIES_ORIGIN ["COM"]
properties('MP2/aug-cc-pvtz', properties = ['dipole'])
--------------------------------------------------------------------------

    Molecular point group: c1
  Charge       = 0
  Multiplicity = 1
  Basis Set: AUG-CC-PVTZ
    Blend: AUG-CC-PVTZ
  Basis Set: (AUG-CC-PVTZ AUX)
    Blend: AUG-CC-PVTZ-JKFIT

    Orbital Energies [Eh]
    ---------------------

    Doubly Occupied:

       1A    -20.633773     2A    -20.596101     3A    -20.578300
       4A    -20.576993     5A    -20.571195     6A    -20.567613
       7A    -20.551595     8A    -11.404701     9A    -11.322115
      10A    -11.309587    11A    -11.306645    12A    -11.305776
      13A    -11.302636    14A     -1.478721    15A     -1.403983
      16A     -1.393876    17A     -1.386252    18A     -1.369038
      19A     -1.359313    20A     -1.305984    21A     -1.099057
      22A     -1.039792    23A     -0.972553    24A     -0.889551
      25A     -0.835515    26A     -0.806820    27A     -0.759808
      28A     -0.740277    29A     -0.726271    30A     -0.714839
      31A     -0.713372    32A     -0.685726    33A     -0.664383
      34A     -0.651002    35A     -0.642100    36A     -0.634785
      37A     -0.623139    38A     -0.608056    39A     -0.603220
      40A     -0.583242    41A     -0.560676    42A     -0.545077
      43A     -0.541855    44A     -0.528267    45A     -0.513384
      46A     -0.498304    47A     -0.490032    48A     -0.485224
      49A     -0.472705    50A     -0.468245    51A     -0.459116
      52A     -0.445978

  @DF-RHF Final Energy:  -758.48931160089387

   => Energetics <=

    Nuclear Repulsion Energy =            915.9122243939210648
    One-Electron Energy =               -2863.3499365336592746
    Two-Electron Energy =                1188.9484005388444530
    Total Energy =                       -758.4893116008938705
  Basis Set: (AUG-CC-PVTZ AUX)
    Blend: AUG-CC-PVTZ-RI
    Molecular point group: c1

    Geometry (in Angstrom), charge = 0, multiplicity = 1:

       Center              X                  Y                   Z               Mass
    ------------   -----------------  -----------------  -----------------  -----------------
         O           -1.410392955744    -1.709420236982    -1.050461533706    15.994914619570
         O            1.276868044256    -1.507379236982    -0.867853533706    15.994914619570
         O           -3.068484955744    -0.694785236982     0.799414466294    15.994914619570
         O            1.351884044256    -0.367384236982     1.791415466294    15.994914619570
         O           -3.441729955744     1.803154763018    -0.136400533706    15.994914619570
         O            2.558803044256     1.541996763018    -0.995580533706    15.994914619570
         O            3.644264044256     0.134359763018     0.424228466294    15.994914619570
         C           -0.869389955744    -0.962543236982     0.045954466294    12.000000000000
         C            0.447417044256    -0.415023236982    -0.477759533706    12.000000000000
         C           -1.726291655744     0.172105263018     0.474009266294    12.000000000000
         C            1.237918044256     0.349807763018     0.581963466294    12.000000000000
         C           -2.240563955744     1.119442763018    -0.529391533706    12.000000000000
         C            2.618129044256     0.650385763018     0.023450466294    12.000000000000
         H           -0.648381955744    -1.630936236982     0.887754466294     1.007825032230
         H            0.261286044256     0.245141763018    -1.338426533706     1.007825032230
         H           -1.525884955744     0.551499763018     1.434023466294     1.007825032230
         H            0.736656044256     1.297639763018     0.809244466294     1.007825032230
         H           -2.473850955744     0.626731763018    -1.474560533706     1.007825032230
         H           -1.417538955744     1.826691763018    -0.691175533706     1.007825032230
         H           -2.291885955744    -1.996370236982    -0.740244533706     1.007825032230
         H            0.690076044256    -2.112498236982    -1.361836533706     1.007825032230
         H           -3.803732955744    -0.053559236982     0.722299466294     1.007825032230
         H            2.087026044256    -0.996131236982     1.653172466294     1.007825032230
         H           -3.207029955744     2.415498763018     0.582912466294     1.007825032230
         H            3.475414044256     1.629338763018    -1.331618533706     1.007825032230

  Basis Set: AUG-CC-PVTZ
    Blend: AUG-CC-PVTZ
  Basis Set: (AUG-CC-PVTZ AUX)
    Blend: AUG-CC-PVTZ-JKFIT
	 Reference Energy          =    -758.4893116008938705 [Eh]
	 Singles Energy            =      -0.0000000000000000 [Eh]
	 Same-Spin Energy          =      -0.7367084435015315 [Eh]
	 Opposite-Spin Energy      =      -2.2372948124144467 [Eh]
	 Correlation Energy        =      -2.9740032559159784 [Eh]
	 Total Energy              =    -761.4633148568098022 [Eh]

	 ================> DF-SCS-MP2 Energies <==================
	-----------------------------------------------------------
	 SCS Same-Spin Scale       =       0.3333333333333333 [-]
	 SCS Opposite-Spin Scale   =       1.2000000000000000 [-]
	 SCS Same-Spin Energy      =      -0.2455694811671772 [Eh]
	 SCS Opposite-Spin Energy  =      -2.6847537748973358 [Eh]
	 SCS Correlation Energy    =      -2.9303232560645132 [Eh]
	 SCS Total Energy          =    -761.4196348569583961 [Eh]
	-----------------------------------------------------------

  Dipole Moment: [D]
     X:    -0.7218      Y:     2.8956      Z:    -0.9126     Total:     3.1206

*** Psi4 exiting successfully. Buy a developer a beer!
