                               Psi4 1.4a3.dev225

  ==> Input File <==

--------------------------------------------------------------------------
#psi4
#
memory 32 gb

molecule  {
0 1
  O       -1.3621950    -1.7118670    -1.0487160
  O        1.3250660    -1.5098260    -0.8661080
  O       -3.0202870    -0.6972320     0.8011600
  O        1.4000820    -0.3698310     1.7931610
  O       -3.3935320     1.8007080    -0.1346550
  O        2.6070010     1.5395500    -0.9938350
  O        3.6924620     0.1319130     0.4259740
  C       -0.8211920    -0.9649900     0.0477000
  C        0.4956150    -0.4174700    -0.4760140
  C       -1.8427190     0.0633310     0.5156670
  C        1.2861160     0.3473610     0.5837090
  C       -2.1923660     1.1169960    -0.5276460
  C        2.6663270     0.6479390     0.0251960
  H       -0.6001840    -1.6333830     0.8895000
  H        0.3094840     0.2426950    -1.3366810
  H       -1.4776870     0.5490530     1.4357690
  H        0.7848540     1.2951930     0.8109900
  H       -2.4256530     0.6242850    -1.4728150
  H       -1.3693410     1.8242450    -0.6894300
  H       -2.2436880    -1.9988170    -0.7384990
  H        0.7382740    -2.1149450    -1.3600910
  H       -3.7555350    -0.0560060     0.7240450
  H        2.1352240    -0.9985780     1.6549180
  H       -3.1588320     2.4130520     0.5846580
  H        3.3365803     1.6090701    -1.2613054
units angstrom
no_reorient  #important for SAPT in psi4, default
symmetry c1  #important for SAPT in psi4, default
}

set PROPERTIES_ORIGIN ["COM"]
properties('MP2/aug-cc-pvtz', properties = ['dipole'])
--------------------------------------------------------------------------

    Molecular point group: c1
  Charge       = 0
  Multiplicity = 1
  Basis Set: AUG-CC-PVTZ
    Blend: AUG-CC-PVTZ
  Basis Set: (AUG-CC-PVTZ AUX)
    Blend: AUG-CC-PVTZ-JKFIT

    Orbital Energies [Eh]
    ---------------------

    Doubly Occupied:

       1A    -20.615092     2A    -20.592678     3A    -20.576103
       4A    -20.575974     5A    -20.573924     6A    -20.571641
       7A    -20.569411     8A    -11.406082     9A    -11.319557
      10A    -11.305667    11A    -11.303030    12A    -11.301175
      13A    -11.296829    14A     -1.521123    15A     -1.410353
      16A     -1.403621    17A     -1.389368    18A     -1.375102
      19A     -1.365596    20A     -1.351568    21A     -1.083432
      22A     -1.035184    23A     -0.968485    24A     -0.900313
      25A     -0.855731    26A     -0.805180    27A     -0.763117
      28A     -0.744068    29A     -0.735067    30A     -0.717617
      31A     -0.716004    32A     -0.684320    33A     -0.678132
      34A     -0.655728    35A     -0.647683    36A     -0.639849
      37A     -0.630052    38A     -0.612061    39A     -0.603219
      40A     -0.583560    41A     -0.555833    42A     -0.550893
      43A     -0.542374    44A     -0.535077    45A     -0.532609
      46A     -0.504230    47A     -0.501588    48A     -0.487208
      49A     -0.467398    50A     -0.462031    51A     -0.456691
      52A     -0.444163

  @DF-RHF Final Energy:  -758.47985479614010

   => Energetics <=

    Nuclear Repulsion Energy =            917.1889595779756519
    One-Electron Energy =               -2865.4920520071523242
    Two-Electron Energy =                1189.8232376330363422
    Total Energy =                       -758.4798547961402164
  Basis Set: (AUG-CC-PVTZ AUX)
    Blend: AUG-CC-PVTZ-RI
    Molecular point group: c1

    Geometry (in Angstrom), charge = 0, multiplicity = 1:

       Center              X                  Y                   Z               Mass
    ------------   -----------------  -----------------  -----------------  -----------------
         O           -1.399355428646    -1.702820713580    -1.053256878438    15.994914619570
         O            1.287905571354    -1.500779713580    -0.870648878438    15.994914619570
         O           -3.057447428646    -0.688185713580     0.796619121562    15.994914619570
         O            1.362921571354    -0.360784713580     1.788620121562    15.994914619570
         O           -3.430692428646     1.809754286420    -0.139195878438    15.994914619570
         O            2.569840571354     1.548596286420    -0.998375878438    15.994914619570
         O            3.655301571354     0.140959286420     0.421433121562    15.994914619570
         C           -0.858352428646    -0.955943713580     0.043159121562    12.000000000000
         C            0.458454571354    -0.408423713580    -0.480554878438    12.000000000000
         C           -1.879879428646     0.072377286420     0.511126121562    12.000000000000
         C            1.248955571354     0.356407286420     0.579168121562    12.000000000000
         C           -2.229526428646     1.126042286420    -0.532186878438    12.000000000000
         C            2.629166571354     0.656985286420     0.020655121562    12.000000000000
         H           -0.637344428646    -1.624336713580     0.884959121562     1.007825032230
         H            0.272323571354     0.251741286420    -1.341221878438     1.007825032230
         H           -1.514847428646     0.558099286420     1.431228121562     1.007825032230
         H            0.747693571354     1.304239286420     0.806449121562     1.007825032230
         H           -2.462813428646     0.633331286420    -1.477355878438     1.007825032230
         H           -1.406501428646     1.833291286420    -0.693970878438     1.007825032230
         H           -2.280848428646    -1.989770713580    -0.743039878438     1.007825032230
         H            0.701113571354    -2.105898713580    -1.364631878438     1.007825032230
         H           -3.792695428646    -0.046959713580     0.719504121562     1.007825032230
         H            2.098063571354    -0.989531713580     1.650377121562     1.007825032230
         H           -3.195992428646     2.422098286420     0.580117121562     1.007825032230
         H            3.299419871354     1.618116386420    -1.265846278438     1.007825032230

  Basis Set: AUG-CC-PVTZ
    Blend: AUG-CC-PVTZ
  Basis Set: (AUG-CC-PVTZ AUX)
    Blend: AUG-CC-PVTZ-JKFIT
	 Reference Energy          =    -758.4798547961401027 [Eh]
	 Singles Energy            =      -0.0000000000000000 [Eh]
	 Same-Spin Energy          =      -0.7318662147232617 [Eh]
	 Opposite-Spin Energy      =      -2.2258012898734698 [Eh]
	 Correlation Energy        =      -2.9576675045967313 [Eh]
	 Total Energy              =    -761.4375223007368731 [Eh]

	 ================> DF-SCS-MP2 Energies <==================
	-----------------------------------------------------------
	 SCS Same-Spin Scale       =       0.3333333333333333 [-]
	 SCS Opposite-Spin Scale   =       1.2000000000000000 [-]
	 SCS Same-Spin Energy      =      -0.2439554049077539 [Eh]
	 SCS Opposite-Spin Energy  =      -2.6709615478481639 [Eh]
	 SCS Correlation Energy    =      -2.9149169527559176 [Eh]
	 SCS Total Energy          =    -761.3947717488960052 [Eh]
	-----------------------------------------------------------

  Dipole Moment: [D]
     X:    -1.4372      Y:     2.5879      Z:    -0.6554     Total:     3.0319

*** Psi4 exiting successfully. Buy a developer a beer!
