                               Psi4 1.4a3.dev225

  ==> Input File <==

--------------------------------------------------------------------------
#psi4
#
memory 32 gb

molecule  {
0 1
  O       -1.3621950    -1.7118670    -1.0487160
  O        1.3427970    -1.4936917    -0.8727929
  O       -3.0202870    -0.6972320     0.8011600
  O        1.4000820    -0.3698310     1.7931610
  O       -3.3935320     1.8007080    -0.1346550
  O        2.6070010     1.5395500    -0.9938350
  O        3.6924620     0.1319130     0.4259740
  C       -0.8211920    -0.9649900     0.0477000
  C        0.4956150    -0.4174700    -0.4760140
  C       -1.8427190     0.0633310     0.5156670
  C        1.2861160     0.3473610     0.5837090
  C       -2.1923660     1.1169960    -0.5276460
  C        2.6663270     0.6479390     0.0251960
  H       -0.6001840    -1.6333830     0.8895000
  H        0.3094840     0.2426950    -1.3366810
  H       -1.4776870     0.5490530     1.4357690
  H        0.7848540     1.2951930     0.8109900
  H       -2.4256530     0.6242850    -1.4728150
  H       -1.3693410     1.8242450    -0.6894300
  H       -2.2436880    -1.9988170    -0.7384990
  H        0.7382740    -2.1149450    -1.3600910
  H       -3.7555350    -0.0560060     0.7240450
  H        2.1352240    -0.9985780     1.6549180
  H       -3.1588320     2.4130520     0.5846580
  H        3.5236120     1.6268920    -1.3298730
units angstrom
no_reorient  #important for SAPT in psi4, default
symmetry c1  #important for SAPT in psi4, default
}

set PROPERTIES_ORIGIN ["COM"]
properties('MP2/aug-cc-pvtz', properties = ['dipole'])
--------------------------------------------------------------------------

    Molecular point group: c1
  Charge       = 0
  Multiplicity = 1
  Basis Set: AUG-CC-PVTZ
    Blend: AUG-CC-PVTZ
  Basis Set: (AUG-CC-PVTZ AUX)
    Blend: AUG-CC-PVTZ-JKFIT

    Orbital Energies [Eh]
    ---------------------

    Doubly Occupied:

       1A    -20.630991     2A    -20.592191     3A    -20.575655
       4A    -20.574576     5A    -20.573728     6A    -20.572395
       7A    -20.564591     8A    -11.401475     9A    -11.317629
      10A    -11.303973    11A    -11.302727    12A    -11.300599
      13A    -11.296527    14A     -1.475845    15A     -1.407729
      16A     -1.395830    17A     -1.383437    18A     -1.368947
      19A     -1.361993    20A     -1.350334    21A     -1.079948
      22A     -1.027850    23A     -0.961419    24A     -0.887820
      25A     -0.830513    26A     -0.801888    27A     -0.757527
      28A     -0.736310    29A     -0.725141    30A     -0.715427
      31A     -0.712337    32A     -0.683293    33A     -0.675187
      34A     -0.648844    35A     -0.640380    36A     -0.636684
      37A     -0.628452    38A     -0.606824    39A     -0.602048
      40A     -0.580029    41A     -0.553699    42A     -0.550425
      43A     -0.539345    44A     -0.534563    45A     -0.531334
      46A     -0.503508    47A     -0.495211    48A     -0.484343
      49A     -0.466354    50A     -0.460485    51A     -0.455046
      52A     -0.443036

  @DF-RHF Final Energy:  -758.52190197761684

   => Energetics <=

    Nuclear Repulsion Energy =            915.5390459079021639
    One-Electron Energy =               -2862.7090170728038174
    Two-Electron Energy =                1188.6480691872848183
    Total Energy =                       -758.5219019776168352
  Basis Set: (AUG-CC-PVTZ AUX)
    Blend: AUG-CC-PVTZ-RI
    Molecular point group: c1

    Geometry (in Angstrom), charge = 0, multiplicity = 1:

       Center              X                  Y                   Z               Mass
    ------------   -----------------  -----------------  -----------------  -----------------
         O           -1.401763391245    -1.704228601459    -1.052359040673    15.994914619570
         O            1.303228608755    -1.486053301459    -0.876435940673    15.994914619570
         O           -3.059855391245    -0.689593601459     0.797516959327    15.994914619570
         O            1.360513608755    -0.362192601459     1.789517959327    15.994914619570
         O           -3.433100391245     1.808346398541    -0.138298040673    15.994914619570
         O            2.567432608755     1.547188398541    -0.997478040673    15.994914619570
         O            3.652893608755     0.139551398541     0.422330959327    15.994914619570
         C           -0.860760391245    -0.957351601459     0.044056959327    12.000000000000
         C            0.456046608755    -0.409831601459    -0.479657040673    12.000000000000
         C           -1.882287391245     0.070969398541     0.512023959327    12.000000000000
         C            1.246547608755     0.354999398541     0.580065959327    12.000000000000
         C           -2.231934391245     1.124634398541    -0.531289040673    12.000000000000
         C            2.626758608755     0.655577398541     0.021552959327    12.000000000000
         H           -0.639752391245    -1.625744601459     0.885856959327     1.007825032230
         H            0.269915608755     0.250333398541    -1.340324040673     1.007825032230
         H           -1.517255391245     0.556691398541     1.432125959327     1.007825032230
         H            0.745285608755     1.302831398541     0.807346959327     1.007825032230
         H           -2.465221391245     0.631923398541    -1.476458040673     1.007825032230
         H           -1.408909391245     1.831883398541    -0.693073040673     1.007825032230
         H           -2.283256391245    -1.991178601459    -0.742142040673     1.007825032230
         H            0.698705608755    -2.107306601459    -1.363734040673     1.007825032230
         H           -3.795103391245    -0.048367601459     0.720401959327     1.007825032230
         H            2.095655608755    -0.990939601459     1.651274959327     1.007825032230
         H           -3.198400391245     2.420690398541     0.581014959327     1.007825032230
         H            3.484043608755     1.634530398541    -1.333516040673     1.007825032230

  Basis Set: AUG-CC-PVTZ
    Blend: AUG-CC-PVTZ
  Basis Set: (AUG-CC-PVTZ AUX)
    Blend: AUG-CC-PVTZ-JKFIT
	 Reference Energy          =    -758.5219019776168352 [Eh]
	 Singles Energy            =      -0.0000000000000000 [Eh]
	 Same-Spin Energy          =      -0.7346160153942831 [Eh]
	 Opposite-Spin Energy      =      -2.2317020906348093 [Eh]
	 Correlation Energy        =      -2.9663181060290924 [Eh]
	 Total Energy              =    -761.4882200836459560 [Eh]

	 ================> DF-SCS-MP2 Energies <==================
	-----------------------------------------------------------
	 SCS Same-Spin Scale       =       0.3333333333333333 [-]
	 SCS Opposite-Spin Scale   =       1.2000000000000000 [-]
	 SCS Same-Spin Energy      =      -0.2448720051314277 [Eh]
	 SCS Opposite-Spin Energy  =      -2.6780425087617710 [Eh]
	 SCS Correlation Energy    =      -2.9229145138931987 [Eh]
	 SCS Total Energy          =    -761.4448164915099824 [Eh]
	-----------------------------------------------------------

  Dipole Moment: [D]
     X:    -1.2585      Y:     2.6385      Z:    -0.7897     Total:     3.0281

*** Psi4 exiting successfully. Buy a developer a beer!
