                               Psi4 1.4a3.dev225

  ==> Input File <==

--------------------------------------------------------------------------
#psi4
#
memory 32 gb

molecule  {
0 1
  O       -1.3621950    -1.7118670    -1.0487160
  O        1.3250660    -1.5098260    -0.8661080
  O       -3.0202870    -0.6972320     0.8011600
  O        1.4000820    -0.3698310     1.7931610
  O       -3.3935320     1.8007080    -0.1346550
  O        2.6070010     1.5395500    -0.9938350
  O        3.6811430     0.1208057     0.4400909
  C       -0.8211920    -0.9649900     0.0477000
  C        0.4956150    -0.4174700    -0.4760140
  C       -1.8427190     0.0633310     0.5156670
  C        1.2861160     0.3473610     0.5837090
  C       -2.1923660     1.1169960    -0.5276460
  C        2.6663270     0.6479390     0.0251960
  H       -0.6001840    -1.6333830     0.8895000
  H        0.3094840     0.2426950    -1.3366810
  H       -1.4776870     0.5490530     1.4357690
  H        0.7848540     1.2951930     0.8109900
  H       -2.4256530     0.6242850    -1.4728150
  H       -1.3693410     1.8242450    -0.6894300
  H       -2.2436880    -1.9988170    -0.7384990
  H        0.7382740    -2.1149450    -1.3600910
  H       -3.7555350    -0.0560060     0.7240450
  H        2.1352240    -0.9985780     1.6549180
  H       -3.1588320     2.4130520     0.5846580
  H        3.5236120     1.6268920    -1.3298730
units angstrom
no_reorient  #important for SAPT in psi4, default
symmetry c1  #important for SAPT in psi4, default
}

set PROPERTIES_ORIGIN ["COM"]
properties('MP2/aug-cc-pvtz', properties = ['dipole'])
--------------------------------------------------------------------------

    Molecular point group: c1
  Charge       = 0
  Multiplicity = 1
  Basis Set: AUG-CC-PVTZ
    Blend: AUG-CC-PVTZ
  Basis Set: (AUG-CC-PVTZ AUX)
    Blend: AUG-CC-PVTZ-JKFIT

    Orbital Energies [Eh]
    ---------------------

    Doubly Occupied:

       1A    -20.633175     2A    -20.591878     3A    -20.575054
       4A    -20.573835     5A    -20.572815     6A    -20.570088
       7A    -20.565499     8A    -11.402127     9A    -11.317158
      10A    -11.303891    11A    -11.301954    12A    -11.300231
      13A    -11.295473    14A     -1.476505    15A     -1.407543
      16A     -1.396253    17A     -1.383916    18A     -1.369819
      19A     -1.362372    20A     -1.350307    21A     -1.079955
      22A     -1.027704    23A     -0.960991    24A     -0.888028
      25A     -0.830792    26A     -0.802282    27A     -0.757757
      28A     -0.736703    29A     -0.725899    30A     -0.715075
      31A     -0.712779    32A     -0.682878    33A     -0.676006
      34A     -0.650174    35A     -0.640343    36A     -0.636588
      37A     -0.628400    38A     -0.607069    39A     -0.601659
      40A     -0.580739    41A     -0.552946    42A     -0.549889
      43A     -0.538915    44A     -0.534009    45A     -0.530860
      46A     -0.503051    47A     -0.496541    48A     -0.484237
      49A     -0.466150    50A     -0.459726    51A     -0.455071
      52A     -0.442521

  @DF-RHF Final Energy:  -758.52327439203304

   => Energetics <=

    Nuclear Repulsion Energy =            915.7746983971364898
    One-Electron Energy =               -2863.1846855815392701
    Two-Electron Energy =                1188.8867127923697353
    Total Energy =                       -758.5232743920330449
  Basis Set: (AUG-CC-PVTZ AUX)
    Blend: AUG-CC-PVTZ-RI
    Molecular point group: c1

    Geometry (in Angstrom), charge = 0, multiplicity = 1:

       Center              X                  Y                   Z               Mass
    ------------   -----------------  -----------------  -----------------  -----------------
         O           -1.399393421377    -1.702006165275    -1.054056102263    15.994914619570
         O            1.287867578623    -1.499965165275    -0.871448102263    15.994914619570
         O           -3.057485421377    -0.687371165275     0.795819897737    15.994914619570
         O            1.362883578623    -0.359970165275     1.787820897737    15.994914619570
         O           -3.430730421377     1.810568834725    -0.139995102263    15.994914619570
         O            2.569802578623     1.549410834725    -0.999175102263    15.994914619570
         O            3.643944578623     0.130666534725     0.434750797737    15.994914619570
         C           -0.858390421377    -0.955129165275     0.042359897737    12.000000000000
         C            0.458416578623    -0.407609165275    -0.481354102263    12.000000000000
         C           -1.879917421377     0.073191834725     0.510326897737    12.000000000000
         C            1.248917578623     0.357221834725     0.578368897737    12.000000000000
         C           -2.229564421377     1.126856834725    -0.532986102263    12.000000000000
         C            2.629128578623     0.657799834725     0.019855897737    12.000000000000
         H           -0.637382421377    -1.623522165275     0.884159897737     1.007825032230
         H            0.272285578623     0.252555834725    -1.342021102263     1.007825032230
         H           -1.514885421377     0.558913834725     1.430428897737     1.007825032230
         H            0.747655578623     1.305053834725     0.805649897737     1.007825032230
         H           -2.462851421377     0.634145834725    -1.478155102263     1.007825032230
         H           -1.406539421377     1.834105834725    -0.694770102263     1.007825032230
         H           -2.280886421377    -1.988956165275    -0.743839102263     1.007825032230
         H            0.701075578623    -2.105084165275    -1.365431102263     1.007825032230
         H           -3.792733421377    -0.046145165275     0.718704897737     1.007825032230
         H            2.098025578623    -0.988717165275     1.649577897737     1.007825032230
         H           -3.196030421377     2.422912834725     0.579317897737     1.007825032230
         H            3.486413578623     1.636752834725    -1.335213102263     1.007825032230

  Basis Set: AUG-CC-PVTZ
    Blend: AUG-CC-PVTZ
  Basis Set: (AUG-CC-PVTZ AUX)
    Blend: AUG-CC-PVTZ-JKFIT
	 Reference Energy          =    -758.5232743920330449 [Eh]
	 Singles Energy            =      -0.0000000000000000 [Eh]
	 Same-Spin Energy          =      -0.7343995569899511 [Eh]
	 Opposite-Spin Energy      =      -2.2311347434839832 [Eh]
	 Correlation Energy        =      -2.9655343004739345 [Eh]
	 Total Energy              =    -761.4888086925069501 [Eh]

	 ================> DF-SCS-MP2 Energies <==================
	-----------------------------------------------------------
	 SCS Same-Spin Scale       =       0.3333333333333333 [-]
	 SCS Opposite-Spin Scale   =       1.2000000000000000 [-]
	 SCS Same-Spin Energy      =      -0.2447998523299837 [Eh]
	 SCS Opposite-Spin Energy  =      -2.6773616921807797 [Eh]
	 SCS Correlation Energy    =      -2.9221615445107632 [Eh]
	 SCS Total Energy          =    -761.4454359365438449 [Eh]
	-----------------------------------------------------------

  Dipole Moment: [D]
     X:    -1.1625      Y:     2.7078      Z:    -0.8383     Total:     3.0637

*** Psi4 exiting successfully. Buy a developer a beer!
