                               Psi4 1.4a3.dev225

  ==> Input File <==

--------------------------------------------------------------------------
#psi4
#
memory 32 gb

molecule  {
0 1
  O       -1.3621950    -1.7118670    -1.0487160
  O        1.4274762    -1.4082042    -0.9043647
  O       -3.0202870    -0.6972320     0.8011600
  O        1.4000820    -0.3698310     1.7931610
  O       -3.3935320     1.8007080    -0.1346550
  O        2.6070010     1.5395500    -0.9938350
  O        3.6924620     0.1319130     0.4259740
  C       -0.8211920    -0.9649900     0.0477000
  C        0.4956150    -0.4174700    -0.4760140
  C       -1.8427190     0.0633310     0.5156670
  C        1.2861160     0.3473610     0.5837090
  C       -2.1923660     1.1169960    -0.5276460
  C        2.6663270     0.6479390     0.0251960
  H       -0.6001840    -1.6333830     0.8895000
  H        0.3094840     0.2426950    -1.3366810
  H       -1.4776870     0.5490530     1.4357690
  H        0.7848540     1.2951930     0.8109900
  H       -2.4256530     0.6242850    -1.4728150
  H       -1.3693410     1.8242450    -0.6894300
  H       -2.2436880    -1.9988170    -0.7384990
  H        0.7382740    -2.1149450    -1.3600910
  H       -3.7555350    -0.0560060     0.7240450
  H        2.1352240    -0.9985780     1.6549180
  H       -3.1588320     2.4130520     0.5846580
  H        3.5236120     1.6268920    -1.3298730
units angstrom
no_reorient  #important for SAPT in psi4, default
symmetry c1  #important for SAPT in psi4, default
}

set PROPERTIES_ORIGIN ["COM"]
properties('MP2/aug-cc-pvtz', properties = ['dipole'])
--------------------------------------------------------------------------

    Molecular point group: c1
  Charge       = 0
  Multiplicity = 1
  Basis Set: AUG-CC-PVTZ
    Blend: AUG-CC-PVTZ
  Basis Set: (AUG-CC-PVTZ AUX)
    Blend: AUG-CC-PVTZ-JKFIT

    Orbital Energies [Eh]
    ---------------------

    Doubly Occupied:

       1A    -20.628698     2A    -20.592839     3A    -20.581436
       4A    -20.577396     5A    -20.576751     6A    -20.573622
       7A    -20.562026     8A    -11.399392     9A    -11.314577
      10A    -11.305055    11A    -11.302475    12A    -11.301323
      13A    -11.299940    14A     -1.473652    15A     -1.408239
      16A     -1.393671    17A     -1.383171    18A     -1.366017
      19A     -1.360433    20A     -1.346960    21A     -1.078190
      22A     -1.025878    23A     -0.962233    24A     -0.886336
      25A     -0.829767    26A     -0.798120    27A     -0.755449
      28A     -0.735185    29A     -0.722891    30A     -0.716148
      31A     -0.711501    32A     -0.684650    33A     -0.670760
      34A     -0.645829    35A     -0.639791    36A     -0.635335
      37A     -0.624054    38A     -0.605168    39A     -0.602812
      40A     -0.574500    41A     -0.555847    42A     -0.551862
      43A     -0.537623    44A     -0.534930    45A     -0.532466
      46A     -0.504619    47A     -0.492545    48A     -0.483137
      49A     -0.466365    50A     -0.462502    51A     -0.451797
      52A     -0.443395

  @DF-RHF Final Energy:  -758.50351166267478

   => Energetics <=

    Nuclear Repulsion Energy =            915.4740676193963509
    One-Electron Energy =               -2862.6164416110441380
    Two-Electron Energy =                1188.6388623289728912
    Total Energy =                       -758.5035116626747822
  Basis Set: (AUG-CC-PVTZ AUX)
    Blend: AUG-CC-PVTZ-RI
    Molecular point group: c1

    Geometry (in Angstrom), charge = 0, multiplicity = 1:

       Center              X                  Y                   Z               Mass
    ------------   -----------------  -----------------  -----------------  -----------------
         O           -1.408671726955    -1.711202880255    -1.049783336209    15.994914619570
         O            1.380999473045    -1.407540080255    -0.905432036209    15.994914619570
         O           -3.066763726955    -0.696567880255     0.800092663791    15.994914619570
         O            1.353605273045    -0.369166880255     1.792093663791    15.994914619570
         O           -3.440008726955     1.801372119745    -0.135722336209    15.994914619570
         O            2.560524273045     1.540214119745    -0.994902336209    15.994914619570
         O            3.645985273045     0.132577119745     0.424906663791    15.994914619570
         C           -0.867668726955    -0.964325880255     0.046632663791    12.000000000000
         C            0.449138273045    -0.416805880255    -0.477081336209    12.000000000000
         C           -1.889195726955     0.063995119745     0.514599663791    12.000000000000
         C            1.239639273045     0.348025119745     0.582641663791    12.000000000000
         C           -2.238842726955     1.117660119745    -0.528713336209    12.000000000000
         C            2.619850273045     0.648603119745     0.024128663791    12.000000000000
         H           -0.646660726955    -1.632718880255     0.888432663791     1.007825032230
         H            0.263007273045     0.243359119745    -1.337748336209     1.007825032230
         H           -1.524163726955     0.549717119745     1.434701663791     1.007825032230
         H            0.738377273045     1.295857119745     0.809922663791     1.007825032230
         H           -2.472129726955     0.624949119745    -1.473882336209     1.007825032230
         H           -1.415817726955     1.824909119745    -0.690497336209     1.007825032230
         H           -2.290164726955    -1.998152880255    -0.739566336209     1.007825032230
         H            0.691797273045    -2.114280880255    -1.361158336209     1.007825032230
         H           -3.802011726955    -0.055341880255     0.722977663791     1.007825032230
         H            2.088747273045    -0.997913880255     1.653850663791     1.007825032230
         H           -3.205308726955     2.413716119745     0.583590663791     1.007825032230
         H            3.477135273045     1.627556119745    -1.330940336209     1.007825032230

  Basis Set: AUG-CC-PVTZ
    Blend: AUG-CC-PVTZ
  Basis Set: (AUG-CC-PVTZ AUX)
    Blend: AUG-CC-PVTZ-JKFIT
	 Reference Energy          =    -758.5035116626747822 [Eh]
	 Singles Energy            =      -0.0000000000000000 [Eh]
	 Same-Spin Energy          =      -0.7363485883910036 [Eh]
	 Opposite-Spin Energy      =      -2.2358269585962143 [Eh]
	 Correlation Energy        =      -2.9721755469872178 [Eh]
	 Total Energy              =    -761.4756872096620555 [Eh]

	 ================> DF-SCS-MP2 Energies <==================
	-----------------------------------------------------------
	 SCS Same-Spin Scale       =       0.3333333333333333 [-]
	 SCS Opposite-Spin Scale   =       1.2000000000000000 [-]
	 SCS Same-Spin Energy      =      -0.2454495294636679 [Eh]
	 SCS Opposite-Spin Energy  =      -2.6829923503154571 [Eh]
	 SCS Correlation Energy    =      -2.9284418797791250 [Eh]
	 SCS Total Energy          =    -761.4319535424539254 [Eh]
	-----------------------------------------------------------

  Dipole Moment: [D]
     X:    -1.4678      Y:     2.4555      Z:    -0.7271     Total:     2.9517

*** Psi4 exiting successfully. Buy a developer a beer!
