                               Psi4 1.4a3.dev225

  ==> Input File <==

--------------------------------------------------------------------------
#psi4
#
memory 32 gb

molecule  {
0 1
  O       -1.3621950    -1.7118670    -1.0487160
  O        1.3250660    -1.5098260    -0.8661080
  O       -3.0202870    -0.6972320     0.8011600
  O        1.4000820    -0.3698310     1.7931610
  O       -3.3935320     1.8007080    -0.1346550
  O        2.6070010     1.5395500    -0.9938350
  O        3.6924620     0.1319130     0.4259740
  C       -0.8211920    -0.9649900     0.0477000
  C        0.4956150    -0.4174700    -0.4760140
  C       -1.8427190     0.0633310     0.5156670
  C        1.1749331     0.4211393     0.6469495
  C       -2.1923660     1.1169960    -0.5276460
  C        2.6663270     0.6479390     0.0251960
  H       -0.6001840    -1.6333830     0.8895000
  H        0.3094840     0.2426950    -1.3366810
  H       -1.4776870     0.5490530     1.4357690
  H        0.7848540     1.2951930     0.8109900
  H       -2.4256530     0.6242850    -1.4728150
  H       -1.3693410     1.8242450    -0.6894300
  H       -2.2436880    -1.9988170    -0.7384990
  H        0.7382740    -2.1149450    -1.3600910
  H       -3.7555350    -0.0560060     0.7240450
  H        2.1352240    -0.9985780     1.6549180
  H       -3.1588320     2.4130520     0.5846580
  H        3.5236120     1.6268920    -1.3298730
units angstrom
no_reorient  #important for SAPT in psi4, default
symmetry c1  #important for SAPT in psi4, default
}

set PROPERTIES_ORIGIN ["COM"]
properties('MP2/aug-cc-pvtz', properties = ['dipole'])
--------------------------------------------------------------------------

    Molecular point group: c1
  Charge       = 0
  Multiplicity = 1
  Basis Set: AUG-CC-PVTZ
    Blend: AUG-CC-PVTZ
  Basis Set: (AUG-CC-PVTZ AUX)
    Blend: AUG-CC-PVTZ-JKFIT

    Orbital Energies [Eh]
    ---------------------

    Doubly Occupied:

       1A    -20.628799     2A    -20.592754     3A    -20.575802
       4A    -20.572755     5A    -20.571540     6A    -20.571073
       7A    -20.564260     8A    -11.401320     9A    -11.320519
      10A    -11.305848    11A    -11.302959    12A    -11.301283
      13A    -11.293875    14A     -1.471590    15A     -1.407460
      16A     -1.393897    17A     -1.381105    18A     -1.368687
      19A     -1.361027    20A     -1.350103    21A     -1.080288
      22A     -1.022129    23A     -0.956921    24A     -0.884424
      25A     -0.837061    26A     -0.807298    27A     -0.755735
      28A     -0.727983    29A     -0.720673    30A     -0.715712
      31A     -0.711031    32A     -0.684747    33A     -0.680992
      34A     -0.657328    35A     -0.646109    36A     -0.639824
      37A     -0.627985    38A     -0.610087    39A     -0.602324
      40A     -0.585823    41A     -0.551256    42A     -0.550015
      43A     -0.535146    44A     -0.532477    45A     -0.527999
      46A     -0.503877    47A     -0.494526    48A     -0.484340
      49A     -0.466781    50A     -0.457537    51A     -0.451953
      52A     -0.430220

  @DF-RHF Final Energy:  -758.49833178407744

   => Energetics <=

    Nuclear Repulsion Energy =            914.3232069531353545
    One-Electron Energy =               -2860.2885530745056712
    Two-Electron Energy =                1187.4670143372927669
    Total Energy =                       -758.4983317840774362
  Basis Set: (AUG-CC-PVTZ AUX)
    Blend: AUG-CC-PVTZ-RI
    Molecular point group: c1

    Geometry (in Angstrom), charge = 0, multiplicity = 1:

       Center              X                  Y                   Z               Mass
    ------------   -----------------  -----------------  -----------------  -----------------
         O           -1.393511760946    -1.707428021429    -1.056775127075    15.994914619570
         O            1.293749239054    -1.505387021429    -0.874167127075    15.994914619570
         O           -3.051603760946    -0.692793021429     0.793100872925    15.994914619570
         O            1.368765239054    -0.365392021429     1.785101872925    15.994914619570
         O           -3.424848760946     1.805146978571    -0.142714127075    15.994914619570
         O            2.575684239054     1.543988978571    -1.001894127075    15.994914619570
         O            3.661145239054     0.136351978571     0.417914872925    15.994914619570
         C           -0.852508760946    -0.960551021429     0.039640872925    12.000000000000
         C            0.464298239054    -0.413031021429    -0.484073127075    12.000000000000
         C           -1.874035760946     0.067769978571     0.507607872925    12.000000000000
         C            1.143616339054     0.425578278571     0.638890372925    12.000000000000
         C           -2.223682760946     1.121434978571    -0.535705127075    12.000000000000
         C            2.635010239054     0.652377978571     0.017136872925    12.000000000000
         H           -0.631500760946    -1.628944021429     0.881440872925     1.007825032230
         H            0.278167239054     0.247133978571    -1.344740127075     1.007825032230
         H           -1.509003760946     0.553491978571     1.427709872925     1.007825032230
         H            0.753537239054     1.299631978571     0.802930872925     1.007825032230
         H           -2.456969760946     0.628723978571    -1.480874127075     1.007825032230
         H           -1.400657760946     1.828683978571    -0.697489127075     1.007825032230
         H           -2.275004760946    -1.994378021429    -0.746558127075     1.007825032230
         H            0.706957239054    -2.110506021429    -1.368150127075     1.007825032230
         H           -3.786851760946    -0.051567021429     0.715985872925     1.007825032230
         H            2.103907239054    -0.994139021429     1.646858872925     1.007825032230
         H           -3.190148760946     2.417490978571     0.576598872925     1.007825032230
         H            3.492295239054     1.631330978571    -1.337932127075     1.007825032230

  Basis Set: AUG-CC-PVTZ
    Blend: AUG-CC-PVTZ
  Basis Set: (AUG-CC-PVTZ AUX)
    Blend: AUG-CC-PVTZ-JKFIT
	 Reference Energy          =    -758.4983317840774362 [Eh]
	 Singles Energy            =      -0.0000000000000000 [Eh]
	 Same-Spin Energy          =      -0.7343415848973153 [Eh]
	 Opposite-Spin Energy      =      -2.2315871080009351 [Eh]
	 Correlation Energy        =      -2.9659286928982502 [Eh]
	 Total Energy              =    -761.4642604769757099 [Eh]

	 ================> DF-SCS-MP2 Energies <==================
	-----------------------------------------------------------
	 SCS Same-Spin Scale       =       0.3333333333333333 [-]
	 SCS Opposite-Spin Scale   =       1.2000000000000000 [-]
	 SCS Same-Spin Energy      =      -0.2447805282991051 [Eh]
	 SCS Opposite-Spin Energy  =      -2.6779045296011219 [Eh]
	 SCS Correlation Energy    =      -2.9226850579002268 [Eh]
	 SCS Total Energy          =    -761.4210168419776892 [Eh]
	-----------------------------------------------------------

  Dipole Moment: [D]
     X:    -1.2264      Y:     2.7646      Z:    -0.7644     Total:     3.1195

*** Psi4 exiting successfully. Buy a developer a beer!
