                               Psi4 1.4a3.dev225

  ==> Input File <==

--------------------------------------------------------------------------
#psi4
#
memory 32 gb

molecule  {
0 1
  O       -1.3621950    -1.7118670    -1.0487160
  O        1.3250660    -1.5098260    -0.8661080
  O       -3.0202870    -0.6972320     0.8011600
  O        1.4000820    -0.3698310     1.7931610
  O       -3.3935320     1.8007080    -0.1346550
  O        2.6070010     1.5395500    -0.9938350
  O        3.6924620     0.1319130     0.4259740
  C       -0.7456700    -0.8607287     0.2007556
  C        0.4956150    -0.4174700    -0.4760140
  C       -1.8427190     0.0633310     0.5156670
  C        1.2861160     0.3473610     0.5837090
  C       -2.1923660     1.1169960    -0.5276460
  C        2.6663270     0.6479390     0.0251960
  H       -0.6001840    -1.6333830     0.8895000
  H        0.3094840     0.2426950    -1.3366810
  H       -1.4776870     0.5490530     1.4357690
  H        0.7848540     1.2951930     0.8109900
  H       -2.4256530     0.6242850    -1.4728150
  H       -1.3693410     1.8242450    -0.6894300
  H       -2.2436880    -1.9988170    -0.7384990
  H        0.7382740    -2.1149450    -1.3600910
  H       -3.7555350    -0.0560060     0.7240450
  H        2.1352240    -0.9985780     1.6549180
  H       -3.1588320     2.4130520     0.5846580
  H        3.5236120     1.6268920    -1.3298730
units angstrom
no_reorient  #important for SAPT in psi4, default
symmetry c1  #important for SAPT in psi4, default
}

set PROPERTIES_ORIGIN ["COM"]
properties('MP2/aug-cc-pvtz', properties = ['dipole'])
--------------------------------------------------------------------------

    Molecular point group: c1
  Charge       = 0
  Multiplicity = 1
  Basis Set: AUG-CC-PVTZ
    Blend: AUG-CC-PVTZ
  Basis Set: (AUG-CC-PVTZ AUX)
    Blend: AUG-CC-PVTZ-JKFIT

    Orbital Energies [Eh]
    ---------------------

    Doubly Occupied:

       1A    -20.633161     2A    -20.594688     3A    -20.579627
       4A    -20.578400     5A    -20.574962     6A    -20.566480
       7A    -20.547529     8A    -11.403081     9A    -11.320446
      10A    -11.311736    11A    -11.309146    12A    -11.304219
      13A    -11.303992    14A     -1.478020    15A     -1.405062
      16A     -1.400064    17A     -1.377870    18A     -1.369471
      19A     -1.365139    20A     -1.303015    21A     -1.100430
      22A     -1.035993    23A     -0.969552    24A     -0.900694
      25A     -0.829830    26A     -0.806261    27A     -0.759853
      28A     -0.733715    29A     -0.726430    30A     -0.716980
      31A     -0.715608    32A     -0.679976    33A     -0.673613
      34A     -0.651949    35A     -0.644886    36A     -0.633563
      37A     -0.628088    38A     -0.605406    39A     -0.600318
      40A     -0.583020    41A     -0.551644    42A     -0.547267
      43A     -0.543858    44A     -0.534705    45A     -0.505847
      46A     -0.497657    47A     -0.491017    48A     -0.490073
      49A     -0.475570    50A     -0.466703    51A     -0.452928
      52A     -0.448158

  @DF-RHF Final Energy:  -758.48914906026926

   => Energetics <=

    Nuclear Repulsion Energy =            915.5819152865385604
    One-Electron Energy =               -2862.6867341538136316
    Two-Electron Energy =                1188.6156698070058155
    Total Energy =                       -758.4891490602692556
  Basis Set: (AUG-CC-PVTZ AUX)
    Blend: AUG-CC-PVTZ-RI
    Molecular point group: c1

    Geometry (in Angstrom), charge = 0, multiplicity = 1:

       Center              X                  Y                   Z               Mass
    ------------   -----------------  -----------------  -----------------  -----------------
         O           -1.404939273930    -1.709293772560    -1.062272375521    15.994914619570
         O            1.282321726070    -1.507252772560    -0.879664375521    15.994914619570
         O           -3.063031273930    -0.694658772560     0.787603624479    15.994914619570
         O            1.357337726070    -0.367257772560     1.779604624479    15.994914619570
         O           -3.436276273930     1.803281227440    -0.148211375521    15.994914619570
         O            2.564256726070     1.542123227440    -1.007391375521    15.994914619570
         O            3.649717726070     0.134486227440     0.412417624479    15.994914619570
         C           -0.788414273930    -0.858155472560     0.187199224479    12.000000000000
         C            0.452870726070    -0.414896772560    -0.489570375521    12.000000000000
         C           -1.885463273930     0.065904227440     0.502110624479    12.000000000000
         C            1.243371726070     0.349934227440     0.570152624479    12.000000000000
         C           -2.235110273930     1.119569227440    -0.541202375521    12.000000000000
         C            2.623582726070     0.650512227440     0.011639624479    12.000000000000
         H           -0.642928273930    -1.630809772560     0.875943624479     1.007825032230
         H            0.266739726070     0.245268227440    -1.350237375521     1.007825032230
         H           -1.520431273930     0.551626227440     1.422212624479     1.007825032230
         H            0.742109726070     1.297766227440     0.797433624479     1.007825032230
         H           -2.468397273930     0.626858227440    -1.486371375521     1.007825032230
         H           -1.412085273930     1.826818227440    -0.702986375521     1.007825032230
         H           -2.286432273930    -1.996243772560    -0.752055375521     1.007825032230
         H            0.695529726070    -2.112371772560    -1.373647375521     1.007825032230
         H           -3.798279273930    -0.053432772560     0.710488624479     1.007825032230
         H            2.092479726070    -0.996004772560     1.641361624479     1.007825032230
         H           -3.201576273930     2.415625227440     0.571101624479     1.007825032230
         H            3.480867726070     1.629465227440    -1.343429375521     1.007825032230

  Basis Set: AUG-CC-PVTZ
    Blend: AUG-CC-PVTZ
  Basis Set: (AUG-CC-PVTZ AUX)
    Blend: AUG-CC-PVTZ-JKFIT
	 Reference Energy          =    -758.4891490602692556 [Eh]
	 Singles Energy            =      -0.0000000000000000 [Eh]
	 Same-Spin Energy          =      -0.7364877950090366 [Eh]
	 Opposite-Spin Energy      =      -2.2367134941114406 [Eh]
	 Correlation Energy        =      -2.9732012891204773 [Eh]
	 Total Energy              =    -761.4623503493896806 [Eh]

	 ================> DF-SCS-MP2 Energies <==================
	-----------------------------------------------------------
	 SCS Same-Spin Scale       =       0.3333333333333333 [-]
	 SCS Opposite-Spin Scale   =       1.2000000000000000 [-]
	 SCS Same-Spin Energy      =      -0.2454959316696789 [Eh]
	 SCS Opposite-Spin Energy  =      -2.6840561929337285 [Eh]
	 SCS Correlation Energy    =      -2.9295521246034073 [Eh]
	 SCS Total Energy          =    -761.4187011848727025 [Eh]
	-----------------------------------------------------------

  Dipole Moment: [D]
     X:    -0.9728      Y:     2.9980      Z:    -0.4524     Total:     3.1842

*** Psi4 exiting successfully. Buy a developer a beer!
