                               Psi4 1.4a3.dev225

  ==> Input File <==

--------------------------------------------------------------------------
#psi4
#
memory 32 gb

molecule  {
0 1
  O       -1.3621950    -1.7118670    -1.0487160
  O        1.3250660    -1.5098260    -0.8661080
  O       -3.0202870    -0.6972320     0.8011600
  O        1.4000820    -0.3698310     1.7931610
  O       -3.3935320     1.8007080    -0.1346550
  O        2.6070010     1.5395500    -0.9938350
  O        3.6924620     0.1319130     0.4259740
  C       -0.8211920    -0.9649900     0.0477000
  C        0.5246987    -0.4557721    -0.4896922
  C       -1.8427190     0.0633310     0.5156670
  C        1.2861160     0.3473610     0.5837090
  C       -2.1923660     1.1169960    -0.5276460
  C        2.6663270     0.6479390     0.0251960
  H       -0.6001840    -1.6333830     0.8895000
  H        0.3094840     0.2426950    -1.3366810
  H       -1.4776870     0.5490530     1.4357690
  H        0.7848540     1.2951930     0.8109900
  H       -2.4256530     0.6242850    -1.4728150
  H       -1.3693410     1.8242450    -0.6894300
  H       -2.2436880    -1.9988170    -0.7384990
  H        0.7382740    -2.1149450    -1.3600910
  H       -3.7555350    -0.0560060     0.7240450
  H        2.1352240    -0.9985780     1.6549180
  H       -3.1588320     2.4130520     0.5846580
  H        3.5236120     1.6268920    -1.3298730
units angstrom
no_reorient  #important for SAPT in psi4, default
symmetry c1  #important for SAPT in psi4, default
}

set PROPERTIES_ORIGIN ["COM"]
properties('MP2/aug-cc-pvtz', properties = ['dipole'])
--------------------------------------------------------------------------

    Molecular point group: c1
  Charge       = 0
  Multiplicity = 1
  Basis Set: AUG-CC-PVTZ
    Blend: AUG-CC-PVTZ
  Basis Set: (AUG-CC-PVTZ AUX)
    Blend: AUG-CC-PVTZ-JKFIT

    Orbital Energies [Eh]
    ---------------------

    Doubly Occupied:

       1A    -20.630836     2A    -20.591292     3A    -20.575966
       4A    -20.574960     5A    -20.573883     6A    -20.572354
       7A    -20.564524     8A    -11.400630     9A    -11.316966
      10A    -11.305145    11A    -11.301962    12A    -11.299510
      13A    -11.294608    14A     -1.475819    15A     -1.413143
      16A     -1.400517    17A     -1.384785    18A     -1.373866
      19A     -1.363490    20A     -1.353190    21A     -1.075141
      22A     -1.026309    23A     -0.958876    24A     -0.887072
      25A     -0.829045    26A     -0.805356    27A     -0.759547
      28A     -0.735560    29A     -0.725258    30A     -0.714537
      31A     -0.711750    32A     -0.683621    33A     -0.679836
      34A     -0.653616    35A     -0.641621    36A     -0.637644
      37A     -0.628234    38A     -0.608569    39A     -0.601649
      40A     -0.583462    41A     -0.554725    42A     -0.549501
      43A     -0.538781    44A     -0.535216    45A     -0.533746
      46A     -0.503008    47A     -0.495403    48A     -0.483921
      49A     -0.464024    50A     -0.459263    51A     -0.450490
      52A     -0.438562

  @DF-RHF Final Energy:  -758.52232241253841

   => Energetics <=

    Nuclear Repulsion Energy =            915.6312049577343259
    One-Electron Energy =               -2862.8654729406148363
    Two-Electron Energy =                1188.7119455703420954
    Total Energy =                       -758.5223224125384149
  Basis Set: (AUG-CC-PVTZ AUX)
    Blend: AUG-CC-PVTZ-RI
    Molecular point group: c1

    Geometry (in Angstrom), charge = 0, multiplicity = 1:

       Center              X                  Y                   Z               Mass
    ------------   -----------------  -----------------  -----------------  -----------------
         O           -1.402096958189    -1.700567996725    -1.052067219340    15.994914619570
         O            1.285164041811    -1.498526996725    -0.869459219340    15.994914619570
         O           -3.060188958189    -0.685932996725     0.797808780660    15.994914619570
         O            1.360180041811    -0.358531996725     1.789809780660    15.994914619570
         O           -3.433433958189     1.812007003275    -0.138006219340    15.994914619570
         O            2.567099041811     1.550849003275    -0.997186219340    15.994914619570
         O            3.652560041811     0.143212003275     0.422622780660    15.994914619570
         C           -0.861093958189    -0.953690996725     0.044348780660    12.000000000000
         C            0.484796741811    -0.444473096725    -0.493043419340    12.000000000000
         C           -1.882620958189     0.074630003275     0.512315780660    12.000000000000
         C            1.246214041811     0.358660003275     0.580357780660    12.000000000000
         C           -2.232267958189     1.128295003275    -0.530997219340    12.000000000000
         C            2.626425041811     0.659238003275     0.021844780660    12.000000000000
         H           -0.640085958189    -1.622083996725     0.886148780660     1.007825032230
         H            0.269582041811     0.253994003275    -1.340032219340     1.007825032230
         H           -1.517588958189     0.560352003275     1.432417780660     1.007825032230
         H            0.744952041811     1.306492003275     0.807638780660     1.007825032230
         H           -2.465554958189     0.635584003275    -1.476166219340     1.007825032230
         H           -1.409242958189     1.835544003275    -0.692781219340     1.007825032230
         H           -2.283589958189    -1.987517996725    -0.741850219340     1.007825032230
         H            0.698372041811    -2.103645996725    -1.363442219340     1.007825032230
         H           -3.795436958189    -0.044706996725     0.720693780660     1.007825032230
         H            2.095322041811    -0.987278996725     1.651566780660     1.007825032230
         H           -3.198733958189     2.424351003275     0.581306780660     1.007825032230
         H            3.483710041811     1.638191003275    -1.333224219340     1.007825032230

  Basis Set: AUG-CC-PVTZ
    Blend: AUG-CC-PVTZ
  Basis Set: (AUG-CC-PVTZ AUX)
    Blend: AUG-CC-PVTZ-JKFIT
	 Reference Energy          =    -758.5223224125384149 [Eh]
	 Singles Energy            =      -0.0000000000000000 [Eh]
	 Same-Spin Energy          =      -0.7342354038897690 [Eh]
	 Opposite-Spin Energy      =      -2.2302468463637157 [Eh]
	 Correlation Energy        =      -2.9644822502534849 [Eh]
	 Total Energy              =    -761.4868046627918829 [Eh]

	 ================> DF-SCS-MP2 Energies <==================
	-----------------------------------------------------------
	 SCS Same-Spin Scale       =       0.3333333333333333 [-]
	 SCS Opposite-Spin Scale   =       1.2000000000000000 [-]
	 SCS Same-Spin Energy      =      -0.2447451346299230 [Eh]
	 SCS Opposite-Spin Energy  =      -2.6762962156364587 [Eh]
	 SCS Correlation Energy    =      -2.9210413502663819 [Eh]
	 SCS Total Energy          =    -761.4433637628047791 [Eh]
	-----------------------------------------------------------

  Dipole Moment: [D]
     X:    -1.1339      Y:     2.5456      Z:    -0.8525     Total:     2.9142

*** Psi4 exiting successfully. Buy a developer a beer!
