                               Psi4 1.4a3.dev225

  ==> Input File <==

--------------------------------------------------------------------------
#psi4
#
memory 32 gb

molecule  {
0 1
  O       -1.3621950    -1.7118670    -1.0487160
  O        1.3250660    -1.5098260    -0.8661080
  O       -3.0202870    -0.6972320     0.8011600
  O        1.4000820    -0.3698310     1.7931610
  O       -3.3935320     1.8007080    -0.1346550
  O        2.6070010     1.5395500    -0.9938350
  O        3.6924620     0.1319130     0.4259740
  C       -0.8211920    -0.9649900     0.0477000
  C        0.4956150    -0.4174700    -0.4760140
  C       -1.8427190     0.0633310     0.5156670
  C        1.2861160     0.3473610     0.5837090
  C       -2.1923660     1.1169960    -0.5276460
  C        2.6663270     0.6479390     0.0251960
  H       -0.6001840    -1.6333830     0.8895000
  H        0.3094840     0.2426950    -1.3366810
  H       -1.5107930     0.5050012     1.3523218
  H        0.7848540     1.2951930     0.8109900
  H       -2.4256530     0.6242850    -1.4728150
  H       -1.3693410     1.8242450    -0.6894300
  H       -2.2436880    -1.9988170    -0.7384990
  H        0.7382740    -2.1149450    -1.3600910
  H       -3.7555350    -0.0560060     0.7240450
  H        2.1352240    -0.9985780     1.6549180
  H       -3.1588320     2.4130520     0.5846580
  H        3.5236120     1.6268920    -1.3298730
units angstrom
no_reorient  #important for SAPT in psi4, default
symmetry c1  #important for SAPT in psi4, default
}

set PROPERTIES_ORIGIN ["COM"]
properties('MP2/aug-cc-pvtz', properties = ['dipole'])
--------------------------------------------------------------------------

    Molecular point group: c1
  Charge       = 0
  Multiplicity = 1
  Basis Set: AUG-CC-PVTZ
    Blend: AUG-CC-PVTZ
  Basis Set: (AUG-CC-PVTZ AUX)
    Blend: AUG-CC-PVTZ-JKFIT

    Orbital Energies [Eh]
    ---------------------

    Doubly Occupied:

       1A    -20.631651     2A    -20.592003     3A    -20.575190
       4A    -20.573442     5A    -20.572241     6A    -20.570316
       7A    -20.565358     8A    -11.402198     9A    -11.318736
      10A    -11.304282    11A    -11.299547    12A    -11.294990
      13A    -11.289546    14A     -1.476519    15A     -1.407386
      16A     -1.396427    17A     -1.383586    18A     -1.369381
      19A     -1.362555    20A     -1.349961    21A     -1.082315
      22A     -1.030778    23A     -0.961180    24A     -0.892060
      25A     -0.833558    26A     -0.805675    27A     -0.759862
      28A     -0.736665    29A     -0.727709    30A     -0.715079
      31A     -0.714573    32A     -0.686582    33A     -0.676059
      34A     -0.650040    35A     -0.641841    36A     -0.637134
      37A     -0.630495    38A     -0.607500    39A     -0.601586
      40A     -0.581026    41A     -0.553780    42A     -0.549334
      43A     -0.539832    44A     -0.534301    45A     -0.530963
      46A     -0.504851    47A     -0.495950    48A     -0.484735
      49A     -0.468990    50A     -0.459899    51A     -0.456431
      52A     -0.442757

  @DF-RHF Final Energy:  -758.51854856051523

   => Energetics <=

    Nuclear Repulsion Energy =            916.1512293027565192
    One-Electron Energy =               -2863.8818393239425859
    Two-Electron Energy =                1189.2120614606708386
    Total Energy =                       -758.5185485605152280
  Basis Set: (AUG-CC-PVTZ AUX)
    Blend: AUG-CC-PVTZ-RI
    Molecular point group: c1

    Geometry (in Angstrom), charge = 0, multiplicity = 1:

       Center              X                  Y                   Z               Mass
    ------------   -----------------  -----------------  -----------------  -----------------
         O           -1.400146673757    -1.702685880475    -1.052475456185    15.994914619570
         O            1.287114326243    -1.500644880475    -0.869867456185    15.994914619570
         O           -3.058238673757    -0.688050880475     0.797400543815    15.994914619570
         O            1.362130326243    -0.360649880475     1.789401543815    15.994914619570
         O           -3.431483673757     1.809889119525    -0.138414456185    15.994914619570
         O            2.569049326243     1.548731119525    -0.997594456185    15.994914619570
         O            3.654510326243     0.141094119525     0.422214543815    15.994914619570
         C           -0.859143673757    -0.955808880475     0.043940543815    12.000000000000
         C            0.457663326243    -0.408288880475    -0.479773456185    12.000000000000
         C           -1.880670673757     0.072512119525     0.511907543815    12.000000000000
         C            1.248164326243     0.356542119525     0.579949543815    12.000000000000
         C           -2.230317673757     1.126177119525    -0.531405456185    12.000000000000
         C            2.628375326243     0.657120119525     0.021436543815    12.000000000000
         H           -0.638135673757    -1.624201880475     0.885740543815     1.007825032230
         H            0.271532326243     0.251876119525    -1.340440456185     1.007825032230
         H           -1.548744673757     0.514182319525     1.348562343815     1.007825032230
         H            0.746902326243     1.304374119525     0.807230543815     1.007825032230
         H           -2.463604673757     0.633466119525    -1.476574456185     1.007825032230
         H           -1.407292673757     1.833426119525    -0.693189456185     1.007825032230
         H           -2.281639673757    -1.989635880475    -0.742258456185     1.007825032230
         H            0.700322326243    -2.105763880475    -1.363850456185     1.007825032230
         H           -3.793486673757    -0.046824880475     0.720285543815     1.007825032230
         H            2.097272326243    -0.989396880475     1.651158543815     1.007825032230
         H           -3.196783673757     2.422233119525     0.580898543815     1.007825032230
         H            3.485660326243     1.636073119525    -1.333632456185     1.007825032230

  Basis Set: AUG-CC-PVTZ
    Blend: AUG-CC-PVTZ
  Basis Set: (AUG-CC-PVTZ AUX)
    Blend: AUG-CC-PVTZ-JKFIT
	 Reference Energy          =    -758.5185485605152280 [Eh]
	 Singles Energy            =      -0.0000000000000000 [Eh]
	 Same-Spin Energy          =      -0.7341308388996863 [Eh]
	 Opposite-Spin Energy      =      -2.2302789888617203 [Eh]
	 Correlation Energy        =      -2.9644098277614068 [Eh]
	 Total Energy              =    -761.4829583882766428 [Eh]

	 ================> DF-SCS-MP2 Energies <==================
	-----------------------------------------------------------
	 SCS Same-Spin Scale       =       0.3333333333333333 [-]
	 SCS Opposite-Spin Scale   =       1.2000000000000000 [-]
	 SCS Same-Spin Energy      =      -0.2447102796332288 [Eh]
	 SCS Opposite-Spin Energy  =      -2.6763347866340643 [Eh]
	 SCS Correlation Energy    =      -2.9210450662672929 [Eh]
	 SCS Total Energy          =    -761.4395936267825391 [Eh]
	-----------------------------------------------------------

  Dipole Moment: [D]
     X:    -1.1695      Y:     2.7179      Z:    -0.7668     Total:     3.0566

*** Psi4 exiting successfully. Buy a developer a beer!
