                               Psi4 1.4a3.dev225

  ==> Input File <==

--------------------------------------------------------------------------
#psi4
#
memory 32 gb

molecule  {
0 1
  O       -1.3621950    -1.7118670    -1.0487160
  O        1.3250660    -1.5098260    -0.8661080
  O       -3.0202870    -0.6972320     0.8011600
  O        1.4000820    -0.3698310     1.7931610
  O       -3.3935320     1.8007080    -0.1346550
  O        2.6070010     1.5395500    -0.9938350
  O        3.6924620     0.1319130     0.4259740
  C       -0.7834310    -0.9128594     0.1242278
  C        0.4956150    -0.4174700    -0.4760140
  C       -1.8427190     0.0633310     0.5156670
  C        1.2861160     0.3473610     0.5837090
  C       -2.1923660     1.1169960    -0.5276460
  C        2.6663270     0.6479390     0.0251960
  H       -0.6001840    -1.6333830     0.8895000
  H        0.3094840     0.2426950    -1.3366810
  H       -1.4776870     0.5490530     1.4357690
  H        0.7848540     1.2951930     0.8109900
  H       -2.4256530     0.6242850    -1.4728150
  H       -1.3693410     1.8242450    -0.6894300
  H       -2.2436880    -1.9988170    -0.7384990
  H        0.7382740    -2.1149450    -1.3600910
  H       -3.7555350    -0.0560060     0.7240450
  H        2.1352240    -0.9985780     1.6549180
  H       -3.1588320     2.4130520     0.5846580
  H        3.5236120     1.6268920    -1.3298730
units angstrom
no_reorient  #important for SAPT in psi4, default
symmetry c1  #important for SAPT in psi4, default
}

set PROPERTIES_ORIGIN ["COM"]
properties('MP2/aug-cc-pvtz', properties = ['dipole'])
--------------------------------------------------------------------------

    Molecular point group: c1
  Charge       = 0
  Multiplicity = 1
  Basis Set: AUG-CC-PVTZ
    Blend: AUG-CC-PVTZ
  Basis Set: (AUG-CC-PVTZ AUX)
    Blend: AUG-CC-PVTZ-JKFIT

    Orbital Energies [Eh]
    ---------------------

    Doubly Occupied:

       1A    -20.632227     2A    -20.593401     3A    -20.576984
       4A    -20.576801     5A    -20.572661     6A    -20.565682
       7A    -20.561257     8A    -11.402375     9A    -11.319092
      10A    -11.307655    11A    -11.305413    12A    -11.302292
      13A    -11.298177    14A     -1.477063    15A     -1.404715
      16A     -1.397885    17A     -1.378358    18A     -1.369042
      19A     -1.363620    20A     -1.328557    21A     -1.090317
      22A     -1.031937    23A     -0.965737    24A     -0.894451
      25A     -0.829680    26A     -0.803680    27A     -0.758429
      28A     -0.734040    29A     -0.726193    30A     -0.716141
      31A     -0.714163    32A     -0.681293    33A     -0.672926
      34A     -0.648170    35A     -0.643678    36A     -0.633028
      37A     -0.629079    38A     -0.605891    39A     -0.601681
      40A     -0.581639    41A     -0.550489    42A     -0.546934
      43A     -0.541109    44A     -0.534129    45A     -0.521908
      46A     -0.499128    47A     -0.496198    48A     -0.487740
      49A     -0.470745    50A     -0.466482    51A     -0.456155
      52A     -0.447947

  @DF-RHF Final Energy:  -758.51283909256074

   => Energetics <=

    Nuclear Repulsion Energy =            915.5869926483356949
    One-Electron Energy =               -2862.7709120383947266
    Two-Electron Energy =                1188.6710802974985199
    Total Energy =                       -758.5128390925606254
  Basis Set: (AUG-CC-PVTZ AUX)
    Blend: AUG-CC-PVTZ-RI
    Molecular point group: c1

    Geometry (in Angstrom), charge = 0, multiplicity = 1:

       Center              X                  Y                   Z               Mass
    ------------   -----------------  -----------------  -----------------  -----------------
         O           -1.402628063470    -1.706103046172    -1.057588393322    15.994914619570
         O            1.284632936530    -1.504062046172    -0.874980393322    15.994914619570
         O           -3.060720063470    -0.691468046172     0.792287606678    15.994914619570
         O            1.359648936530    -0.364067046172     1.784288606678    15.994914619570
         O           -3.433965063470     1.806471953828    -0.143527393322    15.994914619570
         O            2.566567936530     1.545313953828    -1.002707393322    15.994914619570
         O            3.652028936530     0.137676953828     0.417101606678    15.994914619570
         C           -0.823864063470    -0.907095446172     0.115355406678    12.000000000000
         C            0.455181936530    -0.411706046172    -0.484886393322    12.000000000000
         C           -1.883152063470     0.069094953828     0.506794606678    12.000000000000
         C            1.245682936530     0.353124953828     0.574836606678    12.000000000000
         C           -2.232799063470     1.122759953828    -0.536518393322    12.000000000000
         C            2.625893936530     0.653702953828     0.016323606678    12.000000000000
         H           -0.640617063470    -1.627619046172     0.880627606678     1.007825032230
         H            0.269050936530     0.248458953828    -1.345553393322     1.007825032230
         H           -1.518120063470     0.554816953828     1.426896606678     1.007825032230
         H            0.744420936530     1.300956953828     0.802117606678     1.007825032230
         H           -2.466086063470     0.630048953828    -1.481687393322     1.007825032230
         H           -1.409774063470     1.830008953828    -0.698302393322     1.007825032230
         H           -2.284121063470    -1.993053046172    -0.747371393322     1.007825032230
         H            0.697840936530    -2.109181046172    -1.368963393322     1.007825032230
         H           -3.795968063470    -0.050242046172     0.715172606678     1.007825032230
         H            2.094790936530    -0.992814046172     1.646045606678     1.007825032230
         H           -3.199265063470     2.418815953828     0.575785606678     1.007825032230
         H            3.483178936530     1.632655953828    -1.338745393322     1.007825032230

  Basis Set: AUG-CC-PVTZ
    Blend: AUG-CC-PVTZ
  Basis Set: (AUG-CC-PVTZ AUX)
    Blend: AUG-CC-PVTZ-JKFIT
	 Reference Energy          =    -758.5128390925607391 [Eh]
	 Singles Energy            =      -0.0000000000000000 [Eh]
	 Same-Spin Energy          =      -0.7350839111570866 [Eh]
	 Opposite-Spin Energy      =      -2.2333379367114268 [Eh]
	 Correlation Energy        =      -2.9684218478685134 [Eh]
	 Total Energy              =    -761.4812609404292516 [Eh]

	 ================> DF-SCS-MP2 Energies <==================
	-----------------------------------------------------------
	 SCS Same-Spin Scale       =       0.3333333333333333 [-]
	 SCS Opposite-Spin Scale   =       1.2000000000000000 [-]
	 SCS Same-Spin Energy      =      -0.2450279703856955 [Eh]
	 SCS Opposite-Spin Energy  =      -2.6800055240537120 [Eh]
	 SCS Correlation Energy    =      -2.9250334944394076 [Eh]
	 SCS Total Energy          =    -761.4378725870001290 [Eh]
	-----------------------------------------------------------

  Dipole Moment: [D]
     X:    -1.0926      Y:     2.8399      Z:    -0.6183     Total:     3.1051

*** Psi4 exiting successfully. Buy a developer a beer!
