                               Psi4 1.4a3.dev225

  ==> Input File <==

--------------------------------------------------------------------------
#psi4
#
memory 32 gb

molecule  {
0 1
  O       -1.3621950    -1.7118670    -1.0487160
  O        1.3250660    -1.5098260    -0.8661080
  O       -3.0202870    -0.6972320     0.8011600
  O        1.4000820    -0.3698310     1.7931610
  O       -3.3935320     1.8007080    -0.1346550
  O        2.6070010     1.5395500    -0.9938350
  O        3.6924620     0.1319130     0.4259740
  C       -0.8211920    -0.9649900     0.0477000
  C        0.4956150    -0.4174700    -0.4760140
  C       -1.8427190     0.0633310     0.5156670
  C        1.2861160     0.3473610     0.5837090
  C       -2.1923660     1.1169960    -0.5276460
  C        2.6663270     0.6479390     0.0251960
  H       -0.5800442    -1.6942916     0.9662107
  H        0.3094840     0.2426950    -1.3366810
  H       -1.4776870     0.5490530     1.4357690
  H        0.7848540     1.2951930     0.8109900
  H       -2.4256530     0.6242850    -1.4728150
  H       -1.3693410     1.8242450    -0.6894300
  H       -2.2436880    -1.9988170    -0.7384990
  H        0.7382740    -2.1149450    -1.3600910
  H       -3.7555350    -0.0560060     0.7240450
  H        2.1352240    -0.9985780     1.6549180
  H       -3.1588320     2.4130520     0.5846580
  H        3.5236120     1.6268920    -1.3298730
units angstrom
no_reorient  #important for SAPT in psi4, default
symmetry c1  #important for SAPT in psi4, default
}

set PROPERTIES_ORIGIN ["COM"]
properties('MP2/aug-cc-pvtz', properties = ['dipole'])
--------------------------------------------------------------------------

    Molecular point group: c1
  Charge       = 0
  Multiplicity = 1
  Basis Set: AUG-CC-PVTZ
    Blend: AUG-CC-PVTZ
  Basis Set: (AUG-CC-PVTZ AUX)
    Blend: AUG-CC-PVTZ-JKFIT

    Orbital Energies [Eh]
    ---------------------

    Doubly Occupied:

       1A    -20.631501     2A    -20.592474     3A    -20.575261
       4A    -20.574618     5A    -20.574166     6A    -20.570305
       7A    -20.565071     8A    -11.401884     9A    -11.318244
      10A    -11.306612    11A    -11.305085    12A    -11.302963
      13A    -11.301012    14A     -1.476308    15A     -1.407912
      16A     -1.396268    17A     -1.383853    18A     -1.369631
      19A     -1.362410    20A     -1.350956    21A     -1.079363
      22A     -1.028153    23A     -0.958628    24A     -0.887422
      25A     -0.830025    26A     -0.799937    27A     -0.755424
      28A     -0.736147    29A     -0.725379    30A     -0.715318
      31A     -0.709475    32A     -0.683218    33A     -0.676083
      34A     -0.649769    35A     -0.640274    36A     -0.636694
      37A     -0.626183    38A     -0.607010    39A     -0.599629
      40A     -0.580076    41A     -0.551480    42A     -0.550259
      43A     -0.538909    44A     -0.534251    45A     -0.530495
      46A     -0.502853    47A     -0.495718    48A     -0.484526
      49A     -0.466270    50A     -0.459113    51A     -0.455636
      52A     -0.437648

  @DF-RHF Final Energy:  -758.51636510899971

   => Energetics <=

    Nuclear Repulsion Energy =            915.0212608229115858
    One-Electron Energy =               -2861.6794536740217154
    Two-Electron Energy =                1188.1418277421103085
    Total Energy =                       -758.5163651089997074
  Basis Set: (AUG-CC-PVTZ AUX)
    Blend: AUG-CC-PVTZ-RI
    Molecular point group: c1

    Geometry (in Angstrom), charge = 0, multiplicity = 1:

       Center              X                  Y                   Z               Mass
    ------------   -----------------  -----------------  -----------------  -----------------
         O           -1.400420380350    -1.702599229184    -1.053298737517    15.994914619570
         O            1.286840619650    -1.500558229184    -0.870690737517    15.994914619570
         O           -3.058512380350    -0.687964229184     0.796577262483    15.994914619570
         O            1.361856619650    -0.360563229184     1.788578262483    15.994914619570
         O           -3.431757380350     1.809975770816    -0.139237737517    15.994914619570
         O            2.568775619650     1.548817770816    -0.998417737517    15.994914619570
         O            3.654236619650     0.141180770816     0.421391262483    15.994914619570
         C           -0.859417380350    -0.955722229184     0.043117262483    12.000000000000
         C            0.457389619650    -0.408202229184    -0.480596737517    12.000000000000
         C           -1.880944380350     0.072598770816     0.511084262483    12.000000000000
         C            1.247890619650     0.356628770816     0.579126262483    12.000000000000
         C           -2.230591380350     1.126263770816    -0.532228737517    12.000000000000
         C            2.628101619650     0.657206770816     0.020613262483    12.000000000000
         H           -0.618269580350    -1.685023829184     0.961627962483     1.007825032230
         H            0.271258619650     0.251962770816    -1.341263737517     1.007825032230
         H           -1.515912380350     0.558320770816     1.431186262483     1.007825032230
         H            0.746628619650     1.304460770816     0.806407262483     1.007825032230
         H           -2.463878380350     0.633552770816    -1.477397737517     1.007825032230
         H           -1.407566380350     1.833512770816    -0.694012737517     1.007825032230
         H           -2.281913380350    -1.989549229184    -0.743081737517     1.007825032230
         H            0.700048619650    -2.105677229184    -1.364673737517     1.007825032230
         H           -3.793760380350    -0.046738229184     0.719462262483     1.007825032230
         H            2.096998619650    -0.989310229184     1.650335262483     1.007825032230
         H           -3.197057380350     2.422319770816     0.580075262483     1.007825032230
         H            3.485386619650     1.636159770816    -1.334455737517     1.007825032230

  Basis Set: AUG-CC-PVTZ
    Blend: AUG-CC-PVTZ
  Basis Set: (AUG-CC-PVTZ AUX)
    Blend: AUG-CC-PVTZ-JKFIT
	 Reference Energy          =    -758.5163651089997074 [Eh]
	 Singles Energy            =      -0.0000000000000000 [Eh]
	 Same-Spin Energy          =      -0.7346675179718979 [Eh]
	 Opposite-Spin Energy      =      -2.2321453159704632 [Eh]
	 Correlation Energy        =      -2.9668128339423609 [Eh]
	 Total Energy              =    -761.4831779429421204 [Eh]

	 ================> DF-SCS-MP2 Energies <==================
	-----------------------------------------------------------
	 SCS Same-Spin Scale       =       0.3333333333333333 [-]
	 SCS Opposite-Spin Scale   =       1.2000000000000000 [-]
	 SCS Same-Spin Energy      =      -0.2448891726572993 [Eh]
	 SCS Opposite-Spin Energy  =      -2.6785743791645555 [Eh]
	 SCS Correlation Energy    =      -2.9234635518218548 [Eh]
	 SCS Total Energy          =    -761.4398286608216040 [Eh]
	-----------------------------------------------------------

  Dipole Moment: [D]
     X:    -1.2294      Y:     2.6941      Z:    -0.8408     Total:     3.0784

*** Psi4 exiting successfully. Buy a developer a beer!
