                               Psi4 1.4a3.dev225

  ==> Input File <==

--------------------------------------------------------------------------
#psi4
#
memory 32 gb

molecule  {
0 1
  O       -1.3621950    -1.7118670    -1.0487160
  O        1.3250660    -1.5098260    -0.8661080
  O       -3.0202870    -0.6972320     0.8011600
  O        1.4000820    -0.3698310     1.7931610
  O       -3.3935320     1.8007080    -0.1346550
  O        2.6070010     1.5395500    -0.9938350
  O        3.6924620     0.1319130     0.4259740
  C       -0.8211920    -0.9649900     0.0477000
  C        0.4956150    -0.4174700    -0.4760140
  C       -1.8427190     0.0633310     0.5156670
  C        1.2861160     0.3473610     0.5837090
  C       -2.1923660     1.1169960    -0.5276460
  C        2.6663270     0.6479390     0.0251960
  H       -0.6001840    -1.6333830     0.8895000
  H        0.3094840     0.2426950    -1.3366810
  H       -1.4776870     0.5490530     1.4357690
  H        0.7848540     1.2951930     0.8109900
  H       -2.4256530     0.6242850    -1.4728150
  H       -1.3693410     1.8242450    -0.6894300
  H       -2.2436880    -1.9988170    -0.7384990
  H        0.7382740    -2.1149450    -1.3600910
  H       -3.7555350    -0.0560060     0.7240450
  H        2.1352240    -0.9985780     1.6549180
  H       -3.1588320     2.4130520     0.5846580
  H        3.5703699     1.6313475    -1.3470149
units angstrom
no_reorient  #important for SAPT in psi4, default
symmetry c1  #important for SAPT in psi4, default
}

set PROPERTIES_ORIGIN ["COM"]
properties('MP2/aug-cc-pvtz', properties = ['dipole'])
--------------------------------------------------------------------------

    Molecular point group: c1
  Charge       = 0
  Multiplicity = 1
  Basis Set: AUG-CC-PVTZ
    Blend: AUG-CC-PVTZ
  Basis Set: (AUG-CC-PVTZ AUX)
    Blend: AUG-CC-PVTZ-JKFIT

    Orbital Energies [Eh]
    ---------------------

    Doubly Occupied:

       1A    -20.634127     2A    -20.591888     3A    -20.575116
       4A    -20.574495     5A    -20.572902     6A    -20.570117
       7A    -20.564099     8A    -11.400898     9A    -11.317994
      10A    -11.304024    11A    -11.302035    12A    -11.300246
      13A    -11.295594    14A     -1.469879    15A     -1.407473
      16A     -1.395283    17A     -1.382391    18A     -1.368155
      19A     -1.360838    20A     -1.350350    21A     -1.079848
      22A     -1.026972    23A     -0.960141    24A     -0.886671
      25A     -0.825143    26A     -0.801809    27A     -0.757008
      28A     -0.734761    29A     -0.723562    30A     -0.715085
      31A     -0.709778    32A     -0.682757    33A     -0.675775
      34A     -0.648747    35A     -0.639160    36A     -0.635087
      37A     -0.628180    38A     -0.605578    39A     -0.601541
      40A     -0.580413    41A     -0.552623    42A     -0.549921
      43A     -0.538737    44A     -0.534044    45A     -0.530710
      46A     -0.503082    47A     -0.494333    48A     -0.483895
      49A     -0.466186    50A     -0.459549    51A     -0.455208
      52A     -0.442542

  @DF-RHF Final Energy:  -758.51849472126389

   => Energetics <=

    Nuclear Repulsion Energy =            915.2546894278608534
    One-Electron Energy =               -2862.2128699372156007
    Two-Electron Energy =                1188.4396857880908556
    Total Energy =                       -758.5184947212640054
  Basis Set: (AUG-CC-PVTZ AUX)
    Blend: AUG-CC-PVTZ-RI
    Molecular point group: c1

    Geometry (in Angstrom), charge = 0, multiplicity = 1:

       Center              X                  Y                   Z               Mass
    ------------   -----------------  -----------------  -----------------  -----------------
         O           -1.400557208973    -1.702935229115    -1.052816294294    15.994914619570
         O            1.286703791027    -1.500894229115    -0.870208294294    15.994914619570
         O           -3.058649208973    -0.688300229115     0.797059705706    15.994914619570
         O            1.361719791027    -0.360899229115     1.789060705706    15.994914619570
         O           -3.431894208973     1.809639770885    -0.138755294294    15.994914619570
         O            2.568638791027     1.548481770885    -0.997935294294    15.994914619570
         O            3.654099791027     0.140844770885     0.421873705706    15.994914619570
         C           -0.859554208973    -0.956058229115     0.043599705706    12.000000000000
         C            0.457252791027    -0.408538229115    -0.480114294294    12.000000000000
         C           -1.881081208973     0.072262770885     0.511566705706    12.000000000000
         C            1.247753791027     0.356292770885     0.579608705706    12.000000000000
         C           -2.230728208973     1.125927770885    -0.531746294294    12.000000000000
         C            2.627964791027     0.656870770885     0.021095705706    12.000000000000
         H           -0.638546208973    -1.624451229115     0.885399705706     1.007825032230
         H            0.271121791027     0.251626770885    -1.340781294294     1.007825032230
         H           -1.516049208973     0.557984770885     1.431668705706     1.007825032230
         H            0.746491791027     1.304124770885     0.806889705706     1.007825032230
         H           -2.464015208973     0.633216770885    -1.476915294294     1.007825032230
         H           -1.407703208973     1.833176770885    -0.693530294294     1.007825032230
         H           -2.282050208973    -1.989885229115    -0.742599294294     1.007825032230
         H            0.699911791027    -2.106013229115    -1.364191294294     1.007825032230
         H           -3.793897208973    -0.047074229115     0.719944705706     1.007825032230
         H            2.096861791027    -0.989646229115     1.650817705706     1.007825032230
         H           -3.197194208973     2.421983770885     0.580557705706     1.007825032230
         H            3.532007691027     1.640279270885    -1.351115194294     1.007825032230

  Basis Set: AUG-CC-PVTZ
    Blend: AUG-CC-PVTZ
  Basis Set: (AUG-CC-PVTZ AUX)
    Blend: AUG-CC-PVTZ-JKFIT
	 Reference Energy          =    -758.5184947212638917 [Eh]
	 Singles Energy            =      -0.0000000000000000 [Eh]
	 Same-Spin Energy          =      -0.7349595417767700 [Eh]
	 Opposite-Spin Energy      =      -2.2325184032276413 [Eh]
	 Correlation Energy        =      -2.9674779450044113 [Eh]
	 Total Energy              =    -761.4859726662682533 [Eh]

	 ================> DF-SCS-MP2 Energies <==================
	-----------------------------------------------------------
	 SCS Same-Spin Scale       =       0.3333333333333333 [-]
	 SCS Opposite-Spin Scale   =       1.2000000000000000 [-]
	 SCS Same-Spin Energy      =      -0.2449865139255900 [Eh]
	 SCS Opposite-Spin Energy  =      -2.6790220838731695 [Eh]
	 SCS Correlation Energy    =      -2.9240085977987595 [Eh]
	 SCS Total Energy          =    -761.4425033190626664 [Eh]
	-----------------------------------------------------------

  Dipole Moment: [D]
     X:    -1.1559      Y:     2.6926      Z:    -0.8362     Total:     3.0473

*** Psi4 exiting successfully. Buy a developer a beer!
