                               Psi4 1.4a3.dev225

  ==> Input File <==

--------------------------------------------------------------------------
#psi4
#
memory 32 gb

molecule  {
0 1
  O       -1.3621950    -1.7118670    -1.0487160
  O        1.3250660    -1.5098260    -0.8661080
  O       -3.0202870    -0.6972320     0.8011600
  O        1.4000820    -0.3698310     1.7931610
  O       -3.3935320     1.8007080    -0.1346550
  O        2.6070010     1.5395500    -0.9938350
  O        3.6924620     0.1319130     0.4259740
  C       -0.8211920    -0.9649900     0.0477000
  C        0.4956150    -0.4174700    -0.4760140
  C       -1.8427190     0.0633310     0.5156670
  C        1.2861160     0.3473610     0.5837090
  C       -2.1923660     1.1169960    -0.5276460
  C        2.6663270     0.6479390     0.0251960
  H       -0.6001840    -1.6333830     0.8895000
  H        0.3094840     0.2426950    -1.3366810
  H       -1.4776870     0.5490530     1.4357690
  H        0.7848540     1.2951930     0.8109900
  H       -2.4256530     0.6242850    -1.4728150
  H       -1.3693410     1.8242450    -0.6894300
  H       -2.2436880    -1.9988170    -0.7384990
  H        0.7382740    -2.1149450    -1.3600910
  H       -3.7555350    -0.0560060     0.7240450
  H        2.1352240    -0.9985780     1.6549180
  H       -3.1106081     2.5388706     0.7324556
  H        3.5236120     1.6268920    -1.3298730
units angstrom
no_reorient  #important for SAPT in psi4, default
symmetry c1  #important for SAPT in psi4, default
}

set PROPERTIES_ORIGIN ["COM"]
properties('MP2/aug-cc-pvtz', properties = ['dipole'])
--------------------------------------------------------------------------

    Molecular point group: c1
  Charge       = 0
  Multiplicity = 1
  Basis Set: AUG-CC-PVTZ
    Blend: AUG-CC-PVTZ
  Basis Set: (AUG-CC-PVTZ AUX)
    Blend: AUG-CC-PVTZ-JKFIT

    Orbital Energies [Eh]
    ---------------------

    Doubly Occupied:

       1A    -20.631243     2A    -20.606848     3A    -20.574512
       4A    -20.574184     5A    -20.572445     6A    -20.569969
       7A    -20.564882     8A    -11.401666     9A    -11.317944
      10A    -11.303812    11A    -11.301021    12A    -11.298873
      13A    -11.295028    14A     -1.476081    15A     -1.404439
      16A     -1.392015    17A     -1.377608    18A     -1.364750
      19A     -1.354955    20A     -1.341815    21A     -1.079016
      22A     -1.025285    23A     -0.955546    24A     -0.883278
      25A     -0.829243    26A     -0.800275    27A     -0.754932
      28A     -0.735662    29A     -0.724998    30A     -0.711958
      31A     -0.697682    32A     -0.677301    33A     -0.667997
      34A     -0.649638    35A     -0.638714    36A     -0.634605
      37A     -0.624073    38A     -0.606693    39A     -0.597535
      40A     -0.580360    41A     -0.550802    42A     -0.547920
      43A     -0.538519    44A     -0.531057    45A     -0.524703
      46A     -0.498622    47A     -0.495496    48A     -0.484127
      49A     -0.465424    50A     -0.459037    51A     -0.454819
      52A     -0.441498

  @DF-RHF Final Energy:  -758.48813700852656

   => Energetics <=

    Nuclear Repulsion Energy =            914.5356661716373310
    One-Electron Energy =               -2860.8657935548235400
    Two-Electron Energy =                1187.8419903746596447
    Total Energy =                       -758.4881370085265644
  Basis Set: (AUG-CC-PVTZ AUX)
    Blend: AUG-CC-PVTZ-RI
    Molecular point group: c1

    Geometry (in Angstrom), charge = 0, multiplicity = 1:

       Center              X                  Y                   Z               Mass
    ------------   -----------------  -----------------  -----------------  -----------------
         O           -1.400564744851    -1.703559088286    -1.053664155132    15.994914619570
         O            1.286696255149    -1.501518088286    -0.871056155132    15.994914619570
         O           -3.058656744851    -0.688924088286     0.796211844868    15.994914619570
         O            1.361712255149    -0.361523088286     1.788212844868    15.994914619570
         O           -3.431901744851     1.809015911714    -0.139603155132    15.994914619570
         O            2.568631255149     1.547857911714    -0.998783155132    15.994914619570
         O            3.654092255149     0.140220911714     0.421025844868    15.994914619570
         C           -0.859561744851    -0.956682088286     0.042751844868    12.000000000000
         C            0.457245255149    -0.409162088286    -0.480962155132    12.000000000000
         C           -1.881088744851     0.071638911714     0.510718844868    12.000000000000
         C            1.247746255149     0.355668911714     0.578760844868    12.000000000000
         C           -2.230735744851     1.125303911714    -0.532594155132    12.000000000000
         C            2.627957255149     0.656246911714     0.020247844868    12.000000000000
         H           -0.638553744851    -1.625075088286     0.884551844868     1.007825032230
         H            0.271114255149     0.251002911714    -1.341629155132     1.007825032230
         H           -1.516056744851     0.557360911714     1.430820844868     1.007825032230
         H            0.746484255149     1.303500911714     0.806041844868     1.007825032230
         H           -2.464022744851     0.632592911714    -1.477763155132     1.007825032230
         H           -1.407710744851     1.832552911714    -0.694378155132     1.007825032230
         H           -2.282057744851    -1.990509088286    -0.743447155132     1.007825032230
         H            0.699904255149    -2.106637088286    -1.365039155132     1.007825032230
         H           -3.793904744851    -0.047698088286     0.719096844868     1.007825032230
         H            2.096854255149    -0.990270088286     1.649969844868     1.007825032230
         H           -3.148977844851     2.547178511714     0.727507444868     1.007825032230
         H            3.485242255149     1.635199911714    -1.334821155132     1.007825032230

  Basis Set: AUG-CC-PVTZ
    Blend: AUG-CC-PVTZ
  Basis Set: (AUG-CC-PVTZ AUX)
    Blend: AUG-CC-PVTZ-JKFIT
	 Reference Energy          =    -758.4881370085265644 [Eh]
	 Singles Energy            =      -0.0000000000000000 [Eh]
	 Same-Spin Energy          =      -0.7364086399097215 [Eh]
	 Opposite-Spin Energy      =      -2.2376336238273247 [Eh]
	 Correlation Energy        =      -2.9740422637370463 [Eh]
	 Total Energy              =    -761.4621792722635973 [Eh]

	 ================> DF-SCS-MP2 Energies <==================
	-----------------------------------------------------------
	 SCS Same-Spin Scale       =       0.3333333333333333 [-]
	 SCS Opposite-Spin Scale   =       1.2000000000000000 [-]
	 SCS Same-Spin Energy      =      -0.2454695466365738 [Eh]
	 SCS Opposite-Spin Energy  =      -2.6851603485927895 [Eh]
	 SCS Correlation Energy    =      -2.9306298952293632 [Eh]
	 SCS Total Energy          =    -761.4187669037559090 [Eh]
	-----------------------------------------------------------

  Dipole Moment: [D]
     X:    -1.2238      Y:     2.8021      Z:    -0.7042     Total:     3.1377

*** Psi4 exiting successfully. Buy a developer a beer!
