                               Psi4 1.4a3.dev225

  ==> Input File <==

--------------------------------------------------------------------------
#psi4
#
memory 32 gb

molecule  {
0 1
  O       -1.3621950    -1.7118670    -1.0487160
  O        1.3250660    -1.5098260    -0.8661080
  O       -3.0202870    -0.6972320     0.8011600
  O        1.4000820    -0.3698310     1.7931610
  O       -3.3935320     1.8007080    -0.1346550
  O        2.6070010     1.5395500    -0.9938350
  O        3.6924620     0.1319130     0.4259740
  C       -0.8211920    -0.9649900     0.0477000
  C        0.4956150    -0.4174700    -0.4760140
  C       -1.8427190     0.0633310     0.5156670
  C        1.2861160     0.3473610     0.5837090
  C       -2.1923660     1.1169960    -0.5276460
  C        2.6663270     0.6479390     0.0251960
  H       -0.6001840    -1.6333830     0.8895000
  H        0.3433091     0.1227250    -1.1802743
  H       -1.4776870     0.5490530     1.4357690
  H        0.7848540     1.2951930     0.8109900
  H       -2.4256530     0.6242850    -1.4728150
  H       -1.3693410     1.8242450    -0.6894300
  H       -2.2436880    -1.9988170    -0.7384990
  H        0.7382740    -2.1149450    -1.3600910
  H       -3.7555350    -0.0560060     0.7240450
  H        2.1352240    -0.9985780     1.6549180
  H       -3.1588320     2.4130520     0.5846580
  H        3.5236120     1.6268920    -1.3298730
units angstrom
no_reorient  #important for SAPT in psi4, default
symmetry c1  #important for SAPT in psi4, default
}

set PROPERTIES_ORIGIN ["COM"]
properties('MP2/aug-cc-pvtz', properties = ['dipole'])
--------------------------------------------------------------------------

    Molecular point group: c1
  Charge       = 0
  Multiplicity = 1
  Basis Set: AUG-CC-PVTZ
    Blend: AUG-CC-PVTZ
  Basis Set: (AUG-CC-PVTZ AUX)
    Blend: AUG-CC-PVTZ-JKFIT

    Orbital Energies [Eh]
    ---------------------

    Doubly Occupied:

       1A    -20.632162     2A    -20.592799     3A    -20.575391
       4A    -20.573647     5A    -20.573164     6A    -20.567525
       7A    -20.565060     8A    -11.401905     9A    -11.317165
      10A    -11.302401    11A    -11.301359    12A    -11.294438
      13A    -11.280272    14A     -1.476686    15A     -1.408034
      16A     -1.396121    17A     -1.383704    18A     -1.369521
      19A     -1.362169    20A     -1.350201    21A     -1.087713
      22A     -1.030192    23A     -0.963966    24A     -0.900586
      25A     -0.830781    26A     -0.814593    27A     -0.762051
      28A     -0.737301    29A     -0.732308    30A     -0.718037
      31A     -0.715458    32A     -0.685233    33A     -0.676843
      34A     -0.650345    35A     -0.642214    36A     -0.636884
      37A     -0.630727    38A     -0.607852    39A     -0.602203
      40A     -0.585822    41A     -0.553451    42A     -0.550290
      43A     -0.539682    44A     -0.534600    45A     -0.532075
      46A     -0.504397    47A     -0.495825    48A     -0.484033
      49A     -0.471516    50A     -0.459638    51A     -0.457888
      52A     -0.443298

  @DF-RHF Final Energy:  -758.49255317402287

   => Energetics <=

    Nuclear Repulsion Energy =            916.8387185469102860
    One-Electron Energy =               -2865.1394821445669550
    Two-Electron Energy =                1189.8082104236336818
    Total Energy =                       -758.4925531740229872
  Basis Set: (AUG-CC-PVTZ AUX)
    Blend: AUG-CC-PVTZ-RI
    Molecular point group: c1

    Geometry (in Angstrom), charge = 0, multiplicity = 1:

       Center              X                  Y                   Z               Mass
    ------------   -----------------  -----------------  -----------------  -----------------
         O           -1.400490728750    -1.702295627875    -1.053708409654    15.994914619570
         O            1.286770271250    -1.500254627875    -0.871100409654    15.994914619570
         O           -3.058582728750    -0.687660627875     0.796167590346    15.994914619570
         O            1.361786271250    -0.360259627875     1.788168590346    15.994914619570
         O           -3.431827728750     1.810279372125    -0.139647409654    15.994914619570
         O            2.568705271250     1.549121372125    -0.998827409654    15.994914619570
         O            3.654166271250     0.141484372125     0.420981590346    15.994914619570
         C           -0.859487728750    -0.955418627875     0.042707590346    12.000000000000
         C            0.457319271250    -0.407898627875    -0.481006409654    12.000000000000
         C           -1.881014728750     0.072902372125     0.510674590346    12.000000000000
         C            1.247820271250     0.356932372125     0.578716590346    12.000000000000
         C           -2.230661728750     1.126567372125    -0.532638409654    12.000000000000
         C            2.628031271250     0.657510372125     0.020203590346    12.000000000000
         H           -0.638479728750    -1.623811627875     0.884507590346     1.007825032230
         H            0.305013371250     0.132296372125    -1.185266709654     1.007825032230
         H           -1.515982728750     0.558624372125     1.430776590346     1.007825032230
         H            0.746558271250     1.304764372125     0.805997590346     1.007825032230
         H           -2.463948728750     0.633856372125    -1.477807409654     1.007825032230
         H           -1.407636728750     1.833816372125    -0.694422409654     1.007825032230
         H           -2.281983728750    -1.989245627875    -0.743491409654     1.007825032230
         H            0.699978271250    -2.105373627875    -1.365083409654     1.007825032230
         H           -3.793830728750    -0.046434627875     0.719052590346     1.007825032230
         H            2.096928271250    -0.989006627875     1.649925590346     1.007825032230
         H           -3.197127728750     2.422623372125     0.579665590346     1.007825032230
         H            3.485316271250     1.636463372125    -1.334865409654     1.007825032230

  Basis Set: AUG-CC-PVTZ
    Blend: AUG-CC-PVTZ
  Basis Set: (AUG-CC-PVTZ AUX)
    Blend: AUG-CC-PVTZ-JKFIT
	 Reference Energy          =    -758.4925531740228735 [Eh]
	 Singles Energy            =      -0.0000000000000000 [Eh]
	 Same-Spin Energy          =      -0.7338491696036599 [Eh]
	 Opposite-Spin Energy      =      -2.2297838768618519 [Eh]
	 Correlation Energy        =      -2.9636330464655116 [Eh]
	 Total Energy              =    -761.4561862204883482 [Eh]

	 ================> DF-SCS-MP2 Energies <==================
	-----------------------------------------------------------
	 SCS Same-Spin Scale       =       0.3333333333333333 [-]
	 SCS Opposite-Spin Scale   =       1.2000000000000000 [-]
	 SCS Same-Spin Energy      =      -0.2446163898678866 [Eh]
	 SCS Opposite-Spin Energy  =      -2.6757406522342220 [Eh]
	 SCS Correlation Energy    =      -2.9203570421021086 [Eh]
	 SCS Total Energy          =    -761.4129102161249421 [Eh]
	-----------------------------------------------------------

  Dipole Moment: [D]
     X:    -1.2603      Y:     2.7522      Z:    -0.8269     Total:     3.1380

*** Psi4 exiting successfully. Buy a developer a beer!
