                               Psi4 1.4a3.dev225

  ==> Input File <==

--------------------------------------------------------------------------
#psi4
#
memory 32 gb

molecule  {
0 1
  O       -1.3621950    -1.7118670    -1.0487160
  O        1.3250660    -1.5098260    -0.8661080
  O       -3.0202870    -0.6972320     0.8011600
  O        1.4000820    -0.3698310     1.7931610
  O       -3.3935320     1.8007080    -0.1346550
  O        2.6070010     1.5395500    -0.9938350
  O        3.6924620     0.1319130     0.4259740
  C       -0.8211920    -0.9649900     0.0477000
  C        0.4956150    -0.4174700    -0.4760140
  C       -1.8427190     0.0633310     0.5156670
  C        1.2861160     0.3473610     0.5837090
  C       -2.2090848     1.1265124    -0.5221760
  C        2.6663270     0.6479390     0.0251960
  H       -0.6001840    -1.6333830     0.8895000
  H        0.3094840     0.2426950    -1.3366810
  H       -1.4776870     0.5490530     1.4357690
  H        0.7848540     1.2951930     0.8109900
  H       -2.4256530     0.6242850    -1.4728150
  H       -1.3693410     1.8242450    -0.6894300
  H       -2.2436880    -1.9988170    -0.7384990
  H        0.7382740    -2.1149450    -1.3600910
  H       -3.7555350    -0.0560060     0.7240450
  H        2.1352240    -0.9985780     1.6549180
  H       -3.1588320     2.4130520     0.5846580
  H        3.5236120     1.6268920    -1.3298730
units angstrom
no_reorient  #important for SAPT in psi4, default
symmetry c1  #important for SAPT in psi4, default
}

set PROPERTIES_ORIGIN ["COM"]
properties('MP2/aug-cc-pvtz', properties = ['dipole'])
--------------------------------------------------------------------------

    Molecular point group: c1
  Charge       = 0
  Multiplicity = 1
  Basis Set: AUG-CC-PVTZ
    Blend: AUG-CC-PVTZ
  Basis Set: (AUG-CC-PVTZ AUX)
    Blend: AUG-CC-PVTZ-JKFIT

    Orbital Energies [Eh]
    ---------------------

    Doubly Occupied:

       1A    -20.631212     2A    -20.594218     3A    -20.574876
       4A    -20.574527     5A    -20.572744     6A    -20.570117
       7A    -20.564864     8A    -11.401651     9A    -11.317932
      10A    -11.303977    11A    -11.301712    12A    -11.300536
      13A    -11.295684    14A     -1.476056    15A     -1.409987
      16A     -1.398037    17A     -1.385159    18A     -1.370572
      19A     -1.362735    20A     -1.350615    21A     -1.079358
      22A     -1.026744    23A     -0.960441    24A     -0.887925
      25A     -0.830442    26A     -0.802621    27A     -0.758314
      28A     -0.736500    29A     -0.725471    30A     -0.717165
      31A     -0.712363    32A     -0.683775    33A     -0.676270
      34A     -0.649734    35A     -0.640180    36A     -0.636704
      37A     -0.630021    38A     -0.606913    39A     -0.605015
      40A     -0.580877    41A     -0.553117    42A     -0.550931
      43A     -0.539307    44A     -0.532875    45A     -0.530654
      46A     -0.501905    47A     -0.495494    48A     -0.484278
      49A     -0.465300    50A     -0.459736    51A     -0.454834
      52A     -0.441596

  @DF-RHF Final Energy:  -758.52362365015983

   => Energetics <=

    Nuclear Repulsion Energy =            915.5150064044962619
    One-Electron Energy =               -2862.6491149277267141
    Two-Electron Energy =                1188.6104848730706181
    Total Energy =                       -758.5236236501598341
  Basis Set: (AUG-CC-PVTZ AUX)
    Blend: AUG-CC-PVTZ-RI
    Molecular point group: c1

    Geometry (in Angstrom), charge = 0, multiplicity = 1:

       Center              X                  Y                   Z               Mass
    ------------   -----------------  -----------------  -----------------  -----------------
         O           -1.399293557403    -1.703494789378    -1.053239209492    15.994914619570
         O            1.287967442597    -1.501453789378    -0.870631209492    15.994914619570
         O           -3.057385557403    -0.688859789378     0.796636790508    15.994914619570
         O            1.362983442597    -0.361458789378     1.788637790508    15.994914619570
         O           -3.430630557403     1.809080210622    -0.139178209492    15.994914619570
         O            2.569902442597     1.547922210622    -0.998358209492    15.994914619570
         O            3.655363442597     0.140285210622     0.421450790508    15.994914619570
         C           -0.858290557403    -0.956617789378     0.043176790508    12.000000000000
         C            0.458516442597    -0.409097789378    -0.480537209492    12.000000000000
         C           -1.879817557403     0.071703210622     0.511143790508    12.000000000000
         C            1.249017442597     0.355733210622     0.579185790508    12.000000000000
         C           -2.246183357403     1.134884610622    -0.526699209492    12.000000000000
         C            2.629228442597     0.656311210622     0.020672790508    12.000000000000
         H           -0.637282557403    -1.625010789378     0.884976790508     1.007825032230
         H            0.272385442597     0.251067210622    -1.341204209492     1.007825032230
         H           -1.514785557403     0.557425210622     1.431245790508     1.007825032230
         H            0.747755442597     1.303565210622     0.806466790508     1.007825032230
         H           -2.462751557403     0.632657210622    -1.477338209492     1.007825032230
         H           -1.406439557403     1.832617210622    -0.693953209492     1.007825032230
         H           -2.280786557403    -1.990444789378    -0.743022209492     1.007825032230
         H            0.701175442597    -2.106572789378    -1.364614209492     1.007825032230
         H           -3.792633557403    -0.047633789378     0.719521790508     1.007825032230
         H            2.098125442597    -0.990205789378     1.650394790508     1.007825032230
         H           -3.195930557403     2.421424210622     0.580134790508     1.007825032230
         H            3.486513442597     1.635264210622    -1.334396209492     1.007825032230

  Basis Set: AUG-CC-PVTZ
    Blend: AUG-CC-PVTZ
  Basis Set: (AUG-CC-PVTZ AUX)
    Blend: AUG-CC-PVTZ-JKFIT
	 Reference Energy          =    -758.5236236501598341 [Eh]
	 Singles Energy            =      -0.0000000000000000 [Eh]
	 Same-Spin Energy          =      -0.7342501092066488 [Eh]
	 Opposite-Spin Energy      =      -2.2306677115134330 [Eh]
	 Correlation Energy        =      -2.9649178207200819 [Eh]
	 Total Energy              =    -761.4885414708799090 [Eh]

	 ================> DF-SCS-MP2 Energies <==================
	-----------------------------------------------------------
	 SCS Same-Spin Scale       =       0.3333333333333333 [-]
	 SCS Opposite-Spin Scale   =       1.2000000000000000 [-]
	 SCS Same-Spin Energy      =      -0.2447500364022163 [Eh]
	 SCS Opposite-Spin Energy  =      -2.6768012538161194 [Eh]
	 SCS Correlation Energy    =      -2.9215512902183356 [Eh]
	 SCS Total Energy          =    -761.4451749403781378 [Eh]
	-----------------------------------------------------------

  Dipole Moment: [D]
     X:    -1.2745      Y:     2.7166      Z:    -0.7878     Total:     3.1024

*** Psi4 exiting successfully. Buy a developer a beer!
