                               Psi4 1.4a3.dev225

  ==> Input File <==

--------------------------------------------------------------------------
#psi4
#
memory 32 gb

molecule  {
0 1
  O       -1.3621950    -1.7118670    -1.0487160
  O        1.3250660    -1.5098260    -0.8661080
  O       -3.0202870    -0.6972320     0.8011600
  O        1.4000820    -0.3698310     1.7931610
  O       -3.3935320     1.8007080    -0.1346550
  O        2.6070010     1.5395500    -0.9938350
  O        3.6924620     0.1319130     0.4259740
  C       -0.8211920    -0.9649900     0.0477000
  C        0.4089386    -0.4535095    -0.4415415
  C       -1.8427190     0.0633310     0.5156670
  C        1.2861160     0.3473610     0.5837090
  C       -2.1923660     1.1169960    -0.5276460
  C        2.6663270     0.6479390     0.0251960
  H       -0.6001840    -1.6333830     0.8895000
  H        0.3094840     0.2426950    -1.3366810
  H       -1.4776870     0.5490530     1.4357690
  H        0.7848540     1.2951930     0.8109900
  H       -2.4256530     0.6242850    -1.4728150
  H       -1.3693410     1.8242450    -0.6894300
  H       -2.2436880    -1.9988170    -0.7384990
  H        0.7382740    -2.1149450    -1.3600910
  H       -3.7555350    -0.0560060     0.7240450
  H        2.1352240    -0.9985780     1.6549180
  H       -3.1588320     2.4130520     0.5846580
  H        3.5236120     1.6268920    -1.3298730
units angstrom
no_reorient  #important for SAPT in psi4, default
symmetry c1  #important for SAPT in psi4, default
}

set PROPERTIES_ORIGIN ["COM"]
properties('MP2/aug-cc-pvtz', properties = ['dipole'])
--------------------------------------------------------------------------

    Molecular point group: c1
  Charge       = 0
  Multiplicity = 1
  Basis Set: AUG-CC-PVTZ
    Blend: AUG-CC-PVTZ
  Basis Set: (AUG-CC-PVTZ AUX)
    Blend: AUG-CC-PVTZ-JKFIT

    Orbital Energies [Eh]
    ---------------------

    Doubly Occupied:

       1A    -20.631317     2A    -20.593010     3A    -20.577186
       4A    -20.574909     5A    -20.573081     6A    -20.568774
       7A    -20.565555     8A    -11.403293     9A    -11.319922
      10A    -11.305574    11A    -11.305220    12A    -11.301491
      13A    -11.293587    14A     -1.475946    15A     -1.409499
      16A     -1.394507    17A     -1.384675    18A     -1.367790
      19A     -1.361959    20A     -1.346861    21A     -1.090277
      22A     -1.023094    23A     -0.973719    24A     -0.888343
      25A     -0.834123    26A     -0.797335    27A     -0.757024
      28A     -0.738582    29A     -0.724688    30A     -0.716360
      31A     -0.713774    32A     -0.684200    33A     -0.675084
      34A     -0.645877    35A     -0.638614    36A     -0.635825
      37A     -0.627282    38A     -0.604920    39A     -0.602714
      40A     -0.582088    41A     -0.553929    42A     -0.552322
      43A     -0.538991    44A     -0.534912    45A     -0.531664
      46A     -0.503983    47A     -0.495413    48A     -0.483073
      49A     -0.469127    50A     -0.463677    51A     -0.449137
      52A     -0.447105

  @DF-RHF Final Energy:  -758.51010261584213

   => Energetics <=

    Nuclear Repulsion Energy =            916.0222919562762627
    One-Electron Energy =               -2863.6019669769525535
    Two-Electron Energy =                1189.0695724048341617
    Total Energy =                       -758.5101026158422428
  Basis Set: (AUG-CC-PVTZ AUX)
    Blend: AUG-CC-PVTZ-RI
    Molecular point group: c1

    Geometry (in Angstrom), charge = 0, multiplicity = 1:

       Center              X                  Y                   Z               Mass
    ------------   -----------------  -----------------  -----------------  -----------------
         O           -1.395011712725    -1.700706482062    -1.055014344720    15.994914619570
         O            1.292249287275    -1.498665482062    -0.872406344720    15.994914619570
         O           -3.053103712725    -0.686071482062     0.794861655280    15.994914619570
         O            1.367265287275    -0.358670482062     1.786862655280    15.994914619570
         O           -3.426348712725     1.811868517938    -0.140953344720    15.994914619570
         O            2.574184287275     1.550710517938    -1.000133344720    15.994914619570
         O            3.659645287275     0.143073517938     0.419675655280    15.994914619570
         C           -0.854008712725    -0.953829482062     0.041401655280    12.000000000000
         C            0.376121887275    -0.442348982062    -0.447839844720    12.000000000000
         C           -1.875535712725     0.074491517938     0.509368655280    12.000000000000
         C            1.253299287275     0.358521517938     0.577410655280    12.000000000000
         C           -2.225182712725     1.128156517938    -0.533944344720    12.000000000000
         C            2.633510287275     0.659099517938     0.018897655280    12.000000000000
         H           -0.633000712725    -1.622222482062     0.883201655280     1.007825032230
         H            0.276667287275     0.253855517938    -1.342979344720     1.007825032230
         H           -1.510503712725     0.560213517938     1.429470655280     1.007825032230
         H            0.752037287275     1.306353517938     0.804691655280     1.007825032230
         H           -2.458469712725     0.635445517938    -1.479113344720     1.007825032230
         H           -1.402157712725     1.835405517938    -0.695728344720     1.007825032230
         H           -2.276504712725    -1.987656482062    -0.744797344720     1.007825032230
         H            0.705457287275    -2.103784482062    -1.366389344720     1.007825032230
         H           -3.788351712725    -0.044845482062     0.717746655280     1.007825032230
         H            2.102407287275    -0.987417482062     1.648619655280     1.007825032230
         H           -3.191648712725     2.424212517938     0.578359655280     1.007825032230
         H            3.490795287275     1.638052517938    -1.336171344720     1.007825032230

  Basis Set: AUG-CC-PVTZ
    Blend: AUG-CC-PVTZ
  Basis Set: (AUG-CC-PVTZ AUX)
    Blend: AUG-CC-PVTZ-JKFIT
	 Reference Energy          =    -758.5101026158421291 [Eh]
	 Singles Energy            =      -0.0000000000000000 [Eh]
	 Same-Spin Energy          =      -0.7353865951240385 [Eh]
	 Opposite-Spin Energy      =      -2.2331881427251274 [Eh]
	 Correlation Energy        =      -2.9685747378491660 [Eh]
	 Total Energy              =    -761.4786773536912960 [Eh]

	 ================> DF-SCS-MP2 Energies <==================
	-----------------------------------------------------------
	 SCS Same-Spin Scale       =       0.3333333333333333 [-]
	 SCS Opposite-Spin Scale   =       1.2000000000000000 [-]
	 SCS Same-Spin Energy      =      -0.2451288650413462 [Eh]
	 SCS Opposite-Spin Energy  =      -2.6798257712701528 [Eh]
	 SCS Correlation Energy    =      -2.9249546363114991 [Eh]
	 SCS Total Energy          =    -761.4350572521536833 [Eh]
	-----------------------------------------------------------

  Dipole Moment: [D]
     X:    -1.3387      Y:     2.6929      Z:    -0.7336     Total:     3.0955

*** Psi4 exiting successfully. Buy a developer a beer!
