                               Psi4 1.4a3.dev225

  ==> Input File <==

--------------------------------------------------------------------------
#psi4
#
memory 32 gb

molecule  {
0 1
  O       -1.3621950    -1.7118670    -1.0487160
  O        1.3250660    -1.5098260    -0.8661080
  O       -3.0202870    -0.6972320     0.8011600
  O        1.4000820    -0.3698310     1.7931610
  O       -3.3935320     1.8007080    -0.1346550
  O        2.6070010     1.5395500    -0.9938350
  O        3.6924620     0.1319130     0.4259740
  C       -0.8211920    -0.9649900     0.0477000
  C        0.4956150    -0.4174700    -0.4760140
  C       -1.8427190     0.0633310     0.5156670
  C        1.2861160     0.3473610     0.5837090
  C       -2.1923660     1.1169960    -0.5276460
  C        2.6663270     0.6479390     0.0251960
  H       -0.6001840    -1.6333830     0.8895000
  H        0.3094840     0.2426950    -1.3366810
  H       -1.4776870     0.5490530     1.4357690
  H        0.7848540     1.2951930     0.8109900
  H       -2.4256530     0.6242850    -1.4728150
  H       -1.3693410     1.8242450    -0.6894300
  H       -2.2436880    -1.9988170    -0.7384990
  H        0.7382740    -2.1149450    -1.3600910
  H       -3.7555350    -0.0560060     0.7240450
  H        2.1352240    -0.9985780     1.6549180
  H       -3.2070559     2.2872334     0.4368604
  H        3.5236120     1.6268920    -1.3298730
units angstrom
no_reorient  #important for SAPT in psi4, default
symmetry c1  #important for SAPT in psi4, default
}

set PROPERTIES_ORIGIN ["COM"]
properties('MP2/aug-cc-pvtz', properties = ['dipole'])
--------------------------------------------------------------------------

    Molecular point group: c1
  Charge       = 0
  Multiplicity = 1
  Basis Set: AUG-CC-PVTZ
    Blend: AUG-CC-PVTZ
  Basis Set: (AUG-CC-PVTZ AUX)
    Blend: AUG-CC-PVTZ-JKFIT

    Orbital Energies [Eh]
    ---------------------

    Doubly Occupied:

       1A    -20.631754     2A    -20.576657     3A    -20.575177
       4A    -20.574035     5A    -20.571058     6A    -20.570455
       7A    -20.565413     8A    -11.402236     9A    -11.318708
      10A    -11.305094    11A    -11.303818    12A    -11.302858
      13A    -11.296900    14A     -1.476608    15A     -1.451699
      16A     -1.403503    17A     -1.389948    18A     -1.374661
      19A     -1.364253    20A     -1.352635    21A     -1.082814
      22A     -1.033627    23A     -0.971466    24A     -0.896067
      25A     -0.833198    26A     -0.806982    27A     -0.766200
      28A     -0.741286    29A     -0.734006    30A     -0.726519
      31A     -0.713635    32A     -0.688812    33A     -0.678131
      34A     -0.650495    35A     -0.642345    36A     -0.638038
      37A     -0.631966    38A     -0.607644    39A     -0.606576
      40A     -0.581893    41A     -0.557054    42A     -0.553365
      43A     -0.542000    44A     -0.537891    45A     -0.533125
      46A     -0.508019    47A     -0.496039    48A     -0.485128
      49A     -0.467855    50A     -0.461389    51A     -0.456422
      52A     -0.444620

  @DF-RHF Final Energy:  -758.47746467948070

   => Energetics <=

    Nuclear Repulsion Energy =            917.0187370465215508
    One-Electron Energy =               -2865.2282480449102877
    Two-Electron Energy =                1189.7320463189082602
    Total Energy =                       -758.4774646794805903
  Basis Set: (AUG-CC-PVTZ AUX)
    Blend: AUG-CC-PVTZ-RI
    Molecular point group: c1

    Geometry (in Angstrom), charge = 0, multiplicity = 1:

       Center              X                  Y                   Z               Mass
    ------------   -----------------  -----------------  -----------------  -----------------
         O           -1.400068961169    -1.702265563524    -1.052144667113    15.994914619570
         O            1.287192038831    -1.500224563524    -0.869536667113    15.994914619570
         O           -3.058160961169    -0.687630563524     0.797731332887    15.994914619570
         O            1.362208038831    -0.360229563524     1.789732332887    15.994914619570
         O           -3.431405961169     1.810309436476    -0.138083667113    15.994914619570
         O            2.569127038831     1.549151436476    -0.997263667113    15.994914619570
         O            3.654588038831     0.141514436476     0.422545332887    15.994914619570
         C           -0.859065961169    -0.955388563524     0.044271332887    12.000000000000
         C            0.457741038831    -0.407868563524    -0.479442667113    12.000000000000
         C           -1.880592961169     0.072932436476     0.512238332887    12.000000000000
         C            1.248242038831     0.356962436476     0.580280332887    12.000000000000
         C           -2.230239961169     1.126597436476    -0.531074667113    12.000000000000
         C            2.628453038831     0.657540436476     0.021767332887    12.000000000000
         H           -0.638057961169    -1.623781563524     0.886071332887     1.007825032230
         H            0.271610038831     0.252296436476    -1.340109667113     1.007825032230
         H           -1.515560961169     0.558654436476     1.432340332887     1.007825032230
         H            0.746980038831     1.304794436476     0.807561332887     1.007825032230
         H           -2.463526961169     0.633886436476    -1.476243667113     1.007825032230
         H           -1.407214961169     1.833846436476    -0.692858667113     1.007825032230
         H           -2.281561961169    -1.989215563524    -0.741927667113     1.007825032230
         H            0.700400038831    -2.105343563524    -1.363519667113     1.007825032230
         H           -3.793408961169    -0.046404563524     0.720616332887     1.007825032230
         H            2.097350038831    -0.988976563524     1.651489332887     1.007825032230
         H           -3.244929861169     2.296834836476     0.433431732887     1.007825032230
         H            3.485738038831     1.636493436476    -1.333301667113     1.007825032230

  Basis Set: AUG-CC-PVTZ
    Blend: AUG-CC-PVTZ
  Basis Set: (AUG-CC-PVTZ AUX)
    Blend: AUG-CC-PVTZ-JKFIT
	 Reference Energy          =    -758.4774646794807040 [Eh]
	 Singles Energy            =      -0.0000000000000000 [Eh]
	 Same-Spin Energy          =      -0.7320540521351936 [Eh]
	 Opposite-Spin Energy      =      -2.2255142671264116 [Eh]
	 Correlation Energy        =      -2.9575683192616053 [Eh]
	 Total Energy              =    -761.4350329987422583 [Eh]

	 ================> DF-SCS-MP2 Energies <==================
	-----------------------------------------------------------
	 SCS Same-Spin Scale       =       0.3333333333333333 [-]
	 SCS Opposite-Spin Scale   =       1.2000000000000000 [-]
	 SCS Same-Spin Energy      =      -0.2440180173783978 [Eh]
	 SCS Opposite-Spin Energy  =      -2.6706171205516940 [Eh]
	 SCS Correlation Energy    =      -2.9146351379300919 [Eh]
	 SCS Total Energy          =    -761.3920998174107808 [Eh]
	-----------------------------------------------------------

  Dipole Moment: [D]
     X:    -1.1745      Y:     2.5151      Z:    -0.9235     Total:     2.9254

*** Psi4 exiting successfully. Buy a developer a beer!
