                               Psi4 1.4a3.dev225

  ==> Input File <==

--------------------------------------------------------------------------
#psi4
#
memory 32 gb

molecule  {
0 1
  O       -1.3621950    -1.7118670    -1.0487160
  O        1.3250660    -1.5098260    -0.8661080
  O       -3.0202870    -0.6972320     0.8011600
  O        1.4000820    -0.3698310     1.7931610
  O       -3.3935320     1.8007080    -0.1346550
  O        2.6070010     1.5395500    -0.9938350
  O        3.6924620     0.1319130     0.4259740
  C       -0.8211920    -0.9649900     0.0477000
  C        0.4956150    -0.4174700    -0.4760140
  C       -1.8427190     0.0633310     0.5156670
  C        1.2861160     0.3473610     0.5837090
  C       -2.1923660     1.1169960    -0.5276460
  C        2.6663270     0.6479390     0.0251960
  H       -0.6001840    -1.6333830     0.8895000
  H        0.3094840     0.2426950    -1.3366810
  H       -1.4776870     0.5490530     1.4357690
  H        0.7848540     1.2951930     0.8109900
  H       -2.4256530     0.6242850    -1.4728150
  H       -1.3693410     1.8242450    -0.6894300
  H       -2.2436880    -1.9988170    -0.7384990
  H        0.7082435    -2.1459135    -1.3853718
  H       -3.7555350    -0.0560060     0.7240450
  H        2.1352240    -0.9985780     1.6549180
  H       -3.1588320     2.4130520     0.5846580
  H        3.5236120     1.6268920    -1.3298730
units angstrom
no_reorient  #important for SAPT in psi4, default
symmetry c1  #important for SAPT in psi4, default
}

set PROPERTIES_ORIGIN ["COM"]
properties('MP2/aug-cc-pvtz', properties = ['dipole'])
--------------------------------------------------------------------------

    Molecular point group: c1
  Charge       = 0
  Multiplicity = 1
  Basis Set: AUG-CC-PVTZ
    Blend: AUG-CC-PVTZ
  Basis Set: (AUG-CC-PVTZ AUX)
    Blend: AUG-CC-PVTZ-JKFIT

    Orbital Energies [Eh]
    ---------------------

    Doubly Occupied:

       1A    -20.631126     2A    -20.591975     3A    -20.575236
       4A    -20.574420     5A    -20.573639     6A    -20.573181
       7A    -20.564760     8A    -11.401571     9A    -11.317881
      10A    -11.303561    11A    -11.302103    12A    -11.300343
      13A    -11.295626    14A     -1.475944    15A     -1.407011
      16A     -1.394523    17A     -1.383012    18A     -1.367563
      19A     -1.360851    20A     -1.346870    21A     -1.078816
      22A     -1.027364    23A     -0.960854    24A     -0.886937
      25A     -0.830403    26A     -0.800211    27A     -0.756059
      28A     -0.736292    29A     -0.724729    30A     -0.715176
      31A     -0.712036    32A     -0.682695    33A     -0.673567
      34A     -0.648743    35A     -0.639770    36A     -0.634568
      37A     -0.627406    38A     -0.606123    39A     -0.601744
      40A     -0.580140    41A     -0.552650    42A     -0.550100
      43A     -0.538202    44A     -0.533789    45A     -0.530048
      46A     -0.503214    47A     -0.495362    48A     -0.483738
      49A     -0.465746    50A     -0.459765    51A     -0.454463
      52A     -0.442509

  @DF-RHF Final Energy:  -758.51836866150848

   => Energetics <=

    Nuclear Repulsion Energy =            915.2847670050022089
    One-Electron Energy =               -2862.2574398668757567
    Two-Electron Energy =                1188.4543042003649589
    Total Energy =                       -758.5183686615084753
  Basis Set: (AUG-CC-PVTZ AUX)
    Blend: AUG-CC-PVTZ-RI
    Molecular point group: c1

    Geometry (in Angstrom), charge = 0, multiplicity = 1:

       Center              X                  Y                   Z               Mass
    ------------   -----------------  -----------------  -----------------  -----------------
         O           -1.400162483166    -1.702753134333    -1.052774456804    15.994914619570
         O            1.287098516834    -1.500712134333    -0.870166456804    15.994914619570
         O           -3.058254483166    -0.688118134333     0.797101543196    15.994914619570
         O            1.362114516834    -0.360717134333     1.789102543196    15.994914619570
         O           -3.431499483166     1.809821865667    -0.138713456804    15.994914619570
         O            2.569033516834     1.548663865667    -0.997893456804    15.994914619570
         O            3.654494516834     0.141026865667     0.421915543196    15.994914619570
         C           -0.859159483166    -0.955876134333     0.043641543196    12.000000000000
         C            0.457647516834    -0.408356134333    -0.480072456804    12.000000000000
         C           -1.880686483166     0.072444865667     0.511608543196    12.000000000000
         C            1.248148516834     0.356474865667     0.579650543196    12.000000000000
         C           -2.230333483166     1.126109865667    -0.531704456804    12.000000000000
         C            2.628359516834     0.657052865667     0.021137543196    12.000000000000
         H           -0.638151483166    -1.624269134333     0.885441543196     1.007825032230
         H            0.271516516834     0.251808865667    -1.340739456804     1.007825032230
         H           -1.515654483166     0.558166865667     1.431710543196     1.007825032230
         H            0.746886516834     1.304306865667     0.806931543196     1.007825032230
         H           -2.463620483166     0.633398865667    -1.476873456804     1.007825032230
         H           -1.407308483166     1.833358865667    -0.693488456804     1.007825032230
         H           -2.281655483166    -1.989703134333    -0.742557456804     1.007825032230
         H            0.670276016834    -2.136799634333    -1.389430256804     1.007825032230
         H           -3.793502483166    -0.046892134333     0.719986543196     1.007825032230
         H            2.097256516834    -0.989464134333     1.650859543196     1.007825032230
         H           -3.196799483166     2.422165865667     0.580599543196     1.007825032230
         H            3.485644516834     1.636005865667    -1.333931456804     1.007825032230

  Basis Set: AUG-CC-PVTZ
    Blend: AUG-CC-PVTZ
  Basis Set: (AUG-CC-PVTZ AUX)
    Blend: AUG-CC-PVTZ-JKFIT
	 Reference Energy          =    -758.5183686615084753 [Eh]
	 Singles Energy            =      -0.0000000000000000 [Eh]
	 Same-Spin Energy          =      -0.7350062742366060 [Eh]
	 Opposite-Spin Energy      =      -2.2326417631892164 [Eh]
	 Correlation Energy        =      -2.9676480374258225 [Eh]
	 Total Energy              =    -761.4860166989343497 [Eh]

	 ================> DF-SCS-MP2 Energies <==================
	-----------------------------------------------------------
	 SCS Same-Spin Scale       =       0.3333333333333333 [-]
	 SCS Opposite-Spin Scale   =       1.2000000000000000 [-]
	 SCS Same-Spin Energy      =      -0.2450020914122020 [Eh]
	 SCS Opposite-Spin Energy  =      -2.6791701158270596 [Eh]
	 SCS Correlation Energy    =      -2.9241722072392617 [Eh]
	 SCS Total Energy          =    -761.4425408687477557 [Eh]
	-----------------------------------------------------------

  Dipole Moment: [D]
     X:    -1.2499      Y:     2.6333      Z:    -0.8316     Total:     3.0312

*** Psi4 exiting successfully. Buy a developer a beer!
