                               Psi4 1.4a3.dev225

  ==> Input File <==

--------------------------------------------------------------------------
#psi4
#
memory 32 gb

molecule  {
0 1
  O       -1.3621950    -1.7118670    -1.0487160
  O        1.3250660    -1.5098260    -0.8661080
  O       -3.0202870    -0.6972320     0.8011600
  O        1.4000820    -0.3698310     1.7931610
  O       -3.3935320     1.8007080    -0.1346550
  O        2.6070010     1.5395500    -0.9938350
  O        3.6924620     0.1319130     0.4259740
  C       -0.8211920    -0.9649900     0.0477000
  C        0.4956150    -0.4174700    -0.4760140
  C       -1.8427190     0.0633310     0.5156670
  C        1.2861160     0.3473610     0.5837090
  C       -2.2382674     1.2553202    -0.6646112
  C        2.6663270     0.6479390     0.0251960
  H       -0.6001840    -1.6333830     0.8895000
  H        0.3094840     0.2426950    -1.3366810
  H       -1.4776870     0.5490530     1.4357690
  H        0.7848540     1.2951930     0.8109900
  H       -2.4256530     0.6242850    -1.4728150
  H       -1.3693410     1.8242450    -0.6894300
  H       -2.2436880    -1.9988170    -0.7384990
  H        0.7382740    -2.1149450    -1.3600910
  H       -3.7555350    -0.0560060     0.7240450
  H        2.1352240    -0.9985780     1.6549180
  H       -3.1588320     2.4130520     0.5846580
  H        3.5236120     1.6268920    -1.3298730
units angstrom
no_reorient  #important for SAPT in psi4, default
symmetry c1  #important for SAPT in psi4, default
}

set PROPERTIES_ORIGIN ["COM"]
properties('MP2/aug-cc-pvtz', properties = ['dipole'])
--------------------------------------------------------------------------

    Molecular point group: c1
  Charge       = 0
  Multiplicity = 1
  Basis Set: AUG-CC-PVTZ
    Blend: AUG-CC-PVTZ
  Basis Set: (AUG-CC-PVTZ AUX)
    Blend: AUG-CC-PVTZ-JKFIT

    Orbital Energies [Eh]
    ---------------------

    Doubly Occupied:

       1A    -20.630616     2A    -20.598803     3A    -20.573086
       4A    -20.573031     5A    -20.569972     6A    -20.568239
       7A    -20.564023     8A    -11.400755     9A    -11.316718
      10A    -11.301843    11A    -11.301462    12A    -11.300287
      13A    -11.290373    14A     -1.475351    15A     -1.414327
      16A     -1.398607    17A     -1.385028    18A     -1.369698
      19A     -1.361425    20A     -1.348020    21A     -1.071813
      22A     -1.012756    23A     -0.955961    24A     -0.891154
      25A     -0.828831    26A     -0.799854    27A     -0.756799
      28A     -0.737586    29A     -0.731815    30A     -0.720707
      31A     -0.707105    32A     -0.678905    33A     -0.673669
      34A     -0.648373    35A     -0.639859    36A     -0.637739
      37A     -0.627252    38A     -0.616008    39A     -0.605356
      40A     -0.579692    41A     -0.560104    42A     -0.549291
      43A     -0.543230    44A     -0.536932    45A     -0.530483
      46A     -0.505051    47A     -0.494719    48A     -0.482694
      49A     -0.460147    50A     -0.454104    51A     -0.450165
      52A     -0.404532

  @DF-RHF Final Energy:  -758.49647061739961

   => Energetics <=

    Nuclear Repulsion Energy =            912.4505749906957135
    One-Electron Energy =               -2856.6253942504363295
    Two-Electron Energy =                1185.6783486423410068
    Total Energy =                       -758.4964706173996092
  Basis Set: (AUG-CC-PVTZ AUX)
    Blend: AUG-CC-PVTZ-RI
    Molecular point group: c1

    Geometry (in Angstrom), charge = 0, multiplicity = 1:

       Center              X                  Y                   Z               Mass
    ------------   -----------------  -----------------  -----------------  -----------------
         O           -1.397507398923    -1.711378636063    -1.044521280303    15.994914619570
         O            1.289753601077    -1.509337636063    -0.861913280303    15.994914619570
         O           -3.055599398923    -0.696743636063     0.805354719697    15.994914619570
         O            1.364769601077    -0.369342636063     1.797355719697    15.994914619570
         O           -3.428844398923     1.801196363937    -0.130460280303    15.994914619570
         O            2.571688601077     1.540038363937    -0.989640280303    15.994914619570
         O            3.657149601077     0.132401363937     0.430168719697    15.994914619570
         C           -0.856504398923    -0.964501636063     0.051894719697    12.000000000000
         C            0.460302601077    -0.416981636063    -0.471819280303    12.000000000000
         C           -1.878031398923     0.063819363937     0.519861719697    12.000000000000
         C            1.250803601077     0.347849363937     0.587903719697    12.000000000000
         C           -2.273579798923     1.255808563937    -0.660416480303    12.000000000000
         C            2.631014601077     0.648427363937     0.029390719697    12.000000000000
         H           -0.635496398923    -1.632894636063     0.893694719697     1.007825032230
         H            0.274171601077     0.243183363937    -1.332486280303     1.007825032230
         H           -1.512999398923     0.549541363937     1.439963719697     1.007825032230
         H            0.749541601077     1.295681363937     0.815184719697     1.007825032230
         H           -2.460965398923     0.624773363937    -1.468620280303     1.007825032230
         H           -1.404653398923     1.824733363937    -0.685235280303     1.007825032230
         H           -2.279000398923    -1.998328636063    -0.734304280303     1.007825032230
         H            0.702961601077    -2.114456636063    -1.355896280303     1.007825032230
         H           -3.790847398923    -0.055517636063     0.728239719697     1.007825032230
         H            2.099911601077    -0.998089636063     1.659112719697     1.007825032230
         H           -3.194144398923     2.413540363937     0.588852719697     1.007825032230
         H            3.488299601077     1.627380363937    -1.325678280303     1.007825032230

  Basis Set: AUG-CC-PVTZ
    Blend: AUG-CC-PVTZ
  Basis Set: (AUG-CC-PVTZ AUX)
    Blend: AUG-CC-PVTZ-JKFIT
	 Reference Energy          =    -758.4964706173996092 [Eh]
	 Singles Energy            =      -0.0000000000000000 [Eh]
	 Same-Spin Energy          =      -0.7344276341627760 [Eh]
	 Opposite-Spin Energy      =      -2.2317033894369245 [Eh]
	 Correlation Energy        =      -2.9661310235997007 [Eh]
	 Total Energy              =    -761.4626016409993099 [Eh]

	 ================> DF-SCS-MP2 Energies <==================
	-----------------------------------------------------------
	 SCS Same-Spin Scale       =       0.3333333333333333 [-]
	 SCS Opposite-Spin Scale   =       1.2000000000000000 [-]
	 SCS Same-Spin Energy      =      -0.2448092113875920 [Eh]
	 SCS Opposite-Spin Energy  =      -2.6780440673243091 [Eh]
	 SCS Correlation Energy    =      -2.9228532787119010 [Eh]
	 SCS Total Energy          =    -761.4193238961115640 [Eh]
	-----------------------------------------------------------

  Dipole Moment: [D]
     X:    -1.4749      Y:     2.9586      Z:    -0.8375     Total:     3.4103

*** Psi4 exiting successfully. Buy a developer a beer!
