                               Psi4 1.4a3.dev225

  ==> Input File <==

--------------------------------------------------------------------------
#psi4
#
memory 32 gb

molecule  {
0 1
  O       -1.3621950    -1.7118670    -1.0487160
  O        1.3250660    -1.5098260    -0.8661080
  O       -3.0202870    -0.6972320     0.8011600
  O        1.4000820    -0.3698310     1.7931610
  O       -3.3935320     1.8007080    -0.1346550
  O        2.6070010     1.5395500    -0.9938350
  O        3.6924620     0.1319130     0.4259740
  C       -0.8211920    -0.9649900     0.0477000
  C        0.4956150    -0.4174700    -0.4760140
  C       -1.8427190     0.0633310     0.5156670
  C        1.2861160     0.3473610     0.5837090
  C       -2.1923660     1.1169960    -0.5276460
  C        2.6663270     0.6479390     0.0251960
  H       -0.6001840    -1.6333830     0.8895000
  H        0.3061015     0.2546920    -1.3523217
  H       -1.4776870     0.5490530     1.4357690
  H        0.7848540     1.2951930     0.8109900
  H       -2.4256530     0.6242850    -1.4728150
  H       -1.3693410     1.8242450    -0.6894300
  H       -2.2436880    -1.9988170    -0.7384990
  H        0.7382740    -2.1149450    -1.3600910
  H       -3.7555350    -0.0560060     0.7240450
  H        2.1352240    -0.9985780     1.6549180
  H       -3.1588320     2.4130520     0.5846580
  H        3.5236120     1.6268920    -1.3298730
units angstrom
no_reorient  #important for SAPT in psi4, default
symmetry c1  #important for SAPT in psi4, default
}

set PROPERTIES_ORIGIN ["COM"]
properties('MP2/aug-cc-pvtz', properties = ['dipole'])
--------------------------------------------------------------------------

    Molecular point group: c1
  Charge       = 0
  Multiplicity = 1
  Basis Set: AUG-CC-PVTZ
    Blend: AUG-CC-PVTZ
  Basis Set: (AUG-CC-PVTZ AUX)
    Blend: AUG-CC-PVTZ-JKFIT

    Orbital Energies [Eh]
    ---------------------

    Doubly Occupied:

       1A    -20.631365     2A    -20.591954     3A    -20.575281
       4A    -20.574952     5A    -20.573111     6A    -20.570811
       7A    -20.565112     8A    -11.401911     9A    -11.318426
      10A    -11.306657    11A    -11.302224    12A    -11.300313
      13A    -11.296041    14A     -1.476253    15A     -1.407800
      16A     -1.396434    17A     -1.383724    18A     -1.369589
      19A     -1.362612    20A     -1.350677    21A     -1.079985
      22A     -1.028050    23A     -0.961199    24A     -0.887474
      25A     -0.830675    26A     -0.801938    27A     -0.757684
      28A     -0.736600    29A     -0.725180    30A     -0.715135
      31A     -0.711876    32A     -0.682876    33A     -0.676302
      34A     -0.649994    35A     -0.640172    36A     -0.636872
      37A     -0.628284    38A     -0.607075    39A     -0.601884
      40A     -0.580491    41A     -0.553269    42A     -0.550101
      43A     -0.539585    44A     -0.534229    45A     -0.531025
      46A     -0.503177    47A     -0.495718    48A     -0.484632
      49A     -0.465927    50A     -0.460098    51A     -0.455048
      52A     -0.442784

  @DF-RHF Final Energy:  -758.52288666564527

   => Energetics <=

    Nuclear Repulsion Energy =            915.4730504504215105
    One-Electron Energy =               -2862.5707057047616217
    Two-Electron Energy =                1188.5747685886949512
    Total Energy =                       -758.5228866656452738
  Basis Set: (AUG-CC-PVTZ AUX)
    Blend: AUG-CC-PVTZ-RI
    Molecular point group: c1

    Geometry (in Angstrom), charge = 0, multiplicity = 1:

       Center              X                  Y                   Z               Mass
    ------------   -----------------  -----------------  -----------------  -----------------
         O           -1.400299465488    -1.702973995708    -1.052824011115    15.994914619570
         O            1.286961534512    -1.500932995708    -0.870216011115    15.994914619570
         O           -3.058391465488    -0.688338995708     0.797051988885    15.994914619570
         O            1.361977534512    -0.360937995708     1.789052988885    15.994914619570
         O           -3.431636465488     1.809601004292    -0.138763011115    15.994914619570
         O            2.568896534512     1.548443004292    -0.997943011115    15.994914619570
         O            3.654357534512     0.140806004292     0.421865988885    15.994914619570
         C           -0.859296465488    -0.956096995708     0.043591988885    12.000000000000
         C            0.457510534512    -0.408576995708    -0.480122011115    12.000000000000
         C           -1.880823465488     0.072224004292     0.511558988885    12.000000000000
         C            1.248011534512     0.356254004292     0.579600988885    12.000000000000
         C           -2.230470465488     1.125889004292    -0.531754011115    12.000000000000
         C            2.628222534512     0.656832004292     0.021087988885    12.000000000000
         H           -0.638288465488    -1.624489995708     0.885391988885     1.007825032230
         H            0.267997034512     0.263585004292    -1.356429711115     1.007825032230
         H           -1.515791465488     0.557946004292     1.431660988885     1.007825032230
         H            0.746749534512     1.304086004292     0.806881988885     1.007825032230
         H           -2.463757465488     0.633178004292    -1.476923011115     1.007825032230
         H           -1.407445465488     1.833138004292    -0.693538011115     1.007825032230
         H           -2.281792465488    -1.989923995708    -0.742607011115     1.007825032230
         H            0.700169534512    -2.106051995708    -1.364199011115     1.007825032230
         H           -3.793639465488    -0.047112995708     0.719936988885     1.007825032230
         H            2.097119534512    -0.989684995708     1.650809988885     1.007825032230
         H           -3.196936465488     2.421945004292     0.580549988885     1.007825032230
         H            3.485507534512     1.635785004292    -1.333981011115     1.007825032230

  Basis Set: AUG-CC-PVTZ
    Blend: AUG-CC-PVTZ
  Basis Set: (AUG-CC-PVTZ AUX)
    Blend: AUG-CC-PVTZ-JKFIT
	 Reference Energy          =    -758.5228866656452738 [Eh]
	 Singles Energy            =      -0.0000000000000000 [Eh]
	 Same-Spin Energy          =      -0.7343826707743869 [Eh]
	 Opposite-Spin Energy      =      -2.2312114750847547 [Eh]
	 Correlation Energy        =      -2.9655941458591415 [Eh]
	 Total Energy              =    -761.4884808115043597 [Eh]

	 ================> DF-SCS-MP2 Energies <==================
	-----------------------------------------------------------
	 SCS Same-Spin Scale       =       0.3333333333333333 [-]
	 SCS Opposite-Spin Scale   =       1.2000000000000000 [-]
	 SCS Same-Spin Energy      =      -0.2447942235914623 [Eh]
	 SCS Opposite-Spin Energy  =      -2.6774537701017054 [Eh]
	 SCS Correlation Energy    =      -2.9222479936931678 [Eh]
	 SCS Total Energy          =    -761.4451346593384642 [Eh]
	-----------------------------------------------------------

  Dipole Moment: [D]
     X:    -1.2073      Y:     2.6650      Z:    -0.7982     Total:     3.0327

*** Psi4 exiting successfully. Buy a developer a beer!
