                               Psi4 1.4a3.dev225

  ==> Input File <==

--------------------------------------------------------------------------
#psi4
#
memory 32 gb

molecule  {
0 1
  O       -1.3621950    -1.7118670    -1.0487160
  O        1.3250660    -1.5098260    -0.8661080
  O       -3.0202870    -0.6972320     0.8011600
  O        1.4000820    -0.3698310     1.7931610
  O       -3.3935320     1.8007080    -0.1346550
  O        2.6070010     1.5395500    -0.9938350
  O        3.6924620     0.1319130     0.4259740
  C       -0.8589530    -1.0171206    -0.0288278
  C        0.4956150    -0.4174700    -0.4760140
  C       -1.8427190     0.0633310     0.5156670
  C        1.2861160     0.3473610     0.5837090
  C       -2.1923660     1.1169960    -0.5276460
  C        2.6663270     0.6479390     0.0251960
  H       -0.6001840    -1.6333830     0.8895000
  H        0.3094840     0.2426950    -1.3366810
  H       -1.4776870     0.5490530     1.4357690
  H        0.7848540     1.2951930     0.8109900
  H       -2.4256530     0.6242850    -1.4728150
  H       -1.3693410     1.8242450    -0.6894300
  H       -2.2436880    -1.9988170    -0.7384990
  H        0.7382740    -2.1149450    -1.3600910
  H       -3.7555350    -0.0560060     0.7240450
  H        2.1352240    -0.9985780     1.6549180
  H       -3.1588320     2.4130520     0.5846580
  H        3.5236120     1.6268920    -1.3298730
units angstrom
no_reorient  #important for SAPT in psi4, default
symmetry c1  #important for SAPT in psi4, default
}

set PROPERTIES_ORIGIN ["COM"]
properties('MP2/aug-cc-pvtz', properties = ['dipole'])
--------------------------------------------------------------------------

    Molecular point group: c1
  Charge       = 0
  Multiplicity = 1
  Basis Set: AUG-CC-PVTZ
    Blend: AUG-CC-PVTZ
  Basis Set: (AUG-CC-PVTZ AUX)
    Blend: AUG-CC-PVTZ-JKFIT

    Orbital Energies [Eh]
    ---------------------

    Doubly Occupied:

       1A    -20.630713     2A    -20.590565     3A    -20.584304
       4A    -20.573838     5A    -20.572755     6A    -20.568297
       7A    -20.564575     8A    -11.401480     9A    -11.317681
      10A    -11.301577    11A    -11.299240    12A    -11.298517
      13A    -11.297096    14A     -1.475587    15A     -1.431545
      16A     -1.396091    17A     -1.390887    18A     -1.370211
      19A     -1.361939    20A     -1.357765    21A     -1.071059
      22A     -1.024443    23A     -0.956436    24A     -0.882192
      25A     -0.834006    26A     -0.804099    27A     -0.759478
      28A     -0.741424    29A     -0.724931    30A     -0.714345
      31A     -0.711443    32A     -0.687420    33A     -0.683060
      34A     -0.651914    35A     -0.643647    36A     -0.638187
      37A     -0.629434    38A     -0.607996    39A     -0.603424
      40A     -0.585873    41A     -0.560439    42A     -0.551124
      43A     -0.540114    44A     -0.535974    45A     -0.525102
      46A     -0.504757    47A     -0.495044    48A     -0.481889
      49A     -0.463039    50A     -0.456288    51A     -0.445196
      52A     -0.430926

  @DF-RHF Final Energy:  -758.51538606302734

   => Energetics <=

    Nuclear Repulsion Energy =            915.6291714039573435
    One-Electron Energy =               -2862.8303781569184139
    Two-Electron Energy =                1188.6858206899337347
    Total Energy =                       -758.5153860630273357
  Basis Set: (AUG-CC-PVTZ AUX)
    Blend: AUG-CC-PVTZ-RI
    Molecular point group: c1

    Geometry (in Angstrom), charge = 0, multiplicity = 1:

       Center              X                  Y                   Z               Mass
    ------------   -----------------  -----------------  -----------------  -----------------
         O           -1.398005642550    -1.699721605638    -1.048220428923    15.994914619570
         O            1.289255357450    -1.497680605638    -0.865612428923    15.994914619570
         O           -3.056097642550    -0.685086605638     0.801655571077    15.994914619570
         O            1.364271357450    -0.357685605638     1.793656571077    15.994914619570
         O           -3.429342642550     1.812853394362    -0.134159428923    15.994914619570
         O            2.571190357450     1.551695394362    -0.993339428923    15.994914619570
         O            3.656651357450     0.144058394362     0.426469571077    15.994914619570
         C           -0.894763642550    -1.004975205638    -0.028332228923    12.000000000000
         C            0.459804357450    -0.405324605638    -0.475518428923    12.000000000000
         C           -1.878529642550     0.075476394362     0.516162571077    12.000000000000
         C            1.250305357450     0.359506394362     0.584204571077    12.000000000000
         C           -2.228176642550     1.129141394362    -0.527150428923    12.000000000000
         C            2.630516357450     0.660084394362     0.025691571077    12.000000000000
         H           -0.635994642550    -1.621237605638     0.889995571077     1.007825032230
         H            0.273673357450     0.254840394362    -1.336185428923     1.007825032230
         H           -1.513497642550     0.561198394362     1.436264571077     1.007825032230
         H            0.749043357450     1.307338394362     0.811485571077     1.007825032230
         H           -2.461463642550     0.636430394362    -1.472319428923     1.007825032230
         H           -1.405151642550     1.836390394362    -0.688934428923     1.007825032230
         H           -2.279498642550    -1.986671605638    -0.738003428923     1.007825032230
         H            0.702463357450    -2.102799605638    -1.359595428923     1.007825032230
         H           -3.791345642550    -0.043860605638     0.724540571077     1.007825032230
         H            2.099413357450    -0.986432605638     1.655413571077     1.007825032230
         H           -3.194642642550     2.425197394362     0.585153571077     1.007825032230
         H            3.487801357450     1.639037394362    -1.329377428923     1.007825032230

  Basis Set: AUG-CC-PVTZ
    Blend: AUG-CC-PVTZ
  Basis Set: (AUG-CC-PVTZ AUX)
    Blend: AUG-CC-PVTZ-JKFIT
	 Reference Energy          =    -758.5153860630273357 [Eh]
	 Singles Energy            =      -0.0000000000000000 [Eh]
	 Same-Spin Energy          =      -0.7343143167686940 [Eh]
	 Opposite-Spin Energy      =      -2.2300148588665007 [Eh]
	 Correlation Energy        =      -2.9643291756351946 [Eh]
	 Total Energy              =    -761.4797152386624930 [Eh]

	 ================> DF-SCS-MP2 Energies <==================
	-----------------------------------------------------------
	 SCS Same-Spin Scale       =       0.3333333333333333 [-]
	 SCS Opposite-Spin Scale   =       1.2000000000000000 [-]
	 SCS Same-Spin Energy      =      -0.2447714389228980 [Eh]
	 SCS Opposite-Spin Energy  =      -2.6760178306398008 [Eh]
	 SCS Correlation Energy    =      -2.9207892695626989 [Eh]
	 SCS Total Energy          =    -761.4361753325899826 [Eh]
	-----------------------------------------------------------

  Dipole Moment: [D]
     X:    -1.3424      Y:     2.4959      Z:    -1.0250     Total:     3.0136

*** Psi4 exiting successfully. Buy a developer a beer!
