                               Psi4 1.4a3.dev225

  ==> Input File <==

--------------------------------------------------------------------------
#psi4
#
memory 32 gb

molecule  {
0 1
  O       -1.3621950    -1.7118670    -1.0487160
  O        1.3250660    -1.5098260    -0.8661080
  O       -3.0202870    -0.6972320     0.8011600
  O        1.4000820    -0.3698310     1.7931610
  O       -3.3935320     1.8007080    -0.1346550
  O        2.6070010     1.5395500    -0.9938350
  O        3.6924620     0.1319130     0.4259740
  C       -0.8211920    -0.9649900     0.0477000
  C        0.4956150    -0.4174700    -0.4760140
  C       -1.8427190     0.0633310     0.5156670
  C        1.2861160     0.3473610     0.5837090
  C       -2.1923660     1.1169960    -0.5276460
  C        2.6663270     0.6479390     0.0251960
  H       -0.6001840    -1.6333830     0.8895000
  H        0.3094840     0.2426950    -1.3366810
  H       -1.4611340     0.5710789     1.4774926
  H        0.7848540     1.2951930     0.8109900
  H       -2.4256530     0.6242850    -1.4728150
  H       -1.3693410     1.8242450    -0.6894300
  H       -2.2436880    -1.9988170    -0.7384990
  H        0.7382740    -2.1149450    -1.3600910
  H       -3.7555350    -0.0560060     0.7240450
  H        2.1352240    -0.9985780     1.6549180
  H       -3.1588320     2.4130520     0.5846580
  H        3.5236120     1.6268920    -1.3298730
units angstrom
no_reorient  #important for SAPT in psi4, default
symmetry c1  #important for SAPT in psi4, default
}

set PROPERTIES_ORIGIN ["COM"]
properties('MP2/aug-cc-pvtz', properties = ['dipole'])
--------------------------------------------------------------------------

    Molecular point group: c1
  Charge       = 0
  Multiplicity = 1
  Basis Set: AUG-CC-PVTZ
    Blend: AUG-CC-PVTZ
  Basis Set: (AUG-CC-PVTZ AUX)
    Blend: AUG-CC-PVTZ-JKFIT

    Orbital Energies [Eh]
    ---------------------

    Doubly Occupied:

       1A    -20.631338     2A    -20.592106     3A    -20.576396
       4A    -20.574552     5A    -20.573631     6A    -20.570494
       7A    -20.564952     8A    -11.401731     9A    -11.317989
      10A    -11.308235    11A    -11.304398    12A    -11.301073
      13A    -11.296386    14A     -1.476169    15A     -1.408123
      16A     -1.396363    17A     -1.383782    18A     -1.369698
      19A     -1.362556    20A     -1.351011    21A     -1.079779
      22A     -1.027255    23A     -0.961484    24A     -0.886994
      25A     -0.829619    26A     -0.801498    27A     -0.757271
      28A     -0.736575    29A     -0.724959    30A     -0.715519
      31A     -0.711598    32A     -0.681422    33A     -0.676414
      34A     -0.649970    35A     -0.639696    36A     -0.636715
      37A     -0.627278    38A     -0.606879    39A     -0.602130
      40A     -0.581085    41A     -0.553089    42A     -0.550575
      43A     -0.539464    44A     -0.534294    45A     -0.531241
      46A     -0.502600    47A     -0.495601    48A     -0.484440
      49A     -0.465093    50A     -0.460092    51A     -0.454684
      52A     -0.442885

  @DF-RHF Final Energy:  -758.52123748636768

   => Energetics <=

    Nuclear Repulsion Energy =            915.3229275981981345
    One-Electron Energy =               -2862.2699709136304591
    Two-Electron Energy =                1188.4258058290647568
    Total Energy =                       -758.5212374863676814
  Basis Set: (AUG-CC-PVTZ AUX)
    Blend: AUG-CC-PVTZ-RI
    Molecular point group: c1

    Geometry (in Angstrom), charge = 0, multiplicity = 1:

       Center              X                  Y                   Z               Mass
    ------------   -----------------  -----------------  -----------------  -----------------
         O           -1.400401942637    -1.703025548620    -1.053118888591    15.994914619570
         O            1.286859057363    -1.500984548620    -0.870510888591    15.994914619570
         O           -3.058493942637    -0.688390548620     0.796757111409    15.994914619570
         O            1.361875057363    -0.360989548620     1.788758111409    15.994914619570
         O           -3.431738942637     1.809549451380    -0.139057888591    15.994914619570
         O            2.568794057363     1.548391451380    -0.998237888591    15.994914619570
         O            3.654255057363     0.140754451380     0.421571111409    15.994914619570
         C           -0.859398942637    -0.956148548620     0.043297111409    12.000000000000
         C            0.457408057363    -0.408628548620    -0.480416888591    12.000000000000
         C           -1.880925942637     0.072172451380     0.511264111409    12.000000000000
         C            1.247909057363     0.356202451380     0.579306111409    12.000000000000
         C           -2.230572942637     1.125837451380    -0.532048888591    12.000000000000
         C            2.628120057363     0.656780451380     0.020793111409    12.000000000000
         H           -0.638390942637    -1.624541548620     0.885097111409     1.007825032230
         H            0.271277057363     0.251536451380    -1.341083888591     1.007825032230
         H           -1.499340942637     0.579920351380     1.473089711409     1.007825032230
         H            0.746647057363     1.304034451380     0.806587111409     1.007825032230
         H           -2.463859942637     0.633126451380    -1.477217888591     1.007825032230
         H           -1.407547942637     1.833086451380    -0.693832888591     1.007825032230
         H           -2.281894942637    -1.989975548620    -0.742901888591     1.007825032230
         H            0.700067057363    -2.106103548620    -1.364493888591     1.007825032230
         H           -3.793741942637    -0.047164548620     0.719642111409     1.007825032230
         H            2.097017057363    -0.989736548620     1.650515111409     1.007825032230
         H           -3.197038942637     2.421893451380     0.580255111409     1.007825032230
         H            3.485405057363     1.635733451380    -1.334275888591     1.007825032230

  Basis Set: AUG-CC-PVTZ
    Blend: AUG-CC-PVTZ
  Basis Set: (AUG-CC-PVTZ AUX)
    Blend: AUG-CC-PVTZ-JKFIT
	 Reference Energy          =    -758.5212374863676814 [Eh]
	 Singles Energy            =      -0.0000000000000000 [Eh]
	 Same-Spin Energy          =      -0.7344333041124312 [Eh]
	 Opposite-Spin Energy      =      -2.2314784506837038 [Eh]
	 Correlation Energy        =      -2.9659117547961351 [Eh]
	 Total Energy              =    -761.4871492411638201 [Eh]

	 ================> DF-SCS-MP2 Energies <==================
	-----------------------------------------------------------
	 SCS Same-Spin Scale       =       0.3333333333333333 [-]
	 SCS Opposite-Spin Scale   =       1.2000000000000000 [-]
	 SCS Same-Spin Energy      =      -0.2448111013708104 [Eh]
	 SCS Opposite-Spin Energy  =      -2.6777741408204445 [Eh]
	 SCS Correlation Energy    =      -2.9225852421912548 [Eh]
	 SCS Total Energy          =    -761.4438227285589846 [Eh]
	-----------------------------------------------------------

  Dipole Moment: [D]
     X:    -1.2389      Y:     2.6502      Z:    -0.8282     Total:     3.0404

*** Psi4 exiting successfully. Buy a developer a beer!
