                               Psi4 1.4a3.dev225

  ==> Input File <==

--------------------------------------------------------------------------
#psi4
#
memory 32 gb

molecule  {
0 1
  O       -1.3621950    -1.7118670    -1.0487160
  O        1.3250660    -1.5098260    -0.8661080
  O       -3.0202870    -0.6972320     0.8011600
  O        1.4000820    -0.3698310     1.7931610
  O       -3.3935320     1.8007080    -0.1346550
  O        2.6070010     1.5395500    -0.9938350
  O        3.6924620     0.1319130     0.4259740
  C       -0.8211920    -0.9649900     0.0477000
  C        0.4956150    -0.4174700    -0.4760140
  C       -1.8427190     0.0633310     0.5156670
  C        1.3985476     0.2657250     0.5337195
  C       -2.1923660     1.1169960    -0.5276460
  C        2.6663270     0.6479390     0.0251960
  H       -0.6001840    -1.6333830     0.8895000
  H        0.3094840     0.2426950    -1.3366810
  H       -1.4776870     0.5490530     1.4357690
  H        0.7848540     1.2951930     0.8109900
  H       -2.4256530     0.6242850    -1.4728150
  H       -1.3693410     1.8242450    -0.6894300
  H       -2.2436880    -1.9988170    -0.7384990
  H        0.7382740    -2.1149450    -1.3600910
  H       -3.7555350    -0.0560060     0.7240450
  H        2.1352240    -0.9985780     1.6549180
  H       -3.1588320     2.4130520     0.5846580
  H        3.5236120     1.6268920    -1.3298730
units angstrom
no_reorient  #important for SAPT in psi4, default
symmetry c1  #important for SAPT in psi4, default
}

set PROPERTIES_ORIGIN ["COM"]
properties('MP2/aug-cc-pvtz', properties = ['dipole'])
--------------------------------------------------------------------------

    Molecular point group: c1
  Charge       = 0
  Multiplicity = 1
  Basis Set: AUG-CC-PVTZ
    Blend: AUG-CC-PVTZ
  Basis Set: (AUG-CC-PVTZ AUX)
    Blend: AUG-CC-PVTZ-JKFIT

    Orbital Energies [Eh]
    ---------------------

    Doubly Occupied:

       1A    -20.632832     2A    -20.591465     3A    -20.581463
       4A    -20.575136     5A    -20.575038     6A    -20.568972
       7A    -20.564679     8A    -11.400102     9A    -11.321259
      10A    -11.306669    11A    -11.301932    12A    -11.299728
      13A    -11.298307    14A     -1.480298    15A     -1.409299
      16A     -1.400370    17A     -1.386257    18A     -1.370791
      19A     -1.364428    20A     -1.351770    21A     -1.081722
      22A     -1.038069    23A     -0.968270    24A     -0.893691
      25A     -0.829030    26A     -0.796620    27A     -0.760921
      28A     -0.749259    29A     -0.725921    30A     -0.714702
      31A     -0.713697    32A     -0.683656    33A     -0.674805
      34A     -0.652838    35A     -0.639837    36A     -0.630625
      37A     -0.629171    38A     -0.606044    39A     -0.600982
      40A     -0.581477    41A     -0.551168    42A     -0.550177
      43A     -0.542647    44A     -0.534502    45A     -0.526868
      46A     -0.502840    47A     -0.496027    48A     -0.475294
      49A     -0.468862    50A     -0.466481    51A     -0.452589
      52A     -0.446039

  @DF-RHF Final Energy:  -758.49752141660565

   => Energetics <=

    Nuclear Repulsion Energy =            916.7031886531871123
    One-Electron Energy =               -2864.8701664342825097
    Two-Electron Energy =                1189.6694563644896334
    Total Energy =                       -758.4975214166056503
  Basis Set: (AUG-CC-PVTZ AUX)
    Blend: AUG-CC-PVTZ-RI
    Molecular point group: c1

    Geometry (in Angstrom), charge = 0, multiplicity = 1:

       Center              X                  Y                   Z               Mass
    ------------   -----------------  -----------------  -----------------  -----------------
         O           -1.407198373360    -1.697915689770    -1.049844739628    15.994914619570
         O            1.280062626640    -1.495874689770    -0.867236739628    15.994914619570
         O           -3.065290373360    -0.683280689770     0.800031260372    15.994914619570
         O            1.355078626640    -0.355879689770     1.792032260372    15.994914619570
         O           -3.438535373360     1.814659310230    -0.135783739628    15.994914619570
         O            2.561997626640     1.553501310230    -0.994963739628    15.994914619570
         O            3.647458626640     0.145864310230     0.424845260372    15.994914619570
         C           -0.866195373360    -0.951038689770     0.046571260372    12.000000000000
         C            0.450611626640    -0.403518689770    -0.477142739628    12.000000000000
         C           -1.887722373360     0.077282310230     0.514538260372    12.000000000000
         C            1.353544226640     0.279676310230     0.532590760372    12.000000000000
         C           -2.237369373360     1.130947310230    -0.528774739628    12.000000000000
         C            2.621323626640     0.661890310230     0.024067260372    12.000000000000
         H           -0.645187373360    -1.619431689770     0.888371260372     1.007825032230
         H            0.264480626640     0.256646310230    -1.337809739628     1.007825032230
         H           -1.522690373360     0.563004310230     1.434640260372     1.007825032230
         H            0.739850626640     1.309144310230     0.809861260372     1.007825032230
         H           -2.470656373360     0.638236310230    -1.473943739628     1.007825032230
         H           -1.414344373360     1.838196310230    -0.690558739628     1.007825032230
         H           -2.288691373360    -1.984865689770    -0.739627739628     1.007825032230
         H            0.693270626640    -2.100993689770    -1.361219739628     1.007825032230
         H           -3.800538373360    -0.042054689770     0.722916260372     1.007825032230
         H            2.090220626640    -0.984626689770     1.653789260372     1.007825032230
         H           -3.203835373360     2.427003310230     0.583529260372     1.007825032230
         H            3.478608626640     1.640843310230    -1.331001739628     1.007825032230

  Basis Set: AUG-CC-PVTZ
    Blend: AUG-CC-PVTZ
  Basis Set: (AUG-CC-PVTZ AUX)
    Blend: AUG-CC-PVTZ-JKFIT
	 Reference Energy          =    -758.4975214166056503 [Eh]
	 Singles Energy            =      -0.0000000000000000 [Eh]
	 Same-Spin Energy          =      -0.7358447961738858 [Eh]
	 Opposite-Spin Energy      =      -2.2338919884687747 [Eh]
	 Correlation Energy        =      -2.9697367846426603 [Eh]
	 Total Energy              =    -761.4672582012483417 [Eh]

	 ================> DF-SCS-MP2 Energies <==================
	-----------------------------------------------------------
	 SCS Same-Spin Scale       =       0.3333333333333333 [-]
	 SCS Opposite-Spin Scale   =       1.2000000000000000 [-]
	 SCS Same-Spin Energy      =      -0.2452815987246286 [Eh]
	 SCS Opposite-Spin Energy  =      -2.6806703861625296 [Eh]
	 SCS Correlation Energy    =      -2.9259519848871580 [Eh]
	 SCS Total Energy          =    -761.4234734014928563 [Eh]
	-----------------------------------------------------------

  Dipole Moment: [D]
     X:    -1.2269      Y:     2.5057      Z:    -0.8043     Total:     2.9035

*** Psi4 exiting successfully. Buy a developer a beer!
