                               Psi4 1.4a3.dev225

  ==> Input File <==

--------------------------------------------------------------------------
#psi4
#
memory 32 gb

molecule  {
0 1
  O       -1.3621950    -1.7118670    -1.0487160
  O        1.3250660    -1.5098260    -0.8661080
  O       -3.0202870    -0.6972320     0.8011600
  O        1.4000820    -0.3698310     1.7931610
  O       -3.3935320     1.8007080    -0.1346550
  O        2.6070010     1.5395500    -0.9938350
  O        3.6924620     0.1319130     0.4259740
  C       -0.8211920    -0.9649900     0.0477000
  C        0.4956150    -0.4174700    -0.4760140
  C       -1.8427190     0.0633310     0.5156670
  C        1.2861160     0.3473610     0.5837090
  C       -2.1923660     1.1169960    -0.5276460
  C        2.6663270     0.6479390     0.0251960
  H       -0.6001840    -1.6333830     0.8895000
  H        0.3094840     0.2426950    -1.3366810
  H       -1.4776870     0.5490530     1.4357690
  H        0.7848540     1.2951930     0.8109900
  H       -2.4256530     0.6242850    -1.4728150
  H       -1.3693410     1.8242450    -0.6894300
  H       -2.2436880    -1.9988170    -0.7384990
  H        0.7382740    -2.1149450    -1.3600910
  H       -3.6052736    -0.1870523     0.7398049
  H        2.1352240    -0.9985780     1.6549180
  H       -3.1588320     2.4130520     0.5846580
  H        3.5236120     1.6268920    -1.3298730
units angstrom
no_reorient  #important for SAPT in psi4, default
symmetry c1  #important for SAPT in psi4, default
}

set PROPERTIES_ORIGIN ["COM"]
properties('MP2/aug-cc-pvtz', properties = ['dipole'])
--------------------------------------------------------------------------

    Molecular point group: c1
  Charge       = 0
  Multiplicity = 1
  Basis Set: AUG-CC-PVTZ
    Blend: AUG-CC-PVTZ
  Basis Set: (AUG-CC-PVTZ AUX)
    Blend: AUG-CC-PVTZ-JKFIT

    Orbital Energies [Eh]
    ---------------------

    Doubly Occupied:

       1A    -20.632005     2A    -20.588929     3A    -20.575654
       4A    -20.574838     5A    -20.571382     6A    -20.565726
       7A    -20.559201     8A    -11.402561     9A    -11.319138
      10A    -11.305432    11A    -11.305407    12A    -11.301142
      13A    -11.297564    14A     -1.476887    15A     -1.447485
      16A     -1.400121    17A     -1.384077    18A     -1.379389
      19A     -1.366568    20A     -1.356823    21A     -1.086277
      22A     -1.034877    23A     -0.962323    24A     -0.899572
      25A     -0.834521    26A     -0.806761    27A     -0.766667
      28A     -0.740023    29A     -0.733928    30A     -0.718595
      31A     -0.713975    32A     -0.693927    33A     -0.680065
      34A     -0.651156    35A     -0.644519    36A     -0.638643
      37A     -0.630099    38A     -0.608173    39A     -0.602439
      40A     -0.584207    41A     -0.562251    42A     -0.553972
      43A     -0.541637    44A     -0.538115    45A     -0.533117
      46A     -0.503339    47A     -0.496332    48A     -0.485736
      49A     -0.471071    50A     -0.461367    51A     -0.457711
      52A     -0.444161

  @DF-RHF Final Energy:  -758.48052377467627

   => Energetics <=

    Nuclear Repulsion Energy =            917.0096353026149245
    One-Electron Energy =               -2865.2005513886888366
    Two-Electron Energy =                1189.7103923113977544
    Total Energy =                       -758.4805237746761577
  Basis Set: (AUG-CC-PVTZ AUX)
    Blend: AUG-CC-PVTZ-RI
    Molecular point group: c1

    Geometry (in Angstrom), charge = 0, multiplicity = 1:

       Center              X                  Y                   Z               Mass
    ------------   -----------------  -----------------  -----------------  -----------------
         O           -1.401089262024    -1.702238690871    -1.052985423870    15.994914619570
         O            1.286171737976    -1.500197690871    -0.870377423870    15.994914619570
         O           -3.059181262024    -0.687603690871     0.796890576130    15.994914619570
         O            1.361187737976    -0.360202690871     1.788891576130    15.994914619570
         O           -3.432426262024     1.810336309129    -0.138924423870    15.994914619570
         O            2.568106737976     1.549178309129    -0.998104423870    15.994914619570
         O            3.653567737976     0.141541309129     0.421704576130    15.994914619570
         C           -0.860086262024    -0.955361690871     0.043430576130    12.000000000000
         C            0.456720737976    -0.407841690871    -0.480283423870    12.000000000000
         C           -1.881613262024     0.072959309129     0.511397576130    12.000000000000
         C            1.247221737976     0.356989309129     0.579439576130    12.000000000000
         C           -2.231260262024     1.126624309129    -0.531915423870    12.000000000000
         C            2.627432737976     0.657567309129     0.020926576130    12.000000000000
         H           -0.639078262024    -1.623754690871     0.885230576130     1.007825032230
         H            0.270589737976     0.252323309129    -1.340950423870     1.007825032230
         H           -1.516581262024     0.558681309129     1.431499576130     1.007825032230
         H            0.745959737976     1.304821309129     0.806720576130     1.007825032230
         H           -2.464547262024     0.633913309129    -1.477084423870     1.007825032230
         H           -1.408235262024     1.833873309129    -0.693699423870     1.007825032230
         H           -2.282582262024    -1.989188690871    -0.742768423870     1.007825032230
         H            0.699379737976    -2.105316690871    -1.364360423870     1.007825032230
         H           -3.644167862024    -0.177423990871     0.735535476130     1.007825032230
         H            2.096329737976    -0.988949690871     1.650648576130     1.007825032230
         H           -3.197726262024     2.422680309129     0.580388576130     1.007825032230
         H            3.484717737976     1.636520309129    -1.334142423870     1.007825032230

  Basis Set: AUG-CC-PVTZ
    Blend: AUG-CC-PVTZ
  Basis Set: (AUG-CC-PVTZ AUX)
    Blend: AUG-CC-PVTZ-JKFIT
	 Reference Energy          =    -758.4805237746762714 [Eh]
	 Singles Energy            =      -0.0000000000000000 [Eh]
	 Same-Spin Energy          =      -0.7314803360059090 [Eh]
	 Opposite-Spin Energy      =      -2.2251326273500456 [Eh]
	 Correlation Energy        =      -2.9566129633559548 [Eh]
	 Total Energy              =    -761.4371367380322226 [Eh]

	 ================> DF-SCS-MP2 Energies <==================
	-----------------------------------------------------------
	 SCS Same-Spin Scale       =       0.3333333333333333 [-]
	 SCS Opposite-Spin Scale   =       1.2000000000000000 [-]
	 SCS Same-Spin Energy      =      -0.2438267786686363 [Eh]
	 SCS Opposite-Spin Energy  =      -2.6701591528200548 [Eh]
	 SCS Correlation Energy    =      -2.9139859314886909 [Eh]
	 SCS Total Energy          =    -761.3945097061649676 [Eh]
	-----------------------------------------------------------

  Dipole Moment: [D]
     X:    -0.9966      Y:     2.5144      Z:    -0.7827     Total:     2.8157

*** Psi4 exiting successfully. Buy a developer a beer!
