                               Psi4 1.4a3.dev225

  ==> Input File <==

--------------------------------------------------------------------------
#psi4
#
memory 32 gb

molecule  {
0 1
  O       -1.3621950    -1.7118670    -1.0487160
  O        1.3250660    -1.5098260    -0.8661080
  O       -3.0202870    -0.6972320     0.8011600
  O        1.4000820    -0.3698310     1.7931610
  O       -3.3935320     1.8007080    -0.1346550
  O        2.6070010     1.5395500    -0.9938350
  O        3.6924620     0.1319130     0.4259740
  C       -0.8211920    -0.9649900     0.0477000
  C        0.4956150    -0.4174700    -0.4760140
  C       -1.8427190     0.0633310     0.5156670
  C        1.2861160     0.3473610     0.5837090
  C       -2.1923660     1.1169960    -0.5276460
  C        2.6663270     0.6479390     0.0251960
  H       -0.6001840    -1.6333830     0.8895000
  H        0.3094840     0.2426950    -1.3366810
  H       -1.4776870     0.5490530     1.4357690
  H        0.7848540     1.2951930     0.8109900
  H       -2.4256530     0.6242850    -1.4728150
  H       -1.3693410     1.8242450    -0.6894300
  H       -2.2436880    -1.9988170    -0.7384990
  H        0.7502862    -2.1025576    -1.3499787
  H       -3.7555350    -0.0560060     0.7240450
  H        2.1352240    -0.9985780     1.6549180
  H       -3.1588320     2.4130520     0.5846580
  H        3.5236120     1.6268920    -1.3298730
units angstrom
no_reorient  #important for SAPT in psi4, default
symmetry c1  #important for SAPT in psi4, default
}

set PROPERTIES_ORIGIN ["COM"]
properties('MP2/aug-cc-pvtz', properties = ['dipole'])
--------------------------------------------------------------------------

    Molecular point group: c1
  Charge       = 0
  Multiplicity = 1
  Basis Set: AUG-CC-PVTZ
    Blend: AUG-CC-PVTZ
  Basis Set: (AUG-CC-PVTZ AUX)
    Blend: AUG-CC-PVTZ-JKFIT

    Orbital Energies [Eh]
    ---------------------

    Doubly Occupied:

       1A    -20.631578     2A    -20.592079     3A    -20.575309
       4A    -20.574934     5A    -20.572900     6A    -20.569146
       7A    -20.565232     8A    -11.402029     9A    -11.318415
      10A    -11.304658    11A    -11.302287    12A    -11.300472
      13A    -11.295925    14A     -1.476436    15A     -1.408367
      16A     -1.397342    17A     -1.384114    18A     -1.370679
      19A     -1.363213    20A     -1.351633    21A     -1.081095
      22A     -1.028510    23A     -0.961530    24A     -0.888821
      25A     -0.830768    26A     -0.803809    27A     -0.758836
      28A     -0.736735    29A     -0.726040    30A     -0.715313
      31A     -0.712790    32A     -0.683360    33A     -0.677486
      34A     -0.650499    35A     -0.640629    36A     -0.637683
      37A     -0.628881    38A     -0.607484    39A     -0.601989
      40A     -0.581409    41A     -0.553550    42A     -0.550123
      43A     -0.540156    44A     -0.534382    45A     -0.531509
      46A     -0.503317    47A     -0.495869    48A     -0.484859
      49A     -0.466735    50A     -0.460138    51A     -0.455890
      52A     -0.443002

  @DF-RHF Final Energy:  -758.52450042653061

   => Energetics <=

    Nuclear Repulsion Energy =            915.7120447789246782
    One-Electron Energy =               -2863.0132030228801341
    Two-Electron Energy =                1188.7766578174246206
    Total Energy =                       -758.5245004265307216
  Basis Set: (AUG-CC-PVTZ AUX)
    Blend: AUG-CC-PVTZ-RI
    Molecular point group: c1

    Geometry (in Angstrom), charge = 0, multiplicity = 1:

       Center              X                  Y                   Z               Mass
    ------------   -----------------  -----------------  -----------------  -----------------
         O           -1.400378600948    -1.702976002534    -1.052956392747    15.994914619570
         O            1.286882399052    -1.500935002534    -0.870348392747    15.994914619570
         O           -3.058470600948    -0.688341002534     0.796919607253    15.994914619570
         O            1.361898399052    -0.360940002534     1.788920607253    15.994914619570
         O           -3.431715600948     1.809598997466    -0.138895392747    15.994914619570
         O            2.568817399052     1.548440997466    -0.998075392747    15.994914619570
         O            3.654278399052     0.140803997466     0.421733607253    15.994914619570
         C           -0.859375600948    -0.956099002534     0.043459607253    12.000000000000
         C            0.457431399052    -0.408579002534    -0.480254392747    12.000000000000
         C           -1.880902600948     0.072221997466     0.511426607253    12.000000000000
         C            1.247932399052     0.356251997466     0.579468607253    12.000000000000
         C           -2.230549600948     1.125886997466    -0.531886392747    12.000000000000
         C            2.628143399052     0.656829997466     0.020955607253    12.000000000000
         H           -0.638367600948    -1.624492002534     0.885259607253     1.007825032230
         H            0.271300399052     0.251585997466    -1.340921392747     1.007825032230
         H           -1.515870600948     0.557943997466     1.431528607253     1.007825032230
         H            0.746670399052     1.304083997466     0.806749607253     1.007825032230
         H           -2.463836600948     0.633175997466    -1.477055392747     1.007825032230
         H           -1.407524600948     1.833135997466    -0.693670392747     1.007825032230
         H           -2.281871600948    -1.989926002534    -0.742739392747     1.007825032230
         H            0.712102599052    -2.093666602534    -1.354219092747     1.007825032230
         H           -3.793718600948    -0.047115002534     0.719804607253     1.007825032230
         H            2.097040399052    -0.989687002534     1.650677607253     1.007825032230
         H           -3.197015600948     2.421942997466     0.580417607253     1.007825032230
         H            3.485428399052     1.635782997466    -1.334113392747     1.007825032230

  Basis Set: AUG-CC-PVTZ
    Blend: AUG-CC-PVTZ
  Basis Set: (AUG-CC-PVTZ AUX)
    Blend: AUG-CC-PVTZ-JKFIT
	 Reference Energy          =    -758.5245004265306079 [Eh]
	 Singles Energy            =      -0.0000000000000000 [Eh]
	 Same-Spin Energy          =      -0.7340408605767280 [Eh]
	 Opposite-Spin Energy      =      -2.2303713216520156 [Eh]
	 Correlation Energy        =      -2.9644121822287435 [Eh]
	 Total Energy              =    -761.4889126087593922 [Eh]

	 ================> DF-SCS-MP2 Energies <==================
	-----------------------------------------------------------
	 SCS Same-Spin Scale       =       0.3333333333333333 [-]
	 SCS Opposite-Spin Scale   =       1.2000000000000000 [-]
	 SCS Same-Spin Energy      =      -0.2446802868589093 [Eh]
	 SCS Opposite-Spin Energy  =      -2.6764455859824188 [Eh]
	 SCS Correlation Energy    =      -2.9211258728413281 [Eh]
	 SCS Total Energy          =    -761.4456262993719520 [Eh]
	-----------------------------------------------------------

  Dipole Moment: [D]
     X:    -1.1994      Y:     2.6927      Z:    -0.7919     Total:     3.0523

*** Psi4 exiting successfully. Buy a developer a beer!
