                               Psi4 1.4a3.dev225

  ==> Input File <==

--------------------------------------------------------------------------
#psi4
#
memory 32 gb

molecule  {
0 1
  O       -1.3621950    -1.7118670    -1.0487160
  O        1.3250660    -1.5098260    -0.8661080
  O       -3.0202870    -0.6972320     0.8011600
  O        1.4000820    -0.3698310     1.7931610
  O       -3.3935320     1.8007080    -0.1346550
  O        2.6070010     1.5395500    -0.9938350
  O        3.6924620     0.1319130     0.4259740
  C       -0.8211920    -0.9649900     0.0477000
  C        0.4956150    -0.4174700    -0.4760140
  C       -1.8427190     0.0633310     0.5156670
  C        1.2861160     0.3473610     0.5837090
  C       -2.1923660     1.1169960    -0.5276460
  C        2.6663270     0.6479390     0.0251960
  H       -0.6102539    -1.6029287     0.8511447
  H        0.3094840     0.2426950    -1.3366810
  H       -1.4776870     0.5490530     1.4357690
  H        0.7848540     1.2951930     0.8109900
  H       -2.4256530     0.6242850    -1.4728150
  H       -1.3693410     1.8242450    -0.6894300
  H       -2.2436880    -1.9988170    -0.7384990
  H        0.7382740    -2.1149450    -1.3600910
  H       -3.7555350    -0.0560060     0.7240450
  H        2.1352240    -0.9985780     1.6549180
  H       -3.1588320     2.4130520     0.5846580
  H        3.5236120     1.6268920    -1.3298730
units angstrom
no_reorient  #important for SAPT in psi4, default
symmetry c1  #important for SAPT in psi4, default
}

set PROPERTIES_ORIGIN ["COM"]
properties('MP2/aug-cc-pvtz', properties = ['dipole'])
--------------------------------------------------------------------------

    Molecular point group: c1
  Charge       = 0
  Multiplicity = 1
  Basis Set: AUG-CC-PVTZ
    Blend: AUG-CC-PVTZ
  Basis Set: (AUG-CC-PVTZ AUX)
    Blend: AUG-CC-PVTZ-JKFIT

    Orbital Energies [Eh]
    ---------------------

    Doubly Occupied:

       1A    -20.631436     2A    -20.591885     3A    -20.575325
       4A    -20.575064     5A    -20.572494     6A    -20.570501
       7A    -20.565118     8A    -11.401915     9A    -11.318281
      10A    -11.304008    11A    -11.301923    12A    -11.300212
      13A    -11.290228    14A     -1.476298    15A     -1.407826
      16A     -1.396433    17A     -1.383685    18A     -1.369550
      19A     -1.362619    20A     -1.350496    21A     -1.081239
      22A     -1.028283    23A     -0.963233    24A     -0.888859
      25A     -0.831227    26A     -0.804592    27A     -0.759671
      28A     -0.736876    29A     -0.725873    30A     -0.715744
      31A     -0.713690    32A     -0.683084    33A     -0.676534
      34A     -0.650185    35A     -0.640395    36A     -0.637061
      37A     -0.629958    38A     -0.607233    39A     -0.602938
      40A     -0.581529    41A     -0.554178    42A     -0.550073
      43A     -0.539951    44A     -0.534312    45A     -0.531326
      46A     -0.503497    47A     -0.495737    48A     -0.484571
      49A     -0.466565    50A     -0.460597    51A     -0.455484
      52A     -0.444751

  @DF-RHF Final Energy:  -758.52299127169113

   => Energetics <=

    Nuclear Repulsion Energy =            915.8859160288720886
    One-Electron Energy =               -2863.3687243435433629
    Two-Electron Energy =                1188.9598170429801485
    Total Energy =                       -758.5229912716911258
  Basis Set: (AUG-CC-PVTZ AUX)
    Blend: AUG-CC-PVTZ-RI
    Molecular point group: c1

    Geometry (in Angstrom), charge = 0, multiplicity = 1:

       Center              X                  Y                   Z               Mass
    ------------   -----------------  -----------------  -----------------  -----------------
         O           -1.400265089340    -1.703068874266    -1.052707248182    15.994914619570
         O            1.286995910660    -1.501027874266    -0.870099248182    15.994914619570
         O           -3.058357089340    -0.688433874266     0.797168751818    15.994914619570
         O            1.362011910660    -0.361032874266     1.789169751818    15.994914619570
         O           -3.431602089340     1.809506125734    -0.138646248182    15.994914619570
         O            2.568930910660     1.548348125734    -0.997826248182    15.994914619570
         O            3.654391910660     0.140711125734     0.421982751818    15.994914619570
         C           -0.859262089340    -0.956191874266     0.043708751818    12.000000000000
         C            0.457544910660    -0.408671874266    -0.480005248182    12.000000000000
         C           -1.880789089340     0.072129125734     0.511675751818    12.000000000000
         C            1.248045910660     0.356159125734     0.579717751818    12.000000000000
         C           -2.230436089340     1.125794125734    -0.531637248182    12.000000000000
         C            2.628256910660     0.656737125734     0.021204751818    12.000000000000
         H           -0.648323989340    -1.594130574266     0.847153451818     1.007825032230
         H            0.271413910660     0.251493125734    -1.340672248182     1.007825032230
         H           -1.515757089340     0.557851125734     1.431777751818     1.007825032230
         H            0.746783910660     1.303991125734     0.806998751818     1.007825032230
         H           -2.463723089340     0.633083125734    -1.476806248182     1.007825032230
         H           -1.407411089340     1.833043125734    -0.693421248182     1.007825032230
         H           -2.281758089340    -1.990018874266    -0.742490248182     1.007825032230
         H            0.700203910660    -2.106146874266    -1.364082248182     1.007825032230
         H           -3.793605089340    -0.047207874266     0.720053751818     1.007825032230
         H            2.097153910660    -0.989779874266     1.650926751818     1.007825032230
         H           -3.196902089340     2.421850125734     0.580666751818     1.007825032230
         H            3.485541910660     1.635690125734    -1.333864248182     1.007825032230

  Basis Set: AUG-CC-PVTZ
    Blend: AUG-CC-PVTZ
  Basis Set: (AUG-CC-PVTZ AUX)
    Blend: AUG-CC-PVTZ-JKFIT
	 Reference Energy          =    -758.5229912716911258 [Eh]
	 Singles Energy            =      -0.0000000000000000 [Eh]
	 Same-Spin Energy          =      -0.7341662019450371 [Eh]
	 Opposite-Spin Energy      =      -2.2305414544465845 [Eh]
	 Correlation Energy        =      -2.9647076563916217 [Eh]
	 Total Energy              =    -761.4876989280827502 [Eh]

	 ================> DF-SCS-MP2 Energies <==================
	-----------------------------------------------------------
	 SCS Same-Spin Scale       =       0.3333333333333333 [-]
	 SCS Opposite-Spin Scale   =       1.2000000000000000 [-]
	 SCS Same-Spin Energy      =      -0.2447220673150124 [Eh]
	 SCS Opposite-Spin Energy  =      -2.6766497453359013 [Eh]
	 SCS Correlation Energy    =      -2.9213718126509138 [Eh]
	 SCS Total Energy          =    -761.4443630843420578 [Eh]
	-----------------------------------------------------------

  Dipole Moment: [D]
     X:    -1.2068      Y:     2.6705      Z:    -0.7898     Total:     3.0351

*** Psi4 exiting successfully. Buy a developer a beer!
