                               Psi4 1.4a3.dev225

  ==> Input File <==

--------------------------------------------------------------------------
#psi4
#
memory 32 gb

molecule  {
0 1
  O       -1.3621950    -1.7118670    -1.0487160
  O        1.3250660    -1.5098260    -0.8661080
  O       -3.0202870    -0.6972320     0.8011600
  O        1.4000820    -0.3698310     1.7931610
  O       -3.3935320     1.8007080    -0.1346550
  O        2.6070010     1.5395500    -0.9938350
  O        3.6199835     0.0677434     0.5086950
  C       -0.8211920    -0.9649900     0.0477000
  C        0.4956150    -0.4174700    -0.4760140
  C       -1.8427190     0.0633310     0.5156670
  C        1.2861160     0.3473610     0.5837090
  C       -2.1923660     1.1169960    -0.5276460
  C        2.6663270     0.6479390     0.0251960
  H       -0.6001840    -1.6333830     0.8895000
  H        0.3094840     0.2426950    -1.3366810
  H       -1.4776870     0.5490530     1.4357690
  H        0.7848540     1.2951930     0.8109900
  H       -2.4256530     0.6242850    -1.4728150
  H       -1.3693410     1.8242450    -0.6894300
  H       -2.2436880    -1.9988170    -0.7384990
  H        0.7382740    -2.1149450    -1.3600910
  H       -3.7555350    -0.0560060     0.7240450
  H        2.1352240    -0.9985780     1.6549180
  H       -3.1588320     2.4130520     0.5846580
  H        3.5236120     1.6268920    -1.3298730
units angstrom
no_reorient  #important for SAPT in psi4, default
symmetry c1  #important for SAPT in psi4, default
}

set PROPERTIES_ORIGIN ["COM"]
properties('MP2/aug-cc-pvtz', properties = ['dipole'])
--------------------------------------------------------------------------

    Molecular point group: c1
  Charge       = 0
  Multiplicity = 1
  Basis Set: AUG-CC-PVTZ
    Blend: AUG-CC-PVTZ
  Basis Set: (AUG-CC-PVTZ AUX)
    Blend: AUG-CC-PVTZ-JKFIT

    Orbital Energies [Eh]
    ---------------------

    Doubly Occupied:

       1A    -20.641509     2A    -20.590986     3A    -20.573848
       4A    -20.571328     5A    -20.568787     6A    -20.568405
       7A    -20.567241     8A    -11.403378     9A    -11.311591
      10A    -11.301563    11A    -11.300515    12A    -11.299164
      13A    -11.293598    14A     -1.477986    15A     -1.406356
      16A     -1.397086    17A     -1.385474    18A     -1.369765
      19A     -1.360231    20A     -1.348704    21A     -1.077677
      22A     -1.025297    23A     -0.959272    24A     -0.886979
      25A     -0.831402    26A     -0.800241    27A     -0.756516
      28A     -0.737158    29A     -0.727683    30A     -0.714050
      31A     -0.713126    32A     -0.681717    33A     -0.674142
      34A     -0.651489    35A     -0.640811    36A     -0.635128
      37A     -0.627379    38A     -0.606929    39A     -0.600277
      40A     -0.579028    41A     -0.551193    42A     -0.548728
      43A     -0.535540    44A     -0.532518    45A     -0.529302
      46A     -0.501926    47A     -0.500139    48A     -0.482004
      49A     -0.464735    50A     -0.457749    51A     -0.452781
      52A     -0.440549

  @DF-RHF Final Energy:  -758.51917018237100

   => Energetics <=

    Nuclear Repulsion Energy =            916.8467433116736629
    One-Electron Energy =               -2865.4098665217029520
    Two-Electron Energy =                1190.0439530276582900
    Total Energy =                       -758.5191701823709991
  Basis Set: (AUG-CC-PVTZ AUX)
    Blend: AUG-CC-PVTZ-RI
    Molecular point group: c1

    Geometry (in Angstrom), charge = 0, multiplicity = 1:

       Center              X                  Y                   Z               Mass
    ------------   -----------------  -----------------  -----------------  -----------------
         O           -1.394403880169    -1.697677213396    -1.059652992100    15.994914619570
         O            1.292857119831    -1.495636213396    -0.877044992100    15.994914619570
         O           -3.052495880169    -0.683042213396     0.790223007900    15.994914619570
         O            1.367873119831    -0.355641213396     1.782224007900    15.994914619570
         O           -3.425740880169     1.814897786604    -0.145591992100    15.994914619570
         O            2.574792119831     1.553739786604    -1.004771992100    15.994914619570
         O            3.587774619831     0.081933186604     0.497758007900    15.994914619570
         C           -0.853400880169    -0.950800213396     0.036763007900    12.000000000000
         C            0.463406119831    -0.403280213396    -0.486950992100    12.000000000000
         C           -1.874927880169     0.077520786604     0.504730007900    12.000000000000
         C            1.253907119831     0.361550786604     0.572772007900    12.000000000000
         C           -2.224574880169     1.131185786604    -0.538582992100    12.000000000000
         C            2.634118119831     0.662128786604     0.014259007900    12.000000000000
         H           -0.632392880169    -1.619193213396     0.878563007900     1.007825032230
         H            0.277275119831     0.256884786604    -1.347617992100     1.007825032230
         H           -1.509895880169     0.563242786604     1.424832007900     1.007825032230
         H            0.752645119831     1.309382786604     0.800053007900     1.007825032230
         H           -2.457861880169     0.638474786604    -1.483751992100     1.007825032230
         H           -1.401549880169     1.838434786604    -0.700366992100     1.007825032230
         H           -2.275896880169    -1.984627213396    -0.749435992100     1.007825032230
         H            0.706065119831    -2.100755213396    -1.371027992100     1.007825032230
         H           -3.787743880169    -0.041816213396     0.713108007900     1.007825032230
         H            2.103015119831    -0.984388213396     1.643981007900     1.007825032230
         H           -3.191040880169     2.427241786604     0.573721007900     1.007825032230
         H            3.491403119831     1.641081786604    -1.340809992100     1.007825032230

  Basis Set: AUG-CC-PVTZ
    Blend: AUG-CC-PVTZ
  Basis Set: (AUG-CC-PVTZ AUX)
    Blend: AUG-CC-PVTZ-JKFIT
	 Reference Energy          =    -758.5191701823709991 [Eh]
	 Singles Energy            =      -0.0000000000000000 [Eh]
	 Same-Spin Energy          =      -0.7349263539913965 [Eh]
	 Opposite-Spin Energy      =      -2.2319657153857801 [Eh]
	 Correlation Energy        =      -2.9668920693771765 [Eh]
	 Total Energy              =    -761.4860622517481943 [Eh]

	 ================> DF-SCS-MP2 Energies <==================
	-----------------------------------------------------------
	 SCS Same-Spin Scale       =       0.3333333333333333 [-]
	 SCS Opposite-Spin Scale   =       1.2000000000000000 [-]
	 SCS Same-Spin Energy      =      -0.2449754513304655 [Eh]
	 SCS Opposite-Spin Energy  =      -2.6783588584629361 [Eh]
	 SCS Correlation Energy    =      -2.9233343097934017 [Eh]
	 SCS Total Energy          =    -761.4425044921644030 [Eh]
	-----------------------------------------------------------

  Dipole Moment: [D]
     X:    -0.8965      Y:     2.8634      Z:    -1.0071     Total:     3.1650

*** Psi4 exiting successfully. Buy a developer a beer!
