                               Psi4 1.4a3.dev225

  ==> Input File <==

--------------------------------------------------------------------------
#psi4
#
memory 32 gb

molecule  {
0 1
  O       -1.3621950    -1.7118670    -1.0487160
  O        1.3250660    -1.5098260    -0.8661080
  O       -3.0202870    -0.6972320     0.8011600
  O        1.4000820    -0.3698310     1.7931610
  O       -3.3935320     1.8007080    -0.1346550
  O        2.6070010     1.5395500    -0.9938350
  O        3.6924620     0.1319130     0.4259740
  C       -0.8211920    -0.9649900     0.0477000
  C        0.4956150    -0.4174700    -0.4760140
  C       -1.8427190     0.0633310     0.5156670
  C        1.2861160     0.3473610     0.5837090
  C       -2.1969561     1.1308284    -0.5413425
  C        2.6663270     0.6479390     0.0251960
  H       -0.6001840    -1.6333830     0.8895000
  H        0.3094840     0.2426950    -1.3366810
  H       -1.4776870     0.5490530     1.4357690
  H        0.7848540     1.2951930     0.8109900
  H       -2.4256530     0.6242850    -1.4728150
  H       -1.3693410     1.8242450    -0.6894300
  H       -2.2436880    -1.9988170    -0.7384990
  H        0.7382740    -2.1149450    -1.3600910
  H       -3.7555350    -0.0560060     0.7240450
  H        2.1352240    -0.9985780     1.6549180
  H       -3.1588320     2.4130520     0.5846580
  H        3.5236120     1.6268920    -1.3298730
units angstrom
no_reorient  #important for SAPT in psi4, default
symmetry c1  #important for SAPT in psi4, default
}

set PROPERTIES_ORIGIN ["COM"]
properties('MP2/aug-cc-pvtz', properties = ['dipole'])
--------------------------------------------------------------------------

    Molecular point group: c1
  Charge       = 0
  Multiplicity = 1
  Basis Set: AUG-CC-PVTZ
    Blend: AUG-CC-PVTZ
  Basis Set: (AUG-CC-PVTZ AUX)
    Blend: AUG-CC-PVTZ-JKFIT

    Orbital Energies [Eh]
    ---------------------

    Doubly Occupied:

       1A    -20.631375     2A    -20.592612     3A    -20.575002
       4A    -20.574629     5A    -20.572788     6A    -20.570212
       7A    -20.565000     8A    -11.401795     9A    -11.318120
      10A    -11.304108    11A    -11.302332    12A    -11.300045
      13A    -11.295255    14A     -1.476210    15A     -1.407764
      16A     -1.396677    17A     -1.384095    18A     -1.369810
      19A     -1.362532    20A     -1.350398    21A     -1.079179
      22A     -1.026255    23A     -0.960532    24A     -0.888706
      25A     -0.830524    26A     -0.802437    27A     -0.757616
      28A     -0.736365    29A     -0.725103    30A     -0.717312
      31A     -0.712099    32A     -0.682213    33A     -0.676169
      34A     -0.649831    35A     -0.639999    36A     -0.636697
      37A     -0.628354    38A     -0.606973    39A     -0.604238
      40A     -0.581018    41A     -0.553351    42A     -0.549736
      43A     -0.539639    44A     -0.535009    45A     -0.531235
      46A     -0.504261    47A     -0.495635    48A     -0.484363
      49A     -0.465249    50A     -0.459094    51A     -0.455070
      52A     -0.440796

  @DF-RHF Final Energy:  -758.52355044970068

   => Energetics <=

    Nuclear Repulsion Energy =            915.2687395791250538
    One-Electron Energy =               -2862.1729450708676268
    Two-Electron Energy =                1188.3806550420420081
    Total Energy =                       -758.5235504497006787
  Basis Set: (AUG-CC-PVTZ AUX)
    Blend: AUG-CC-PVTZ-RI
    Molecular point group: c1

    Geometry (in Angstrom), charge = 0, multiplicity = 1:

       Center              X                  Y                   Z               Mass
    ------------   -----------------  -----------------  -----------------  -----------------
         O           -1.400035910050    -1.703758955697    -1.052066099265    15.994914619570
         O            1.287225089950    -1.501717955697    -0.869458099265    15.994914619570
         O           -3.058127910050    -0.689123955697     0.797809900735    15.994914619570
         O            1.362241089950    -0.361722955697     1.789810900735    15.994914619570
         O           -3.431372910050     1.808816044303    -0.138005099265    15.994914619570
         O            2.569160089950     1.547658044303    -0.997185099265    15.994914619570
         O            3.654621089950     0.140021044303     0.422623900735    15.994914619570
         C           -0.859032910050    -0.956881955697     0.044349900735    12.000000000000
         C            0.457774089950    -0.409361955697    -0.479364099265    12.000000000000
         C           -1.880559910050     0.071439044303     0.512316900735    12.000000000000
         C            1.248275089950     0.355469044303     0.580358900735    12.000000000000
         C           -2.234797010050     1.138936444303    -0.544692599265    12.000000000000
         C            2.628486089950     0.656047044303     0.021845900735    12.000000000000
         H           -0.638024910050    -1.625274955697     0.886149900735     1.007825032230
         H            0.271643089950     0.250803044303    -1.340031099265     1.007825032230
         H           -1.515527910050     0.557161044303     1.432418900735     1.007825032230
         H            0.747013089950     1.303301044303     0.807639900735     1.007825032230
         H           -2.463493910050     0.632393044303    -1.476165099265     1.007825032230
         H           -1.407181910050     1.832353044303    -0.692780099265     1.007825032230
         H           -2.281528910050    -1.990708955697    -0.741849099265     1.007825032230
         H            0.700433089950    -2.106836955697    -1.363441099265     1.007825032230
         H           -3.793375910050    -0.047897955697     0.720694900735     1.007825032230
         H            2.097383089950    -0.990469955697     1.651567900735     1.007825032230
         H           -3.196672910050     2.421160044303     0.581307900735     1.007825032230
         H            3.485771089950     1.635000044303    -1.333223099265     1.007825032230

  Basis Set: AUG-CC-PVTZ
    Blend: AUG-CC-PVTZ
  Basis Set: (AUG-CC-PVTZ AUX)
    Blend: AUG-CC-PVTZ-JKFIT
	 Reference Energy          =    -758.5235504497006787 [Eh]
	 Singles Energy            =      -0.0000000000000000 [Eh]
	 Same-Spin Energy          =      -0.7341751968203087 [Eh]
	 Opposite-Spin Energy      =      -2.2308020455912478 [Eh]
	 Correlation Energy        =      -2.9649772424115568 [Eh]
	 Total Energy              =    -761.4885276921122568 [Eh]

	 ================> DF-SCS-MP2 Energies <==================
	-----------------------------------------------------------
	 SCS Same-Spin Scale       =       0.3333333333333333 [-]
	 SCS Opposite-Spin Scale   =       1.2000000000000000 [-]
	 SCS Same-Spin Energy      =      -0.2447250656067696 [Eh]
	 SCS Opposite-Spin Energy  =      -2.6769624547094972 [Eh]
	 SCS Correlation Energy    =      -2.9216875203162669 [Eh]
	 SCS Total Energy          =    -761.4452379700169331 [Eh]
	-----------------------------------------------------------

  Dipole Moment: [D]
     X:    -1.2379      Y:     2.7053      Z:    -0.8084     Total:     3.0830

*** Psi4 exiting successfully. Buy a developer a beer!
