                               Psi4 1.4a3.dev225

  ==> Input File <==

--------------------------------------------------------------------------
#psi4
#
memory 32 gb

molecule  {
0 1
  O       -1.3621950    -1.7118670    -1.0487160
  O        1.3250660    -1.5098260    -0.8661080
  O       -3.0202870    -0.6972320     0.8011600
  O        1.4000820    -0.3698310     1.7931610
  O       -3.3935320     1.8007080    -0.1346550
  O        2.6070010     1.5395500    -0.9938350
  O        3.6924620     0.1319130     0.4259740
  C       -0.8211920    -0.9649900     0.0477000
  C        0.4956150    -0.4174700    -0.4760140
  C       -1.8427190     0.0633310     0.5156670
  C        1.2861160     0.3473610     0.5837090
  C       -2.1923660     1.1169960    -0.5276460
  C        2.6663270     0.6479390     0.0251960
  H       -0.6001840    -1.6333830     0.8895000
  H        0.3094840     0.2426950    -1.3366810
  H       -1.4776870     0.5490530     1.4357690
  H        0.7848540     1.2951930     0.8109900
  H       -2.4256530     0.6242850    -1.4728150
  H       -1.3693410     1.8242450    -0.6894300
  H       -2.2436880    -1.9988170    -0.7384990
  H        0.7262618    -2.1273324    -1.3702033
  H       -3.7555350    -0.0560060     0.7240450
  H        2.1352240    -0.9985780     1.6549180
  H       -3.1588320     2.4130520     0.5846580
  H        3.5236120     1.6268920    -1.3298730
units angstrom
no_reorient  #important for SAPT in psi4, default
symmetry c1  #important for SAPT in psi4, default
}

set PROPERTIES_ORIGIN ["COM"]
properties('MP2/aug-cc-pvtz', properties = ['dipole'])
--------------------------------------------------------------------------

    Molecular point group: c1
  Charge       = 0
  Multiplicity = 1
  Basis Set: AUG-CC-PVTZ
    Blend: AUG-CC-PVTZ
  Basis Set: (AUG-CC-PVTZ AUX)
    Blend: AUG-CC-PVTZ-JKFIT

    Orbital Energies [Eh]
    ---------------------

    Doubly Occupied:

       1A    -20.631320     2A    -20.592017     3A    -20.575265
       4A    -20.574640     5A    -20.573313     6A    -20.571596
       7A    -20.564963     8A    -11.401768     9A    -11.318106
      10A    -11.304029    11A    -11.302178    12A    -11.300396
      13A    -11.295749    14A     -1.476154    15A     -1.407403
      16A     -1.395535    17A     -1.383374    18A     -1.368620
      19A     -1.361840    20A     -1.349313    21A     -1.079742
      22A     -1.027843    23A     -0.961132    24A     -0.887694
      25A     -0.830559    26A     -0.801640    27A     -0.757191
      28A     -0.736473    29A     -0.725280    30A     -0.715232
      31A     -0.712353    32A     -0.682903    33A     -0.675215
      34A     -0.649484    35A     -0.640090    36A     -0.635937
      37A     -0.628195    38A     -0.606731    39A     -0.601848
      40A     -0.580693    41A     -0.553017    42A     -0.550107
      43A     -0.539000    44A     -0.534109    45A     -0.530728
      46A     -0.503258    47A     -0.495581    48A     -0.484228
      49A     -0.466138    50A     -0.459924    51A     -0.455100
      52A     -0.442729

  @DF-RHF Final Energy:  -758.52192185224158

   => Energetics <=

    Nuclear Repulsion Energy =            915.4626116994953691
    One-Electron Energy =               -2862.5736011529124880
    Two-Electron Energy =                1188.5890676011754294
    Total Energy =                       -758.5219218522415758
  Basis Set: (AUG-CC-PVTZ AUX)
    Blend: AUG-CC-PVTZ-RI
    Molecular point group: c1

    Geometry (in Angstrom), charge = 0, multiplicity = 1:

       Center              X                  Y                   Z               Mass
    ------------   -----------------  -----------------  -----------------  -----------------
         O           -1.400255105072    -1.702848649276    -1.052852429498    15.994914619570
         O            1.287005894928    -1.500807649276    -0.870244429498    15.994914619570
         O           -3.058347105072    -0.688213649276     0.797023570502    15.994914619570
         O            1.362021894928    -0.360812649276     1.789024570502    15.994914619570
         O           -3.431592105072     1.809726350724    -0.138791429498    15.994914619570
         O            2.568940894927     1.548568350724    -0.997971429498    15.994914619570
         O            3.654401894928     0.140931350724     0.421837570502    15.994914619570
         C           -0.859252105072    -0.955971649276     0.043563570502    12.000000000000
         C            0.457554894928    -0.408451649276    -0.480150429498    12.000000000000
         C           -1.880779105072     0.072349350724     0.511530570502    12.000000000000
         C            1.248055894927     0.356379350724     0.579572570502    12.000000000000
         C           -2.230426105072     1.126014350724    -0.531782429498    12.000000000000
         C            2.628266894928     0.656957350724     0.021059570502    12.000000000000
         H           -0.638244105072    -1.624364649276     0.885363570502     1.007825032230
         H            0.271423894928     0.251713350724    -1.340817429498     1.007825032230
         H           -1.515747105072     0.558071350724     1.431632570502     1.007825032230
         H            0.746793894928     1.304211350724     0.806853570502     1.007825032230
         H           -2.463713105072     0.633303350724    -1.476951429498     1.007825032230
         H           -1.407401105072     1.833263350724    -0.693566429498     1.007825032230
         H           -2.281748105072    -1.989798649276    -0.742635429498     1.007825032230
         H            0.688201694928    -2.118314049276    -1.374339729498     1.007825032230
         H           -3.793595105072    -0.046987649276     0.719908570502     1.007825032230
         H            2.097163894928    -0.989559649276     1.650781570502     1.007825032230
         H           -3.196892105072     2.422070350724     0.580521570502     1.007825032230
         H            3.485551894928     1.635910350724    -1.334009429498     1.007825032230

  Basis Set: AUG-CC-PVTZ
    Blend: AUG-CC-PVTZ
  Basis Set: (AUG-CC-PVTZ AUX)
    Blend: AUG-CC-PVTZ-JKFIT
	 Reference Energy          =    -758.5219218522415758 [Eh]
	 Singles Energy            =      -0.0000000000000000 [Eh]
	 Same-Spin Energy          =      -0.7345931531805742 [Eh]
	 Opposite-Spin Energy      =      -2.2316525655406574 [Eh]
	 Correlation Energy        =      -2.9662457187212317 [Eh]
	 Total Energy              =    -761.4881675709627871 [Eh]

	 ================> DF-SCS-MP2 Energies <==================
	-----------------------------------------------------------
	 SCS Same-Spin Scale       =       0.3333333333333333 [-]
	 SCS Opposite-Spin Scale   =       1.2000000000000000 [-]
	 SCS Same-Spin Energy      =      -0.2448643843935247 [Eh]
	 SCS Opposite-Spin Energy  =      -2.6779830786487886 [Eh]
	 SCS Correlation Energy    =      -2.9228474630423134 [Eh]
	 SCS Total Energy          =    -761.4447693152839065 [Eh]
	-----------------------------------------------------------

  Dipole Moment: [D]
     X:    -1.2276      Y:     2.6585      Z:    -0.8148     Total:     3.0394

*** Psi4 exiting successfully. Buy a developer a beer!
