                               Psi4 1.4a3.dev225

  ==> Input File <==

--------------------------------------------------------------------------
#psi4
#
memory 32 gb

molecule  {
0 1
  O       -1.3621950    -1.7118670    -1.0487160
  O        1.3250660    -1.5098260    -0.8661080
  O       -3.0202870    -0.6972320     0.8011600
  O        1.4000820    -0.3698310     1.7931610
  O       -3.3935320     1.8007080    -0.1346550
  O        2.6070010     1.5395500    -0.9938350
  O        3.6924620     0.1319130     0.4259740
  C       -0.8211920    -0.9649900     0.0477000
  C        0.4956150    -0.4174700    -0.4760140
  C       -1.8427190     0.0633310     0.5156670
  C        1.2861160     0.3473610     0.5837090
  C       -2.1923660     1.1169960    -0.5276460
  C        2.6663270     0.6479390     0.0251960
  H       -0.6001840    -1.6333830     0.8895000
  H        0.3094840     0.2426950    -1.3366810
  H       -1.4776870     0.5490530     1.4357690
  H        0.6933862     1.4681486     0.8524631
  H       -2.4256530     0.6242850    -1.4728150
  H       -1.3693410     1.8242450    -0.6894300
  H       -2.2436880    -1.9988170    -0.7384990
  H        0.7382740    -2.1149450    -1.3600910
  H       -3.7555350    -0.0560060     0.7240450
  H        2.1352240    -0.9985780     1.6549180
  H       -3.1588320     2.4130520     0.5846580
  H        3.5236120     1.6268920    -1.3298730
units angstrom
no_reorient  #important for SAPT in psi4, default
symmetry c1  #important for SAPT in psi4, default
}

set PROPERTIES_ORIGIN ["COM"]
properties('MP2/aug-cc-pvtz', properties = ['dipole'])
--------------------------------------------------------------------------

    Molecular point group: c1
  Charge       = 0
  Multiplicity = 1
  Basis Set: AUG-CC-PVTZ
    Blend: AUG-CC-PVTZ
  Basis Set: (AUG-CC-PVTZ AUX)
    Blend: AUG-CC-PVTZ-JKFIT

    Orbital Energies [Eh]
    ---------------------

    Doubly Occupied:

       1A    -20.631221     2A    -20.591357     3A    -20.578425
       4A    -20.574631     5A    -20.573246     6A    -20.572037
       7A    -20.566538     8A    -11.403979     9A    -11.340156
      10A    -11.306350    11A    -11.301331    12A    -11.299487
      13A    -11.296016    14A     -1.476627    15A     -1.407870
      16A     -1.397390    17A     -1.384455    18A     -1.370079
      19A     -1.363651    20A     -1.350952    21A     -1.078089
      22A     -1.023870    23A     -0.959762    24A     -0.888042
      25A     -0.827180    26A     -0.796043    27A     -0.754914
      28A     -0.737610    29A     -0.723713    30A     -0.714472
      31A     -0.712572    32A     -0.682790    33A     -0.676398
      34A     -0.650857    35A     -0.640553    36A     -0.630721
      37A     -0.627487    38A     -0.606259    39A     -0.599028
      40A     -0.576293    41A     -0.551122    42A     -0.549666
      43A     -0.538218    44A     -0.533918    45A     -0.526122
      46A     -0.502492    47A     -0.496166    48A     -0.479996
      49A     -0.466678    50A     -0.460826    51A     -0.454788
      52A     -0.443141

  @DF-RHF Final Energy:  -758.50259067190848

   => Energetics <=

    Nuclear Repulsion Energy =            914.5668167972747824
    One-Electron Energy =               -2860.7476402331253666
    Two-Electron Energy =                1187.6782327639421055
    Total Energy =                       -758.5025906719083650
  Basis Set: (AUG-CC-PVTZ AUX)
    Blend: AUG-CC-PVTZ-RI
    Molecular point group: c1

    Geometry (in Angstrom), charge = 0, multiplicity = 1:

       Center              X                  Y                   Z               Mass
    ------------   -----------------  -----------------  -----------------  -----------------
         O           -1.399846668697    -1.703801392987    -1.053117600912    15.994914619570
         O            1.287414331303    -1.501760392987    -0.870509600912    15.994914619570
         O           -3.057938668697    -0.689166392987     0.796758399088    15.994914619570
         O            1.362430331303    -0.361765392987     1.788759399088    15.994914619570
         O           -3.431183668697     1.808773607013    -0.139056600912    15.994914619570
         O            2.569349331303     1.547615607013    -0.998236600912    15.994914619570
         O            3.654810331303     0.139978607013     0.421572399088    15.994914619570
         C           -0.858843668697    -0.956924392987     0.043298399088    12.000000000000
         C            0.457963331303    -0.409404392987    -0.480415600912    12.000000000000
         C           -1.880370668697     0.071396607013     0.511265399088    12.000000000000
         C            1.248464331303     0.355426607013     0.579307399088    12.000000000000
         C           -2.230017668697     1.125061607013    -0.532047600912    12.000000000000
         C            2.628675331303     0.656004607013     0.020794399088    12.000000000000
         H           -0.637835668697    -1.625317392987     0.885098399088     1.007825032230
         H            0.271832331303     0.250760607013    -1.341082600912     1.007825032230
         H           -1.515338668697     0.557118607013     1.431367399088     1.007825032230
         H            0.655734531303     1.476214207013     0.848061499088     1.007825032230
         H           -2.463304668697     0.632350607013    -1.477216600912     1.007825032230
         H           -1.406992668697     1.832310607013    -0.693831600912     1.007825032230
         H           -2.281339668697    -1.990751392987    -0.742900600912     1.007825032230
         H            0.700622331303    -2.106879392987    -1.364492600912     1.007825032230
         H           -3.793186668697    -0.047940392987     0.719643399088     1.007825032230
         H            2.097572331303    -0.990512392987     1.650516399088     1.007825032230
         H           -3.196483668697     2.421117607013     0.580256399088     1.007825032230
         H            3.485960331303     1.634957607013    -1.334274600912     1.007825032230

  Basis Set: AUG-CC-PVTZ
    Blend: AUG-CC-PVTZ
  Basis Set: (AUG-CC-PVTZ AUX)
    Blend: AUG-CC-PVTZ-JKFIT
	 Reference Energy          =    -758.5025906719084787 [Eh]
	 Singles Energy            =      -0.0000000000000000 [Eh]
	 Same-Spin Energy          =      -0.7348358524137699 [Eh]
	 Opposite-Spin Energy      =      -2.2330908395517679 [Eh]
	 Correlation Energy        =      -2.9679266919655376 [Eh]
	 Total Energy              =    -761.4705173638740234 [Eh]

	 ================> DF-SCS-MP2 Energies <==================
	-----------------------------------------------------------
	 SCS Same-Spin Scale       =       0.3333333333333333 [-]
	 SCS Opposite-Spin Scale   =       1.2000000000000000 [-]
	 SCS Same-Spin Energy      =      -0.2449452841379233 [Eh]
	 SCS Opposite-Spin Energy  =      -2.6797090074621215 [Eh]
	 SCS Correlation Energy    =      -2.9246542916000449 [Eh]
	 SCS Total Energy          =    -761.4272449635085422 [Eh]
	-----------------------------------------------------------

  Dipole Moment: [D]
     X:    -1.1449      Y:     2.5916      Z:    -0.7851     Total:     2.9399

*** Psi4 exiting successfully. Buy a developer a beer!
