                               Psi4 1.4a3.dev225

  ==> Input File <==

--------------------------------------------------------------------------
#psi4
#
memory 32 gb

molecule  {
0 1
  O       -1.3621950    -1.7118670    -1.0487160
  O        1.3250660    -1.5098260    -0.8661080
  O       -3.0202870    -0.6972320     0.8011600
  O        1.4000820    -0.3698310     1.7931610
  O       -3.3935320     1.8007080    -0.1346550
  O        2.6070010     1.5395500    -0.9938350
  O        3.6924620     0.1319130     0.4259740
  C       -0.8211920    -0.9649900     0.0477000
  C        0.4956150    -0.4174700    -0.4760140
  C       -1.8427190     0.0633310     0.5156670
  C        1.2861160     0.3473610     0.5837090
  C       -2.1923660     1.1169960    -0.5276460
  C        2.6663270     0.6479390     0.0251960
  H       -0.6001840    -1.6333830     0.8895000
  H        0.3010277     0.2726875    -1.3757827
  H       -1.4776870     0.5490530     1.4357690
  H        0.7848540     1.2951930     0.8109900
  H       -2.4256530     0.6242850    -1.4728150
  H       -1.3693410     1.8242450    -0.6894300
  H       -2.2436880    -1.9988170    -0.7384990
  H        0.7382740    -2.1149450    -1.3600910
  H       -3.7555350    -0.0560060     0.7240450
  H        2.1352240    -0.9985780     1.6549180
  H       -3.1588320     2.4130520     0.5846580
  H        3.5236120     1.6268920    -1.3298730
units angstrom
no_reorient  #important for SAPT in psi4, default
symmetry c1  #important for SAPT in psi4, default
}

set PROPERTIES_ORIGIN ["COM"]
properties('MP2/aug-cc-pvtz', properties = ['dipole'])
--------------------------------------------------------------------------

    Molecular point group: c1
  Charge       = 0
  Multiplicity = 1
  Basis Set: AUG-CC-PVTZ
    Blend: AUG-CC-PVTZ
  Basis Set: (AUG-CC-PVTZ AUX)
    Blend: AUG-CC-PVTZ-JKFIT

    Orbital Energies [Eh]
    ---------------------

    Doubly Occupied:

       1A    -20.631235     2A    -20.591807     3A    -20.575275
       4A    -20.575216     5A    -20.573130     6A    -20.571433
       7A    -20.565138     8A    -11.401934     9A    -11.318696
      10A    -11.310067    11A    -11.302217    12A    -11.300124
      13A    -11.296366    14A     -1.476192    15A     -1.407814
      16A     -1.396547    17A     -1.383764    18A     -1.369644
      19A     -1.362722    20A     -1.350791    21A     -1.079440
      22A     -1.027890    23A     -0.961041    24A     -0.886445
      25A     -0.830698    26A     -0.800963    27A     -0.757257
      28A     -0.736610    29A     -0.724561    30A     -0.714950
      31A     -0.710777    32A     -0.682555    33A     -0.676221
      34A     -0.650012    35A     -0.639941    36A     -0.636931
      37A     -0.627829    38A     -0.607031    39A     -0.601831
      40A     -0.579631    41A     -0.553262    42A     -0.550083
      43A     -0.539612    44A     -0.534179    45A     -0.530861
      46A     -0.503016    47A     -0.495708    48A     -0.484774
      49A     -0.465223    50A     -0.460206    51A     -0.454254
      52A     -0.442614

  @DF-RHF Final Energy:  -758.52110769146930

   => Energetics <=

    Nuclear Repulsion Energy =            915.3079128216825211
    One-Electron Energy =               -2862.2450058917861497
    Two-Electron Energy =                1188.4159853786343319
    Total Energy =                       -758.5211076914692967
  Basis Set: (AUG-CC-PVTZ AUX)
    Blend: AUG-CC-PVTZ-RI
    Molecular point group: c1

    Geometry (in Angstrom), charge = 0, multiplicity = 1:

       Center              X                  Y                   Z               Mass
    ------------   -----------------  -----------------  -----------------  -----------------
         O           -1.400273383947    -1.703066500413    -1.052703411361    15.994914619570
         O            1.286987616053    -1.501025500413    -0.870095411361    15.994914619570
         O           -3.058365383947    -0.688431500413     0.797172588639    15.994914619570
         O            1.362003616053    -0.361030500413     1.789173588639    15.994914619570
         O           -3.431610383947     1.809508499587    -0.138642411361    15.994914619570
         O            2.568922616053     1.548350499587    -0.997822411361    15.994914619570
         O            3.654383616053     0.140713499587     0.421986588639    15.994914619570
         C           -0.859270383947    -0.956189500413     0.043712588639    12.000000000000
         C            0.457536616053    -0.408669500413    -0.480001411361    12.000000000000
         C           -1.880797383947     0.072131499587     0.511679588639    12.000000000000
         C            1.248037616053     0.356161499587     0.579721588639    12.000000000000
         C           -2.230444383947     1.125796499587    -0.531633411361    12.000000000000
         C            2.628248616053     0.656739499587     0.021208588639    12.000000000000
         H           -0.638262383947    -1.624582500413     0.885512588639     1.007825032230
         H            0.262949316053     0.281487999587    -1.379770111361     1.007825032230
         H           -1.515765383947     0.557853499587     1.431781588639     1.007825032230
         H            0.746775616053     1.303993499587     0.807002588639     1.007825032230
         H           -2.463731383947     0.633085499587    -1.476802411361     1.007825032230
         H           -1.407419383947     1.833045499587    -0.693417411361     1.007825032230
         H           -2.281766383947    -1.990016500413    -0.742486411361     1.007825032230
         H            0.700195616053    -2.106144500413    -1.364078411361     1.007825032230
         H           -3.793613383947    -0.047205500413     0.720057588639     1.007825032230
         H            2.097145616053    -0.989777500413     1.650930588639     1.007825032230
         H           -3.196910383947     2.421852499587     0.580670588639     1.007825032230
         H            3.485533616053     1.635692499587    -1.333860411361     1.007825032230

  Basis Set: AUG-CC-PVTZ
    Blend: AUG-CC-PVTZ
  Basis Set: (AUG-CC-PVTZ AUX)
    Blend: AUG-CC-PVTZ-JKFIT
	 Reference Energy          =    -758.5211076914692967 [Eh]
	 Singles Energy            =      -0.0000000000000000 [Eh]
	 Same-Spin Energy          =      -0.7344854674710568 [Eh]
	 Opposite-Spin Energy      =      -2.2315400695254390 [Eh]
	 Correlation Energy        =      -2.9660255369964958 [Eh]
	 Total Energy              =    -761.4871332284658365 [Eh]

	 ================> DF-SCS-MP2 Energies <==================
	-----------------------------------------------------------
	 SCS Same-Spin Scale       =       0.3333333333333333 [-]
	 SCS Opposite-Spin Scale   =       1.2000000000000000 [-]
	 SCS Same-Spin Energy      =      -0.2448284891570189 [Eh]
	 SCS Opposite-Spin Energy  =      -2.6778480834305269 [Eh]
	 SCS Correlation Energy    =      -2.9226765725875459 [Eh]
	 SCS Total Energy          =    -761.4437842640568306 [Eh]
	-----------------------------------------------------------

  Dipole Moment: [D]
     X:    -1.1979      Y:     2.6483      Z:    -0.7895     Total:     3.0120

*** Psi4 exiting successfully. Buy a developer a beer!
