                               Psi4 1.4a3.dev225

  ==> Input File <==

--------------------------------------------------------------------------
#psi4
#
memory 32 gb

molecule  {
0 1
  O       -1.3621950    -1.7118670    -1.0487160
  O        1.3250660    -1.5098260    -0.8661080
  O       -3.0202870    -0.6972320     0.8011600
  O        1.4000820    -0.3698310     1.7931610
  O       -3.3935320     1.8007080    -0.1346550
  O        2.6070010     1.5395500    -0.9938350
  O        3.6924620     0.1319130     0.4259740
  C       -0.8211920    -0.9649900     0.0477000
  C        0.3792804    -0.2642617    -0.4213014
  C       -1.8427190     0.0633310     0.5156670
  C        1.2861160     0.3473610     0.5837090
  C       -2.1923660     1.1169960    -0.5276460
  C        2.6663270     0.6479390     0.0251960
  H       -0.6001840    -1.6333830     0.8895000
  H        0.3094840     0.2426950    -1.3366810
  H       -1.4776870     0.5490530     1.4357690
  H        0.7848540     1.2951930     0.8109900
  H       -2.4256530     0.6242850    -1.4728150
  H       -1.3693410     1.8242450    -0.6894300
  H       -2.2436880    -1.9988170    -0.7384990
  H        0.7382740    -2.1149450    -1.3600910
  H       -3.7555350    -0.0560060     0.7240450
  H        2.1352240    -0.9985780     1.6549180
  H       -3.1588320     2.4130520     0.5846580
  H        3.5236120     1.6268920    -1.3298730
units angstrom
no_reorient  #important for SAPT in psi4, default
symmetry c1  #important for SAPT in psi4, default
}

set PROPERTIES_ORIGIN ["COM"]
properties('MP2/aug-cc-pvtz', properties = ['dipole'])
--------------------------------------------------------------------------

    Molecular point group: c1
  Charge       = 0
  Multiplicity = 1
  Basis Set: AUG-CC-PVTZ
    Blend: AUG-CC-PVTZ
  Basis Set: (AUG-CC-PVTZ AUX)
    Blend: AUG-CC-PVTZ-JKFIT

    Orbital Energies [Eh]
    ---------------------

    Doubly Occupied:

       1A    -20.633432     2A    -20.595361     3A    -20.578579
       4A    -20.576826     5A    -20.576392     6A    -20.567151
       7A    -20.546407     8A    -11.406894     9A    -11.324800
      10A    -11.310027    11A    -11.304763    12A    -11.303827
      13A    -11.301671    14A     -1.478094    15A     -1.408514
      16A     -1.393919    17A     -1.384258    18A     -1.367965
      19A     -1.359555    20A     -1.303634    21A     -1.102029
      22A     -1.035955    23A     -0.969761    24A     -0.893774
      25A     -0.837934    26A     -0.802877    27A     -0.752948
      28A     -0.741839    29A     -0.726877    30A     -0.718741
      31A     -0.716688    32A     -0.684237    33A     -0.673101
      34A     -0.648837    35A     -0.639440    36A     -0.637468
      37A     -0.619860    38A     -0.610207    39A     -0.603913
      40A     -0.579145    41A     -0.553023    42A     -0.547396
      43A     -0.539693    44A     -0.533752    45A     -0.513543
      46A     -0.500029    47A     -0.492279    48A     -0.484886
      49A     -0.469141    50A     -0.467366    51A     -0.453747
      52A     -0.447600

  @DF-RHF Final Energy:  -758.48863296065429

   => Energetics <=

    Nuclear Repulsion Energy =            915.4494942617886863
    One-Electron Energy =               -2862.4359431120778936
    Two-Electron Energy =                1188.4978158896349214
    Total Energy =                       -758.4886329606542859
  Basis Set: (AUG-CC-PVTZ AUX)
    Blend: AUG-CC-PVTZ-RI
    Molecular point group: c1

    Geometry (in Angstrom), charge = 0, multiplicity = 1:

       Center              X                  Y                   Z               Mass
    ------------   -----------------  -----------------  -----------------  -----------------
         O           -1.393196444537    -1.712289636503    -1.056253166013    15.994914619570
         O            1.294064555463    -1.510248636503    -0.873645166013    15.994914619570
         O           -3.051288444537    -0.697654636503     0.793622833987    15.994914619570
         O            1.369080555463    -0.370253636503     1.785623833987    15.994914619570
         O           -3.424533444537     1.800285363497    -0.142192166013    15.994914619570
         O            2.575999555463     1.539127363497    -1.001372166013    15.994914619570
         O            3.661460555463     0.131490363497     0.418436833987    15.994914619570
         C           -0.852193444537    -0.965412636503     0.040162833987    12.000000000000
         C            0.348278955463    -0.264684336503    -0.428838566013    12.000000000000
         C           -1.873720444537     0.062908363497     0.508129833987    12.000000000000
         C            1.255114555463     0.346938363497     0.576171833987    12.000000000000
         C           -2.223367444537     1.116573363497    -0.535183166013    12.000000000000
         C            2.635325555463     0.647516363497     0.017658833987    12.000000000000
         H           -0.631185444537    -1.633805636503     0.881962833987     1.007825032230
         H            0.278482555463     0.242272363497    -1.344218166013     1.007825032230
         H           -1.508688444537     0.548630363497     1.428231833987     1.007825032230
         H            0.753852555463     1.294770363497     0.803452833987     1.007825032230
         H           -2.456654444537     0.623862363497    -1.480352166013     1.007825032230
         H           -1.400342444537     1.823822363497    -0.696967166013     1.007825032230
         H           -2.274689444537    -1.999239636503    -0.746036166013     1.007825032230
         H            0.707272555463    -2.115367636503    -1.367628166013     1.007825032230
         H           -3.786536444537    -0.056428636503     0.716507833987     1.007825032230
         H            2.104222555463    -0.999000636503     1.647380833987     1.007825032230
         H           -3.189833444537     2.412629363497     0.577120833987     1.007825032230
         H            3.492610555463     1.626469363497    -1.337410166013     1.007825032230

  Basis Set: AUG-CC-PVTZ
    Blend: AUG-CC-PVTZ
  Basis Set: (AUG-CC-PVTZ AUX)
    Blend: AUG-CC-PVTZ-JKFIT
	 Reference Energy          =    -758.4886329606542859 [Eh]
	 Singles Energy            =      -0.0000000000000000 [Eh]
	 Same-Spin Energy          =      -0.7365518322058553 [Eh]
	 Opposite-Spin Energy      =      -2.2372878835815135 [Eh]
	 Correlation Energy        =      -2.9738397157873688 [Eh]
	 Total Energy              =    -761.4624726764416209 [Eh]

	 ================> DF-SCS-MP2 Energies <==================
	-----------------------------------------------------------
	 SCS Same-Spin Scale       =       0.3333333333333333 [-]
	 SCS Opposite-Spin Scale   =       1.2000000000000000 [-]
	 SCS Same-Spin Energy      =      -0.2455172774019518 [Eh]
	 SCS Opposite-Spin Energy  =      -2.6847454602978162 [Eh]
	 SCS Correlation Energy    =      -2.9302627376997679 [Eh]
	 SCS Total Energy          =    -761.4188956983540493 [Eh]
	-----------------------------------------------------------

  Dipole Moment: [D]
     X:    -1.4908      Y:     3.0881      Z:    -0.6084     Total:     3.4827

*** Psi4 exiting successfully. Buy a developer a beer!
