                               Psi4 1.4a3.dev225

  ==> Input File <==

--------------------------------------------------------------------------
#psi4
#
memory 32 gb

molecule  {
0 1
  O       -1.3621950    -1.7118670    -1.0487160
  O        1.3250660    -1.5098260    -0.8661080
  O       -3.0202870    -0.6972320     0.8011600
  O        1.4000820    -0.3698310     1.7931610
  O       -3.3935320     1.8007080    -0.1346550
  O        2.6070010     1.5395500    -0.9938350
  O        3.6924620     0.1319130     0.4259740
  C       -0.8211920    -0.9649900     0.0477000
  C        0.4956150    -0.4174700    -0.4760140
  C       -1.8427190     0.0633310     0.5156670
  C        1.2861160     0.3473610     0.5837090
  C       -2.1923660     1.1169960    -0.5276460
  C        2.6663270     0.6479390     0.0251960
  H       -0.6001840    -1.6333830     0.8895000
  H        0.3094840     0.2426950    -1.3366810
  H       -1.4776870     0.5490530     1.4357690
  H        0.7391201     1.3816708     0.8317265
  H       -2.4256530     0.6242850    -1.4728150
  H       -1.3693410     1.8242450    -0.6894300
  H       -2.2436880    -1.9988170    -0.7384990
  H        0.7382740    -2.1149450    -1.3600910
  H       -3.7555350    -0.0560060     0.7240450
  H        2.1352240    -0.9985780     1.6549180
  H       -3.1588320     2.4130520     0.5846580
  H        3.5236120     1.6268920    -1.3298730
units angstrom
no_reorient  #important for SAPT in psi4, default
symmetry c1  #important for SAPT in psi4, default
}

set PROPERTIES_ORIGIN ["COM"]
properties('MP2/aug-cc-pvtz', properties = ['dipole'])
--------------------------------------------------------------------------

    Molecular point group: c1
  Charge       = 0
  Multiplicity = 1
  Basis Set: AUG-CC-PVTZ
    Blend: AUG-CC-PVTZ
  Basis Set: (AUG-CC-PVTZ AUX)
    Blend: AUG-CC-PVTZ-JKFIT

    Orbital Energies [Eh]
    ---------------------

    Doubly Occupied:

       1A    -20.631282     2A    -20.591738     3A    -20.576441
       4A    -20.574982     5A    -20.573153     6A    -20.571132
       7A    -20.565713     8A    -11.402822     9A    -11.329645
      10A    -11.305239    11A    -11.301815    12A    -11.300007
      13A    -11.295895    14A     -1.476383    15A     -1.407794
      16A     -1.396795    17A     -1.384019    18A     -1.369771
      19A     -1.363004    20A     -1.350767    21A     -1.078935
      22A     -1.025535    23A     -0.960372    24A     -0.888082
      25A     -0.828316    26A     -0.798732    27A     -0.756320
      28A     -0.736990    29A     -0.724586    30A     -0.714900
      31A     -0.712536    32A     -0.682943    33A     -0.676314
      34A     -0.650353    35A     -0.640218    36A     -0.632953
      37A     -0.628216    38A     -0.606387    39A     -0.600462
      40A     -0.578510    41A     -0.552128    42A     -0.549912
      43A     -0.538731    44A     -0.534115    45A     -0.529309
      46A     -0.502928    47A     -0.495883    48A     -0.482829
      49A     -0.466504    50A     -0.460328    51A     -0.455352
      52A     -0.442998

  @DF-RHF Final Energy:  -758.51656670110594

   => Energetics <=

    Nuclear Repulsion Energy =            915.0545597683963024
    One-Electron Energy =               -2861.7401031615609099
    Two-Electron Energy =                1188.1689766920585498
    Total Energy =                       -758.5165667011060577
  Basis Set: (AUG-CC-PVTZ AUX)
    Blend: AUG-CC-PVTZ-RI
    Molecular point group: c1

    Geometry (in Angstrom), charge = 0, multiplicity = 1:

       Center              X                  Y                   Z               Mass
    ------------   -----------------  -----------------  -----------------  -----------------
         O           -1.400081760853    -1.703356859446    -1.053011005760    15.994914619570
         O            1.287179239147    -1.501315859446    -0.870403005760    15.994914619570
         O           -3.058173760853    -0.688721859446     0.796864994240    15.994914619570
         O            1.362195239147    -0.361320859446     1.788865994240    15.994914619570
         O           -3.431418760853     1.809218140554    -0.138950005760    15.994914619570
         O            2.569114239147     1.548060140554    -0.998130005760    15.994914619570
         O            3.654575239147     0.140423140554     0.421678994240    15.994914619570
         C           -0.859078760853    -0.956479859446     0.043404994240    12.000000000000
         C            0.457728239147    -0.408959859446    -0.480309005760    12.000000000000
         C           -1.880605760853     0.071841140554     0.511371994240    12.000000000000
         C            1.248229239147     0.355871140554     0.579413994240    12.000000000000
         C           -2.230252760853     1.125506140554    -0.531941005760    12.000000000000
         C            2.628440239147     0.656449140554     0.020900994240    12.000000000000
         H           -0.638070760853    -1.624872859446     0.885204994240     1.007825032230
         H            0.271597239147     0.251205140554    -1.340976005760     1.007825032230
         H           -1.515573760853     0.557563140554     1.431473994240     1.007825032230
         H            0.701233339147     1.390180940554     0.827431494240     1.007825032230
         H           -2.463539760853     0.632795140554    -1.477110005760     1.007825032230
         H           -1.407227760853     1.832755140554    -0.693725005760     1.007825032230
         H           -2.281574760853    -1.990306859446    -0.742794005760     1.007825032230
         H            0.700387239147    -2.106434859446    -1.364386005760     1.007825032230
         H           -3.793421760853    -0.047495859446     0.719749994240     1.007825032230
         H            2.097337239147    -0.990067859446     1.650622994240     1.007825032230
         H           -3.196718760853     2.421562140554     0.580362994240     1.007825032230
         H            3.485725239147     1.635402140554    -1.334168005760     1.007825032230

  Basis Set: AUG-CC-PVTZ
    Blend: AUG-CC-PVTZ
  Basis Set: (AUG-CC-PVTZ AUX)
    Blend: AUG-CC-PVTZ-JKFIT
	 Reference Energy          =    -758.5165667011059440 [Eh]
	 Singles Energy            =      -0.0000000000000000 [Eh]
	 Same-Spin Energy          =      -0.7345592846302867 [Eh]
	 Opposite-Spin Energy      =      -2.2319394575229339 [Eh]
	 Correlation Energy        =      -2.9664987421532207 [Eh]
	 Total Energy              =    -761.4830654432591928 [Eh]

	 ================> DF-SCS-MP2 Energies <==================
	-----------------------------------------------------------
	 SCS Same-Spin Scale       =       0.3333333333333333 [-]
	 SCS Opposite-Spin Scale   =       1.2000000000000000 [-]
	 SCS Same-Spin Energy      =      -0.2448530948767622 [Eh]
	 SCS Opposite-Spin Energy  =      -2.6783273490275206 [Eh]
	 SCS Correlation Energy    =      -2.9231804439042830 [Eh]
	 SCS Total Energy          =    -761.4397471450101875 [Eh]
	-----------------------------------------------------------

  Dipole Moment: [D]
     X:    -1.1836      Y:     2.6395      Z:    -0.7926     Total:     2.9994

*** Psi4 exiting successfully. Buy a developer a beer!
