                               Psi4 1.4a3.dev225

  ==> Input File <==

--------------------------------------------------------------------------
#psi4
#
memory 32 gb

molecule  {
0 1
  O       -1.3621950    -1.7118670    -1.0487160
  O        1.3250660    -1.5098260    -0.8661080
  O       -3.0202870    -0.6972320     0.8011600
  O        1.4000820    -0.3698310     1.7931610
  O       -3.3935320     1.8007080    -0.1346550
  O        2.6070010     1.5395500    -0.9938350
  O        3.6924620     0.1319130     0.4259740
  C       -0.8211920    -0.9649900     0.0477000
  C        0.5389532    -0.3994502    -0.4932503
  C       -1.8427190     0.0633310     0.5156670
  C        1.2861160     0.3473610     0.5837090
  C       -2.1923660     1.1169960    -0.5276460
  C        2.6663270     0.6479390     0.0251960
  H       -0.6001840    -1.6333830     0.8895000
  H        0.3094840     0.2426950    -1.3366810
  H       -1.4776870     0.5490530     1.4357690
  H        0.7848540     1.2951930     0.8109900
  H       -2.4256530     0.6242850    -1.4728150
  H       -1.3693410     1.8242450    -0.6894300
  H       -2.2436880    -1.9988170    -0.7384990
  H        0.7382740    -2.1149450    -1.3600910
  H       -3.7555350    -0.0560060     0.7240450
  H        2.1352240    -0.9985780     1.6549180
  H       -3.1588320     2.4130520     0.5846580
  H        3.5236120     1.6268920    -1.3298730
units angstrom
no_reorient  #important for SAPT in psi4, default
symmetry c1  #important for SAPT in psi4, default
}

set PROPERTIES_ORIGIN ["COM"]
properties('MP2/aug-cc-pvtz', properties = ['dipole'])
--------------------------------------------------------------------------

    Molecular point group: c1
  Charge       = 0
  Multiplicity = 1
  Basis Set: AUG-CC-PVTZ
    Blend: AUG-CC-PVTZ
  Basis Set: (AUG-CC-PVTZ AUX)
    Blend: AUG-CC-PVTZ-JKFIT

    Orbital Energies [Eh]
    ---------------------

    Doubly Occupied:

       1A    -20.631580     2A    -20.591549     3A    -20.575730
       4A    -20.574305     5A    -20.572229     6A    -20.571261
       7A    -20.564920     8A    -11.401258     9A    -11.317893
      10A    -11.304384    11A    -11.300859    12A    -11.299836
      13A    -11.296167    14A     -1.476576    15A     -1.407389
      16A     -1.397471    17A     -1.383559    18A     -1.370542
      19A     -1.363165    20A     -1.351017    21A     -1.078017
      22A     -1.030242    23A     -0.955643    24A     -0.888245
      25A     -0.829037    26A     -0.804813    27A     -0.759071
      28A     -0.735786    29A     -0.726295    30A     -0.714722
      31A     -0.712368    32A     -0.683216    33A     -0.676999
      34A     -0.653580    35A     -0.641577    36A     -0.636340
      37A     -0.628646    38A     -0.608440    39A     -0.600930
      40A     -0.581128    41A     -0.553040    42A     -0.548603
      43A     -0.540501    44A     -0.533685    45A     -0.530650
      46A     -0.503035    47A     -0.495835    48A     -0.485928
      49A     -0.466285    50A     -0.458522    51A     -0.454645
      52A     -0.437831

  @DF-RHF Final Energy:  -758.52182816374511

   => Energetics <=

    Nuclear Repulsion Energy =            915.3931696239204712
    One-Electron Energy =               -2862.4193053478861657
    Two-Electron Energy =                1188.5043075602204681
    Total Energy =                       -758.5218281637451128
  Basis Set: (AUG-CC-PVTZ AUX)
    Blend: AUG-CC-PVTZ-RI
    Molecular point group: c1

    Geometry (in Angstrom), charge = 0, multiplicity = 1:

       Center              X                  Y                   Z               Mass
    ------------   -----------------  -----------------  -----------------  -----------------
         O           -1.402969423153    -1.704015250887    -1.051849441263    15.994914619570
         O            1.284291576847    -1.501974250887    -0.869241441263    15.994914619570
         O           -3.061061423153    -0.689380250887     0.798026558737    15.994914619570
         O            1.359307576847    -0.361979250887     1.790027558737    15.994914619570
         O           -3.434306423153     1.808559749113    -0.137788441263    15.994914619570
         O            2.566226576847     1.547401749113    -0.996968441263    15.994914619570
         O            3.651687576847     0.139764749113     0.422840558737    15.994914619570
         C           -0.861966423153    -0.957138250887     0.044566558737    12.000000000000
         C            0.498178776847    -0.391598450887    -0.496383741263    12.000000000000
         C           -1.883493423153     0.071182749113     0.512533558737    12.000000000000
         C            1.245341576847     0.355212749113     0.580575558737    12.000000000000
         C           -2.233140423153     1.124847749113    -0.530779441263    12.000000000000
         C            2.625552576847     0.655790749113     0.022062558737    12.000000000000
         H           -0.640958423153    -1.625531250887     0.886366558737     1.007825032230
         H            0.268709576847     0.250546749113    -1.339814441263     1.007825032230
         H           -1.518461423153     0.556904749113     1.432635558737     1.007825032230
         H            0.744079576847     1.303044749113     0.807856558737     1.007825032230
         H           -2.466427423153     0.632136749113    -1.475948441263     1.007825032230
         H           -1.410115423153     1.832096749113    -0.692563441263     1.007825032230
         H           -2.284462423153    -1.990965250887    -0.741632441263     1.007825032230
         H            0.697499576847    -2.107093250887    -1.363224441263     1.007825032230
         H           -3.796309423153    -0.048154250887     0.720911558737     1.007825032230
         H            2.094449576847    -0.990726250887     1.651784558737     1.007825032230
         H           -3.199606423153     2.420903749113     0.581524558737     1.007825032230
         H            3.482837576847     1.634743749113    -1.333006441263     1.007825032230

  Basis Set: AUG-CC-PVTZ
    Blend: AUG-CC-PVTZ
  Basis Set: (AUG-CC-PVTZ AUX)
    Blend: AUG-CC-PVTZ-JKFIT
	 Reference Energy          =    -758.5218281637451128 [Eh]
	 Singles Energy            =      -0.0000000000000000 [Eh]
	 Same-Spin Energy          =      -0.7342203880893243 [Eh]
	 Opposite-Spin Energy      =      -2.2306755813574211 [Eh]
	 Correlation Energy        =      -2.9648959694467454 [Eh]
	 Total Energy              =    -761.4867241331918422 [Eh]

	 ================> DF-SCS-MP2 Energies <==================
	-----------------------------------------------------------
	 SCS Same-Spin Scale       =       0.3333333333333333 [-]
	 SCS Opposite-Spin Scale   =       1.2000000000000000 [-]
	 SCS Same-Spin Energy      =      -0.2447401293631081 [Eh]
	 SCS Opposite-Spin Energy  =      -2.6768106976289050 [Eh]
	 SCS Correlation Energy    =      -2.9215508269920130 [Eh]
	 SCS Total Energy          =    -761.4433789907370738 [Eh]
	-----------------------------------------------------------

  Dipole Moment: [D]
     X:    -1.1473      Y:     2.6678      Z:    -0.8356     Total:     3.0219

*** Psi4 exiting successfully. Buy a developer a beer!
