                               Psi4 1.4a3.dev225

  ==> Input File <==

--------------------------------------------------------------------------
#psi4
#
memory 32 gb

molecule  {
0 1
  O       -1.3621950    -1.7118670    -1.0487160
  O        1.3250660    -1.5098260    -0.8661080
  O       -3.0202870    -0.6972320     0.8011600
  O        1.4000820    -0.3698310     1.7931610
  O       -3.3935320     1.8007080    -0.1346550
  O        2.6070010     1.5395500    -0.9938350
  O        3.6924620     0.1319130     0.4259740
  C       -0.8211920    -0.9649900     0.0477000
  C        0.4956150    -0.4174700    -0.4760140
  C       -1.8427190     0.0633310     0.5156670
  C        1.2861160     0.3473610     0.5837090
  C       -2.1923660     1.1169960    -0.5276460
  C        2.6663270     0.6479390     0.0251960
  H       -0.6001840    -1.6333830     0.8895000
  H        0.3094840     0.2426950    -1.3366810
  H       -1.4710658     0.5578634     1.4524584
  H        0.7848540     1.2951930     0.8109900
  H       -2.4256530     0.6242850    -1.4728150
  H       -1.3693410     1.8242450    -0.6894300
  H       -2.2436880    -1.9988170    -0.7384990
  H        0.7382740    -2.1149450    -1.3600910
  H       -3.7555350    -0.0560060     0.7240450
  H        2.1352240    -0.9985780     1.6549180
  H       -3.1588320     2.4130520     0.5846580
  H        3.5236120     1.6268920    -1.3298730
units angstrom
no_reorient  #important for SAPT in psi4, default
symmetry c1  #important for SAPT in psi4, default
}

set PROPERTIES_ORIGIN ["COM"]
properties('MP2/aug-cc-pvtz', properties = ['dipole'])
--------------------------------------------------------------------------

    Molecular point group: c1
  Charge       = 0
  Multiplicity = 1
  Basis Set: AUG-CC-PVTZ
    Blend: AUG-CC-PVTZ
  Basis Set: (AUG-CC-PVTZ AUX)
    Blend: AUG-CC-PVTZ-JKFIT

    Orbital Energies [Eh]
    ---------------------

    Doubly Occupied:

       1A    -20.631405     2A    -20.592068     3A    -20.575715
       4A    -20.574695     5A    -20.573306     6A    -20.570447
       7A    -20.565040     8A    -11.401833     9A    -11.318153
      10A    -11.304640    11A    -11.304363    12A    -11.300695
      13A    -11.296049    14A     -1.476245    15A     -1.407918
      16A     -1.396363    17A     -1.383733    18A     -1.369610
      19A     -1.362549    20A     -1.350763    21A     -1.080130
      22A     -1.027778    23A     -0.961383    24A     -0.887697
      25A     -0.830218    26A     -0.802183    27A     -0.757688
      28A     -0.736590    29A     -0.725354    30A     -0.715365
      31A     -0.712164    32A     -0.682401    33A     -0.676395
      34A     -0.649981    35A     -0.640070    36A     -0.636789
      37A     -0.628084    38A     -0.607024    39A     -0.601999
      40A     -0.581064    41A     -0.553194    42A     -0.550294
      43A     -0.539527    44A     -0.534271    45A     -0.531174
      46A     -0.503002    47A     -0.495676    48A     -0.484504
      49A     -0.465885    50A     -0.460058    51A     -0.455215
      52A     -0.442882

  @DF-RHF Final Energy:  -758.52293156332041

   => Energetics <=

    Nuclear Repulsion Energy =            915.4789889325763852
    One-Electron Energy =               -2862.5805796806330363
    Two-Electron Energy =                1188.5786591847363525
    Total Energy =                       -758.5229315633202987
  Basis Set: (AUG-CC-PVTZ AUX)
    Blend: AUG-CC-PVTZ-RI
    Molecular point group: c1

    Geometry (in Angstrom), charge = 0, multiplicity = 1:

       Center              X                  Y                   Z               Mass
    ------------   -----------------  -----------------  -----------------  -----------------
         O           -1.400350888861    -1.702957615197    -1.052990201904    15.994914619570
         O            1.286910111139    -1.500916615197    -0.870382201904    15.994914619570
         O           -3.058442888861    -0.688322615197     0.796885798096    15.994914619570
         O            1.361926111139    -0.360921615197     1.788886798096    15.994914619570
         O           -3.431687888861     1.809617384803    -0.138929201904    15.994914619570
         O            2.568845111139     1.548459384803    -0.998109201904    15.994914619570
         O            3.654306111139     0.140822384803     0.421699798096    15.994914619570
         C           -0.859347888861    -0.956080615197     0.043425798096    12.000000000000
         C            0.457459111139    -0.408560615197    -0.480288201904    12.000000000000
         C           -1.880874888861     0.072240384803     0.511392798096    12.000000000000
         C            1.247960111139     0.356270384803     0.579434798096    12.000000000000
         C           -2.230521888861     1.125905384803    -0.531920201904    12.000000000000
         C            2.628171111139     0.656848384803     0.020921798096    12.000000000000
         H           -0.638339888861    -1.624473615197     0.885225798096     1.007825032230
         H            0.271328111139     0.251604384803    -1.340955201904     1.007825032230
         H           -1.509221688861     0.566772784803     1.448184198096     1.007825032230
         H            0.746698111139     1.304102384803     0.806715798096     1.007825032230
         H           -2.463808888861     0.633194384803    -1.477089201904     1.007825032230
         H           -1.407496888861     1.833154384803    -0.693704201904     1.007825032230
         H           -2.281843888861    -1.989907615197    -0.742773201904     1.007825032230
         H            0.700118111139    -2.106035615197    -1.364365201904     1.007825032230
         H           -3.793690888861    -0.047096615197     0.719770798096     1.007825032230
         H            2.097068111139    -0.989668615197     1.650643798096     1.007825032230
         H           -3.196987888861     2.421961384803     0.580383798096     1.007825032230
         H            3.485456111139     1.635801384803    -1.334147201904     1.007825032230

  Basis Set: AUG-CC-PVTZ
    Blend: AUG-CC-PVTZ
  Basis Set: (AUG-CC-PVTZ AUX)
    Blend: AUG-CC-PVTZ-JKFIT
	 Reference Energy          =    -758.5229315633204124 [Eh]
	 Singles Energy            =      -0.0000000000000000 [Eh]
	 Same-Spin Energy          =      -0.7343621069940020 [Eh]
	 Opposite-Spin Energy      =      -2.2311879628663127 [Eh]
	 Correlation Energy        =      -2.9655500698603148 [Eh]
	 Total Energy              =    -761.4884816331807542 [Eh]

	 ================> DF-SCS-MP2 Energies <==================
	-----------------------------------------------------------
	 SCS Same-Spin Scale       =       0.3333333333333333 [-]
	 SCS Opposite-Spin Scale   =       1.2000000000000000 [-]
	 SCS Same-Spin Energy      =      -0.2447873689980006 [Eh]
	 SCS Opposite-Spin Energy  =      -2.6774255554395752 [Eh]
	 SCS Correlation Energy    =      -2.9222129244375759 [Eh]
	 SCS Total Energy          =    -761.4451444877579434 [Eh]
	-----------------------------------------------------------

  Dipole Moment: [D]
     X:    -1.2232      Y:     2.6657      Z:    -0.8128     Total:     3.0435

*** Psi4 exiting successfully. Buy a developer a beer!
