                               Psi4 1.4a3.dev225

  ==> Input File <==

--------------------------------------------------------------------------
#psi4
#
memory 32 gb

molecule  {
0 1
  O       -1.3621950    -1.7118670    -1.0487160
  O        1.3250660    -1.5098260    -0.8661080
  O       -3.0202870    -0.6972320     0.8011600
  O        1.4000820    -0.3698310     1.7931610
  O       -3.3935320     1.8007080    -0.1346550
  O        2.6070010     1.5395500    -0.9938350
  O        3.6924620     0.1319130     0.4259740
  C       -0.8211920    -0.9649900     0.0477000
  C        0.4956150    -0.4174700    -0.4760140
  C       -1.8427190     0.0633310     0.5156670
  C        1.2861160     0.3473610     0.5837090
  C       -2.1923660     1.1169960    -0.5276460
  C        2.6663270     0.6479390     0.0251960
  H       -0.6001840    -1.6333830     0.8895000
  H        0.3094840     0.2426950    -1.3366810
  H       -1.4776870     0.5490530     1.4357690
  H        0.7848540     1.2951930     0.8109900
  H       -2.4256530     0.6242850    -1.4728150
  H       -1.3693410     1.8242450    -0.6894300
  H       -2.2436880    -1.9988170    -0.7384990
  H        0.7382740    -2.1149450    -1.3600910
  H       -3.7555350    -0.0560060     0.7240450
  H        2.1352240    -0.9985780     1.6549180
  H       -3.1588320     2.4130520     0.5846580
  H        3.6171279     1.6358029    -1.3641568
units angstrom
no_reorient  #important for SAPT in psi4, default
symmetry c1  #important for SAPT in psi4, default
}

set PROPERTIES_ORIGIN ["COM"]
properties('MP2/aug-cc-pvtz', properties = ['dipole'])
--------------------------------------------------------------------------

    Molecular point group: c1
  Charge       = 0
  Multiplicity = 1
  Basis Set: AUG-CC-PVTZ
    Blend: AUG-CC-PVTZ
  Basis Set: (AUG-CC-PVTZ AUX)
    Blend: AUG-CC-PVTZ-JKFIT

    Orbital Energies [Eh]
    ---------------------

    Doubly Occupied:

       1A    -20.636279     2A    -20.591728     3A    -20.574948
       4A    -20.574217     5A    -20.572703     6A    -20.569817
       7A    -20.563137     8A    -11.399919     9A    -11.317751
      10A    -11.303712    11A    -11.301840    12A    -11.300059
      13A    -11.295356    14A     -1.464645    15A     -1.407186
      16A     -1.394430    17A     -1.381301    18A     -1.367101
      19A     -1.358599    20A     -1.350072    21A     -1.079349
      22A     -1.025924    23A     -0.959118    24A     -0.885416
      25A     -0.820495    26A     -0.800779    27A     -0.756146
      28A     -0.733042    29A     -0.721968    30A     -0.714898
      31A     -0.706257    32A     -0.682398    33A     -0.675103
      34A     -0.647590    35A     -0.638348    36A     -0.632828
      37A     -0.627770    38A     -0.603924    39A     -0.601048
      40A     -0.579761    41A     -0.551962    42A     -0.549729
      43A     -0.537835    44A     -0.533812    45A     -0.530241
      46A     -0.502880    47A     -0.492986    48A     -0.483246
      49A     -0.465949    50A     -0.459074    51A     -0.454912
      52A     -0.442215

  @DF-RHF Final Energy:  -758.51040683895712

   => Energetics <=

    Nuclear Repulsion Energy =            914.9445581112211130
    One-Electron Energy =               -2861.6663251179520557
    Two-Electron Energy =                1188.2113601677738188
    Total Energy =                       -758.5104068389571239
  Basis Set: (AUG-CC-PVTZ AUX)
    Blend: AUG-CC-PVTZ-RI
    Molecular point group: c1

    Geometry (in Angstrom), charge = 0, multiplicity = 1:

       Center              X                  Y                   Z               Mass
    ------------   -----------------  -----------------  -----------------  -----------------
         O           -1.400797565449    -1.702958131810    -1.052728177465    15.994914619570
         O            1.286463434551    -1.500917131810    -0.870120177465    15.994914619570
         O           -3.058889565449    -0.688323131810     0.797147822535    15.994914619570
         O            1.361479434551    -0.360922131810     1.789148822535    15.994914619570
         O           -3.432134565449     1.809616868190    -0.138667177465    15.994914619570
         O            2.568398434551     1.548458868190    -0.997847177465    15.994914619570
         O            3.653859434551     0.140821868190     0.421961822535    15.994914619570
         C           -0.859794565449    -0.956081131810     0.043687822535    12.000000000000
         C            0.457012434551    -0.408561131810    -0.480026177465    12.000000000000
         C           -1.881321565449     0.072239868190     0.511654822535    12.000000000000
         C            1.247513434551     0.356269868190     0.579696822535    12.000000000000
         C           -2.230968565449     1.125904868190    -0.531658177465    12.000000000000
         C            2.627724434551     0.656847868190     0.021183822535    12.000000000000
         H           -0.638786565449    -1.624474131810     0.885487822535     1.007825032230
         H            0.270881434551     0.251603868190    -1.340693177465     1.007825032230
         H           -1.516289565449     0.557961868190     1.431756822535     1.007825032230
         H            0.746251434551     1.304101868190     0.806977822535     1.007825032230
         H           -2.464255565449     0.633193868190    -1.476827177465     1.007825032230
         H           -1.407943565449     1.833153868190    -0.693442177465     1.007825032230
         H           -2.282290565449    -1.989908131810    -0.742511177465     1.007825032230
         H            0.699671434551    -2.106036131810    -1.364103177465     1.007825032230
         H           -3.794137565449    -0.047097131810     0.720032822535     1.007825032230
         H            2.096621434551    -0.989669131810     1.650905822535     1.007825032230
         H           -3.197434565449     2.421960868190     0.580645822535     1.007825032230
         H            3.578525334551     1.644711768190    -1.368168977465     1.007825032230

  Basis Set: AUG-CC-PVTZ
    Blend: AUG-CC-PVTZ
  Basis Set: (AUG-CC-PVTZ AUX)
    Blend: AUG-CC-PVTZ-JKFIT
	 Reference Energy          =    -758.5104068389571239 [Eh]
	 Singles Energy            =      -0.0000000000000000 [Eh]
	 Same-Spin Energy          =      -0.7355985424373490 [Eh]
	 Opposite-Spin Energy      =      -2.2340990645017667 [Eh]
	 Correlation Energy        =      -2.9696976069391159 [Eh]
	 Total Energy              =    -761.4801044458962451 [Eh]

	 ================> DF-SCS-MP2 Energies <==================
	-----------------------------------------------------------
	 SCS Same-Spin Scale       =       0.3333333333333333 [-]
	 SCS Opposite-Spin Scale   =       1.2000000000000000 [-]
	 SCS Same-Spin Energy      =      -0.2451995141457830 [Eh]
	 SCS Opposite-Spin Energy  =      -2.6809188774021200 [Eh]
	 SCS Correlation Energy    =      -2.9261183915479028 [Eh]
	 SCS Total Energy          =    -761.4365252305050262 [Eh]
	-----------------------------------------------------------

  Dipole Moment: [D]
     X:    -1.0991      Y:     2.7077      Z:    -0.8670     Total:     3.0481

*** Psi4 exiting successfully. Buy a developer a beer!
