                               Psi4 1.4a3.dev225

  ==> Input File <==

--------------------------------------------------------------------------
#psi4
#
memory 32 gb

molecule  {
0 1
  O       -1.3621950    -1.7118670    -1.0487160
  O        1.2516704    -1.5709884    -0.8382012
  O       -3.0202870    -0.6972320     0.8011600
  O        1.4000820    -0.3698310     1.7931610
  O       -3.3935320     1.8007080    -0.1346550
  O        2.6070010     1.5395500    -0.9938350
  O        3.6924620     0.1319130     0.4259740
  C       -0.8211920    -0.9649900     0.0477000
  C        0.4956150    -0.4174700    -0.4760140
  C       -1.8427190     0.0633310     0.5156670
  C        1.2861160     0.3473610     0.5837090
  C       -2.1923660     1.1169960    -0.5276460
  C        2.6663270     0.6479390     0.0251960
  H       -0.6001840    -1.6333830     0.8895000
  H        0.3094840     0.2426950    -1.3366810
  H       -1.4776870     0.5490530     1.4357690
  H        0.7848540     1.2951930     0.8109900
  H       -2.4256530     0.6242850    -1.4728150
  H       -1.3693410     1.8242450    -0.6894300
  H       -2.2436880    -1.9988170    -0.7384990
  H        0.7382740    -2.1149450    -1.3600910
  H       -3.7555350    -0.0560060     0.7240450
  H        2.1352240    -0.9985780     1.6549180
  H       -3.1588320     2.4130520     0.5846580
  H        3.5236120     1.6268920    -1.3298730
units angstrom
no_reorient  #important for SAPT in psi4, default
symmetry c1  #important for SAPT in psi4, default
}

set PROPERTIES_ORIGIN ["COM"]
properties('MP2/aug-cc-pvtz', properties = ['dipole'])
--------------------------------------------------------------------------

    Molecular point group: c1
  Charge       = 0
  Multiplicity = 1
  Basis Set: AUG-CC-PVTZ
    Blend: AUG-CC-PVTZ
  Basis Set: (AUG-CC-PVTZ AUX)
    Blend: AUG-CC-PVTZ-JKFIT

    Orbital Energies [Eh]
    ---------------------

    Doubly Occupied:

       1A    -20.633279     2A    -20.591420     3A    -20.575674
       4A    -20.573735     5A    -20.570517     6A    -20.567104
       7A    -20.562178     8A    -11.403596     9A    -11.320799
      10A    -11.306001    11A    -11.300250    12A    -11.299574
      13A    -11.293066    14A     -1.478108    15A     -1.409545
      16A     -1.398458    17A     -1.385722    18A     -1.371405
      19A     -1.364972    20A     -1.350538    21A     -1.082525
      22A     -1.029166    23A     -0.961292    24A     -0.890261
      25A     -0.831346    26A     -0.805680    27A     -0.760109
      28A     -0.738093    29A     -0.727793    30A     -0.714615
      31A     -0.713887    32A     -0.684192    33A     -0.679792
      34A     -0.654215    35A     -0.641104    36A     -0.635606
      37A     -0.628038    38A     -0.608157    39A     -0.601610
      40A     -0.584529    41A     -0.551945    42A     -0.548779
      43A     -0.539620    44A     -0.532751    45A     -0.530522
      46A     -0.502436    47A     -0.497693    48A     -0.485275
      49A     -0.467295    50A     -0.459268    51A     -0.455072
      52A     -0.441898

  @DF-RHF Final Energy:  -758.52248482128141

   => Energetics <=

    Nuclear Repulsion Energy =            915.8786073983384313
    One-Electron Energy =               -2863.3211762654541417
    Two-Electron Energy =                1188.9200840458345283
    Total Energy =                       -758.5224848212812958
  Basis Set: (AUG-CC-PVTZ AUX)
    Blend: AUG-CC-PVTZ-RI
    Molecular point group: c1

    Geometry (in Angstrom), charge = 0, multiplicity = 1:

       Center              X                  Y                   Z               Mass
    ------------   -----------------  -----------------  -----------------  -----------------
         O           -1.394329060914    -1.697922548108    -1.055181115945    15.994914619570
         O            1.219536339086    -1.557043948108    -0.844666315945    15.994914619570
         O           -3.052421060914    -0.683287548108     0.794694884055    15.994914619570
         O            1.367947939086    -0.355886548108     1.786695884055    15.994914619570
         O           -3.425666060914     1.814652451892    -0.141120115945    15.994914619570
         O            2.574866939086     1.553494451892    -1.000300115945    15.994914619570
         O            3.660327939086     0.145857451892     0.419508884055    15.994914619570
         C           -0.853326060914    -0.951045548108     0.041234884055    12.000000000000
         C            0.463480939086    -0.403525548108    -0.482479115945    12.000000000000
         C           -1.874853060914     0.077275451892     0.509201884055    12.000000000000
         C            1.253981939086     0.361305451892     0.577243884055    12.000000000000
         C           -2.224500060914     1.130940451892    -0.534111115945    12.000000000000
         C            2.634192939086     0.661883451892     0.018730884055    12.000000000000
         H           -0.632318060914    -1.619438548108     0.883034884055     1.007825032230
         H            0.277349939086     0.256639451892    -1.343146115945     1.007825032230
         H           -1.509821060914     0.562997451892     1.429303884055     1.007825032230
         H            0.752719939086     1.309137451892     0.804524884055     1.007825032230
         H           -2.457787060914     0.638229451892    -1.479280115945     1.007825032230
         H           -1.401475060914     1.838189451892    -0.695895115945     1.007825032230
         H           -2.275822060914    -1.984872548108    -0.744964115945     1.007825032230
         H            0.706139939086    -2.101000548108    -1.366556115945     1.007825032230
         H           -3.787669060914    -0.042061548108     0.717579884055     1.007825032230
         H            2.103089939086    -0.984633548108     1.648452884055     1.007825032230
         H           -3.190966060914     2.426996451892     0.578192884055     1.007825032230
         H            3.491477939086     1.640836451892    -1.336338115945     1.007825032230

  Basis Set: AUG-CC-PVTZ
    Blend: AUG-CC-PVTZ
  Basis Set: (AUG-CC-PVTZ AUX)
    Blend: AUG-CC-PVTZ-JKFIT
	 Reference Energy          =    -758.5224848212814095 [Eh]
	 Singles Energy            =      -0.0000000000000000 [Eh]
	 Same-Spin Energy          =      -0.7333058055647302 [Eh]
	 Opposite-Spin Energy      =      -2.2286840930220184 [Eh]
	 Correlation Energy        =      -2.9619898985867485 [Eh]
	 Total Energy              =    -761.4844747198681034 [Eh]

	 ================> DF-SCS-MP2 Energies <==================
	-----------------------------------------------------------
	 SCS Same-Spin Scale       =       0.3333333333333333 [-]
	 SCS Opposite-Spin Scale   =       1.2000000000000000 [-]
	 SCS Same-Spin Energy      =      -0.2444352685215767 [Eh]
	 SCS Opposite-Spin Energy  =      -2.6744209116264219 [Eh]
	 SCS Correlation Energy    =      -2.9188561801479986 [Eh]
	 SCS Total Energy          =    -761.4413410014294641 [Eh]
	-----------------------------------------------------------

  Dipole Moment: [D]
     X:    -1.0198      Y:     2.8221      Z:    -0.8637     Total:     3.1225

*** Psi4 exiting successfully. Buy a developer a beer!
