                               Psi4 1.4a3.dev225

  ==> Input File <==

--------------------------------------------------------------------------
#psi4
#
memory 32 gb

molecule  {
0 1
  O       -1.3621950    -1.7118670    -1.0487160
  O        1.3250660    -1.5098260    -0.8661080
  O       -3.0202870    -0.6972320     0.8011600
  O        1.4000820    -0.3698310     1.7931610
  O       -3.3935320     1.8007080    -0.1346550
  O        2.6070010     1.5395500    -0.9938350
  O        3.6924620     0.1319130     0.4259740
  C       -0.8211920    -0.9649900     0.0477000
  C        0.4956150    -0.4174700    -0.4760140
  C       -1.8427190     0.0633310     0.5156670
  C        1.2861160     0.3473610     0.5837090
  C       -2.1923660     1.1169960    -0.5276460
  C        2.6663270     0.6479390     0.0251960
  H       -0.6001840    -1.6333830     0.8895000
  H        0.3094840     0.2426950    -1.3366810
  H       -1.4776870     0.5490530     1.4357690
  H        0.7848540     1.2951930     0.8109900
  H       -2.4256530     0.6242850    -1.4728150
  H       -1.3693410     1.8242450    -0.6894300
  H       -2.2436880    -1.9988170    -0.7384990
  H        0.7382740    -2.1149450    -1.3600910
  H       -3.9057964     0.0750403     0.7082851
  H        2.1352240    -0.9985780     1.6549180
  H       -3.1588320     2.4130520     0.5846580
  H        3.5236120     1.6268920    -1.3298730
units angstrom
no_reorient  #important for SAPT in psi4, default
symmetry c1  #important for SAPT in psi4, default
}

set PROPERTIES_ORIGIN ["COM"]
properties('MP2/aug-cc-pvtz', properties = ['dipole'])
--------------------------------------------------------------------------

    Molecular point group: c1
  Charge       = 0
  Multiplicity = 1
  Basis Set: AUG-CC-PVTZ
    Blend: AUG-CC-PVTZ
  Basis Set: (AUG-CC-PVTZ AUX)
    Blend: AUG-CC-PVTZ-JKFIT

    Orbital Energies [Eh]
    ---------------------

    Doubly Occupied:

       1A    -20.630925     2A    -20.596827     3A    -20.581130
       4A    -20.573905     5A    -20.571215     6A    -20.569465
       7A    -20.564486     8A    -11.401254     9A    -11.317398
      10A    -11.303286    11A    -11.300466    12A    -11.298847
      13A    -11.294192    14A     -1.475728    15A     -1.402469
      16A     -1.395192    17A     -1.383369    18A     -1.366415
      19A     -1.357798    20A     -1.329572    21A     -1.076723
      22A     -1.023508    23A     -0.960606    24A     -0.881716
      25A     -0.828260    26A     -0.800071    27A     -0.754314
      28A     -0.735289    29A     -0.721796    30A     -0.716724
      31A     -0.706258    32A     -0.679155    33A     -0.663733
      34A     -0.648716    35A     -0.637976    36A     -0.631349
      37A     -0.624493    38A     -0.605864    39A     -0.601981
      40A     -0.578925    41A     -0.552801    42A     -0.539221
      43A     -0.535299    44A     -0.532003    45A     -0.521201
      46A     -0.503843    47A     -0.495137    48A     -0.483279
      49A     -0.462464    50A     -0.458513    51A     -0.451639
      52A     -0.441421

  @DF-RHF Final Energy:  -758.48821046525472

   => Energetics <=

    Nuclear Repulsion Energy =            914.5442156337416009
    One-Electron Energy =               -2860.9284269659319762
    Two-Electron Energy =                1187.8960008669355375
    Total Energy =                       -758.4882104652547241
  Basis Set: (AUG-CC-PVTZ AUX)
    Blend: AUG-CC-PVTZ-RI
    Molecular point group: c1

    Geometry (in Angstrom), charge = 0, multiplicity = 1:

       Center              X                  Y                   Z               Mass
    ------------   -----------------  -----------------  -----------------  -----------------
         O           -1.399544443996    -1.703585960940    -1.052823398375    15.994914619570
         O            1.287716556004    -1.501544960940    -0.870215398375    15.994914619570
         O           -3.057636443996    -0.688950960940     0.797052601625    15.994914619570
         O            1.362732556004    -0.361549960940     1.789053601625    15.994914619570
         O           -3.430881443996     1.808989039060    -0.138762398375    15.994914619570
         O            2.569651556004     1.547831039060    -0.997942398375    15.994914619570
         O            3.655112556004     0.140194039060     0.421866601625    15.994914619570
         C           -0.858541443996    -0.956708960940     0.043592601625    12.000000000000
         C            0.458265556004    -0.409188960940    -0.480121398375    12.000000000000
         C           -1.880068443996     0.071612039060     0.511559601625    12.000000000000
         C            1.248766556004     0.355642039060     0.579601601625    12.000000000000
         C           -2.229715443996     1.125277039060    -0.531753398375    12.000000000000
         C            2.628977556004     0.656220039060     0.021088601625    12.000000000000
         H           -0.637533443996    -1.625101960940     0.885392601625     1.007825032230
         H            0.272134556004     0.250976039060    -1.340788398375     1.007825032230
         H           -1.515036443996     0.557334039060     1.431661601625     1.007825032230
         H            0.747504556004     1.303474039060     0.806882601625     1.007825032230
         H           -2.463002443996     0.632566039060    -1.476922398375     1.007825032230
         H           -1.406690443996     1.832526039060    -0.693537398375     1.007825032230
         H           -2.281037443996    -1.990535960940    -0.742606398375     1.007825032230
         H            0.700924556004    -2.106663960940    -1.364198398375     1.007825032230
         H           -3.943145843996     0.083321339060     0.704177701625     1.007825032230
         H            2.097874556004    -0.990296960940     1.650810601625     1.007825032230
         H           -3.196181443996     2.421333039060     0.580550601625     1.007825032230
         H            3.486262556004     1.635173039060    -1.333980398375     1.007825032230

  Basis Set: AUG-CC-PVTZ
    Blend: AUG-CC-PVTZ
  Basis Set: (AUG-CC-PVTZ AUX)
    Blend: AUG-CC-PVTZ-JKFIT
	 Reference Energy          =    -758.4882104652547241 [Eh]
	 Singles Energy            =      -0.0000000000000000 [Eh]
	 Same-Spin Energy          =      -0.7373482435769299 [Eh]
	 Opposite-Spin Energy      =      -2.2381277714641188 [Eh]
	 Correlation Energy        =      -2.9754760150410489 [Eh]
	 Total Energy              =    -761.4636864802957916 [Eh]

	 ================> DF-SCS-MP2 Energies <==================
	-----------------------------------------------------------
	 SCS Same-Spin Scale       =       0.3333333333333333 [-]
	 SCS Opposite-Spin Scale   =       1.2000000000000000 [-]
	 SCS Same-Spin Energy      =      -0.2457827478589766 [Eh]
	 SCS Opposite-Spin Energy  =      -2.6857533257569424 [Eh]
	 SCS Correlation Energy    =      -2.9315360736159191 [Eh]
	 SCS Total Energy          =    -761.4197465388706405 [Eh]
	-----------------------------------------------------------

  Dipole Moment: [D]
     X:    -1.4118      Y:     2.9058      Z:    -0.8576     Total:     3.3425

*** Psi4 exiting successfully. Buy a developer a beer!
