                               Psi4 1.4a3.dev225

  ==> Input File <==

--------------------------------------------------------------------------
#psi4
#
memory 32 gb

molecule  {
0 1
  O       -1.3621950    -1.7118670    -1.0487160
  O        1.3250660    -1.5098260    -0.8661080
  O       -3.0202870    -0.6972320     0.8011600
  O        1.4000820    -0.3698310     1.7931610
  O       -3.3935320     1.8007080    -0.1346550
  O        2.6070010     1.5395500    -0.9938350
  O        3.6924620     0.1319130     0.4259740
  C       -0.8211920    -0.9649900     0.0477000
  C        0.4956150    -0.4174700    -0.4760140
  C       -1.8427190     0.0633310     0.5156670
  C        1.2861160     0.3473610     0.5837090
  C       -2.1923660     1.1169960    -0.5276460
  C        2.6663270     0.6479390     0.0251960
  H       -0.6001840    -1.6333830     0.8895000
  H        0.3094840     0.2426950    -1.3366810
  H       -1.4445810     0.5931048     1.5192162
  H        0.7848540     1.2951930     0.8109900
  H       -2.4256530     0.6242850    -1.4728150
  H       -1.3693410     1.8242450    -0.6894300
  H       -2.2436880    -1.9988170    -0.7384990
  H        0.7382740    -2.1149450    -1.3600910
  H       -3.7555350    -0.0560060     0.7240450
  H        2.1352240    -0.9985780     1.6549180
  H       -3.1588320     2.4130520     0.5846580
  H        3.5236120     1.6268920    -1.3298730
units angstrom
no_reorient  #important for SAPT in psi4, default
symmetry c1  #important for SAPT in psi4, default
}

set PROPERTIES_ORIGIN ["COM"]
properties('MP2/aug-cc-pvtz', properties = ['dipole'])
--------------------------------------------------------------------------

    Molecular point group: c1
  Charge       = 0
  Multiplicity = 1
  Basis Set: AUG-CC-PVTZ
    Blend: AUG-CC-PVTZ
  Basis Set: (AUG-CC-PVTZ AUX)
    Blend: AUG-CC-PVTZ-JKFIT

    Orbital Energies [Eh]
    ---------------------

    Doubly Occupied:

       1A    -20.631220     2A    -20.592192     3A    -20.577628
       4A    -20.574296     5A    -20.574223     6A    -20.570585
       7A    -20.564797     8A    -11.401553     9A    -11.317701
      10A    -11.314079    11A    -11.304471    12A    -11.301752
      13A    -11.296997    14A     -1.476037    15A     -1.408531
      16A     -1.396380    17A     -1.383877    18A     -1.369875
      19A     -1.362575    20A     -1.351459    21A     -1.079324
      22A     -1.026557    23A     -0.961696    24A     -0.886084
      25A     -0.828778    26A     -0.800540    27A     -0.756689
      28A     -0.736554    29A     -0.724435    30A     -0.715810
      31A     -0.710796    32A     -0.680136    33A     -0.676218
      34A     -0.649953    35A     -0.639152    36A     -0.636615
      37A     -0.625789    38A     -0.606611    39A     -0.602370
      40A     -0.581128    41A     -0.552989    42A     -0.551048
      43A     -0.539380    44A     -0.534359    45A     -0.531366
      46A     -0.502010    47A     -0.495470    48A     -0.484330
      49A     -0.463931    50A     -0.460110    51A     -0.453472
      52A     -0.442801

  @DF-RHF Final Energy:  -758.51675188685147

   => Energetics <=

    Nuclear Repulsion Energy =            915.0719077232655536
    One-Electron Energy =               -2861.7638641389380609
    Two-Electron Energy =                1188.1752045288208137
    Total Energy =                       -758.5167518868515799
  Basis Set: (AUG-CC-PVTZ AUX)
    Blend: AUG-CC-PVTZ-RI
    Molecular point group: c1

    Geometry (in Angstrom), charge = 0, multiplicity = 1:

       Center              X                  Y                   Z               Mass
    ------------   -----------------  -----------------  -----------------  -----------------
         O           -1.400487032263    -1.703138771335    -1.053333366060    15.994914619570
         O            1.286773967737    -1.501097771335    -0.870725366060    15.994914619570
         O           -3.058579032263    -0.688503771335     0.796542633940    15.994914619570
         O            1.361789967737    -0.361102771335     1.788543633940    15.994914619570
         O           -3.431824032263     1.809436228665    -0.139272366060    15.994914619570
         O            2.568708967737     1.548278228665    -0.998452366060    15.994914619570
         O            3.654169967737     0.140641228665     0.421356633940    15.994914619570
         C           -0.859484032263    -0.956261771335     0.043082633940    12.000000000000
         C            0.457322967737    -0.408741771335    -0.480631366060    12.000000000000
         C           -1.881011032263     0.072059228665     0.511049633940    12.000000000000
         C            1.247823967737     0.356089228665     0.579091633940    12.000000000000
         C           -2.230658032263     1.125724228665    -0.532263366060    12.000000000000
         C            2.628034967737     0.656667228665     0.020578633940    12.000000000000
         H           -0.638476032263    -1.624654771335     0.884882633940     1.007825032230
         H            0.271191967737     0.251423228665    -1.341298366060     1.007825032230
         H           -1.482873032263     0.601833028665     1.514598833940     1.007825032230
         H            0.746561967737     1.303921228665     0.806372633940     1.007825032230
         H           -2.463945032263     0.633013228665    -1.477432366060     1.007825032230
         H           -1.407633032263     1.832973228665    -0.694047366060     1.007825032230
         H           -2.281980032263    -1.990088771335    -0.743116366060     1.007825032230
         H            0.699981967737    -2.106216771335    -1.364708366060     1.007825032230
         H           -3.793827032263    -0.047277771335     0.719427633940     1.007825032230
         H            2.096931967737    -0.989849771335     1.650300633940     1.007825032230
         H           -3.197124032263     2.421780228665     0.580040633940     1.007825032230
         H            3.485319967737     1.635620228665    -1.334490366060     1.007825032230

  Basis Set: AUG-CC-PVTZ
    Blend: AUG-CC-PVTZ
  Basis Set: (AUG-CC-PVTZ AUX)
    Blend: AUG-CC-PVTZ-JKFIT
	 Reference Energy          =    -758.5167518868514662 [Eh]
	 Singles Energy            =      -0.0000000000000000 [Eh]
	 Same-Spin Energy          =      -0.7345601620073715 [Eh]
	 Opposite-Spin Energy      =      -2.2320045220572444 [Eh]
	 Correlation Energy        =      -2.9665646840646160 [Eh]
	 Total Energy              =    -761.4833165709160312 [Eh]

	 ================> DF-SCS-MP2 Energies <==================
	-----------------------------------------------------------
	 SCS Same-Spin Scale       =       0.3333333333333333 [-]
	 SCS Opposite-Spin Scale   =       1.2000000000000000 [-]
	 SCS Same-Spin Energy      =      -0.2448533873357905 [Eh]
	 SCS Opposite-Spin Energy  =      -2.6784054264686934 [Eh]
	 SCS Correlation Energy    =      -2.9232588138044839 [Eh]
	 SCS Total Energy          =    -761.4400107006559892 [Eh]
	-----------------------------------------------------------

  Dipole Moment: [D]
     X:    -1.2669      Y:     2.6221      Z:    -0.8574     Total:     3.0357

*** Psi4 exiting successfully. Buy a developer a beer!
