                               Psi4 1.4a3.dev225

  ==> Input File <==

--------------------------------------------------------------------------
#psi4
#
memory 32 gb

molecule  {
0 1
  O       -1.3621950    -1.7118670    -1.0487160
  O        1.3250660    -1.5098260    -0.8661080
  O       -3.0202870    -0.6972320     0.8011600
  O        1.4000820    -0.3698310     1.7931610
  O       -3.3935320     1.8007080    -0.1346550
  O        2.6070010     1.5395500    -0.9938350
  O        3.6924620     0.1319130     0.4259740
  C       -0.8211920    -0.9649900     0.0477000
  C        0.4956150    -0.4174700    -0.4760140
  C       -1.8427190     0.0633310     0.5156670
  C        1.2861160     0.3473610     0.5837090
  C       -2.1923660     1.1169960    -0.5276460
  C        2.6663270     0.6479390     0.0251960
  H       -0.6404636    -1.5115657     0.7360786
  H        0.3094840     0.2426950    -1.3366810
  H       -1.4776870     0.5490530     1.4357690
  H        0.7848540     1.2951930     0.8109900
  H       -2.4256530     0.6242850    -1.4728150
  H       -1.3693410     1.8242450    -0.6894300
  H       -2.2436880    -1.9988170    -0.7384990
  H        0.7382740    -2.1149450    -1.3600910
  H       -3.7555350    -0.0560060     0.7240450
  H        2.1352240    -0.9985780     1.6549180
  H       -3.1588320     2.4130520     0.5846580
  H        3.5236120     1.6268920    -1.3298730
units angstrom
no_reorient  #important for SAPT in psi4, default
symmetry c1  #important for SAPT in psi4, default
}

set PROPERTIES_ORIGIN ["COM"]
properties('MP2/aug-cc-pvtz', properties = ['dipole'])
--------------------------------------------------------------------------

    Molecular point group: c1
  Charge       = 0
  Multiplicity = 1
  Basis Set: AUG-CC-PVTZ
    Blend: AUG-CC-PVTZ
  Basis Set: (AUG-CC-PVTZ AUX)
    Blend: AUG-CC-PVTZ-JKFIT

    Orbital Energies [Eh]
    ---------------------

    Doubly Occupied:

       1A    -20.631441     2A    -20.591591     3A    -20.575739
       4A    -20.575516     5A    -20.571260     6A    -20.570806
       7A    -20.565200     8A    -11.401987     9A    -11.318391
      10A    -11.303366    11A    -11.301373    12A    -11.299817
      13A    -11.272985    14A     -1.476342    15A     -1.408262
      16A     -1.396668    17A     -1.383862    18A     -1.369621
      19A     -1.362842    20A     -1.350409    21A     -1.085663
      22A     -1.029145    23A     -0.971932    24A     -0.891745
      25A     -0.834864    26A     -0.812150    27A     -0.765575
      28A     -0.737766    29A     -0.726896    30A     -0.719257
      31A     -0.714260    32A     -0.683203    33A     -0.677186
      34A     -0.651182    35A     -0.640786    36A     -0.638711
      37A     -0.633364    38A     -0.607974    39A     -0.604979
      40A     -0.582797    41A     -0.556707    42A     -0.550057
      43A     -0.541011    44A     -0.534540    45A     -0.531662
      46A     -0.504090    47A     -0.495797    48A     -0.484700
      49A     -0.467261    50A     -0.462489    51A     -0.455545
      52A     -0.448307

  @DF-RHF Final Energy:  -758.49175210623741

   => Energetics <=

    Nuclear Repulsion Energy =            916.8822438485804014
    One-Electron Energy =               -2865.2098348318108947
    Two-Electron Energy =                1189.8358388769931935
    Total Energy =                       -758.4917521062372998
  Basis Set: (AUG-CC-PVTZ AUX)
    Blend: AUG-CC-PVTZ-RI
    Molecular point group: c1

    Geometry (in Angstrom), charge = 0, multiplicity = 1:

       Center              X                  Y                   Z               Mass
    ------------   -----------------  -----------------  -----------------  -----------------
         O           -1.400109798330    -1.703538519862    -1.052115758333    15.994914619570
         O            1.287151201670    -1.501497519862    -0.869507758333    15.994914619570
         O           -3.058201798330    -0.688903519862     0.797760241667    15.994914619570
         O            1.362167201670    -0.361502519862     1.789761241667    15.994914619570
         O           -3.431446798330     1.809036480138    -0.138054758333    15.994914619570
         O            2.569086201670     1.547878480138    -0.997234758333    15.994914619570
         O            3.654547201670     0.140241480138     0.422574241667    15.994914619570
         C           -0.859106798330    -0.956661519862     0.044300241667    12.000000000000
         C            0.457700201670    -0.409141519862    -0.479413758333    12.000000000000
         C           -1.880633798330     0.071659480138     0.512267241667    12.000000000000
         C            1.248201201670     0.355689480138     0.580309241667    12.000000000000
         C           -2.230280798330     1.125324480138    -0.531045758333    12.000000000000
         C            2.628412201670     0.656267480138     0.021796241667    12.000000000000
         H           -0.678378398330    -1.503237219862     0.732678841667     1.007825032230
         H            0.271569201670     0.251023480138    -1.340080758333     1.007825032230
         H           -1.515601798330     0.557381480138     1.432369241667     1.007825032230
         H            0.746939201670     1.303521480138     0.807590241667     1.007825032230
         H           -2.463567798330     0.632613480138    -1.476214758333     1.007825032230
         H           -1.407255798330     1.832573480138    -0.692829758333     1.007825032230
         H           -2.281602798330    -1.990488519862    -0.741898758333     1.007825032230
         H            0.700359201670    -2.106616519862    -1.363490758333     1.007825032230
         H           -3.793449798330    -0.047677519862     0.720645241667     1.007825032230
         H            2.097309201670    -0.990249519862     1.651518241667     1.007825032230
         H           -3.196746798330     2.421380480138     0.581258241667     1.007825032230
         H            3.485697201670     1.635220480138    -1.333272758333     1.007825032230

  Basis Set: AUG-CC-PVTZ
    Blend: AUG-CC-PVTZ
  Basis Set: (AUG-CC-PVTZ AUX)
    Blend: AUG-CC-PVTZ-JKFIT
	 Reference Energy          =    -758.4917521062374135 [Eh]
	 Singles Energy            =      -0.0000000000000000 [Eh]
	 Same-Spin Energy          =      -0.7338585504098752 [Eh]
	 Opposite-Spin Energy      =      -2.2297574240000331 [Eh]
	 Correlation Energy        =      -2.9636159744099082 [Eh]
	 Total Energy              =    -761.4553680806473039 [Eh]

	 ================> DF-SCS-MP2 Energies <==================
	-----------------------------------------------------------
	 SCS Same-Spin Scale       =       0.3333333333333333 [-]
	 SCS Opposite-Spin Scale   =       1.2000000000000000 [-]
	 SCS Same-Spin Energy      =      -0.2446195168032917 [Eh]
	 SCS Opposite-Spin Energy  =      -2.6757089088000394 [Eh]
	 SCS Correlation Energy    =      -2.9203284256033313 [Eh]
	 SCS Total Energy          =    -761.4120805318407292 [Eh]
	-----------------------------------------------------------

  Dipole Moment: [D]
     X:    -1.1935      Y:     2.6715      Z:    -0.7682     Total:     3.0252

*** Psi4 exiting successfully. Buy a developer a beer!
