                               Psi4 1.4a3.dev225

  ==> Input File <==

--------------------------------------------------------------------------
#psi4
#
memory 32 gb

molecule  {
0 1
  O       -1.3621950    -1.7118670    -1.0487160
  O        1.3250660    -1.5098260    -0.8661080
  O       -3.0202870    -0.6972320     0.8011600
  O        1.4000820    -0.3698310     1.7931610
  O       -3.3935320     1.8007080    -0.1346550
  O        2.6070010     1.5395500    -0.9938350
  O        3.6924620     0.1319130     0.4259740
  C       -0.8211920    -0.9649900     0.0477000
  C        0.4956150    -0.4174700    -0.4760140
  C       -1.8427190     0.0633310     0.5156670
  C        1.2861160     0.3473610     0.5837090
  C       -2.1923660     1.1169960    -0.5276460
  C        2.6663270     0.6479390     0.0251960
  H       -0.6001840    -1.6333830     0.8895000
  H        0.3094840     0.2426950    -1.3366810
  H       -1.4776870     0.5490530     1.4357690
  H        0.7848540     1.2951930     0.8109900
  H       -2.4256530     0.6242850    -1.4728150
  H       -1.3693410     1.8242450    -0.6894300
  H       -2.2436880    -1.9988170    -0.7384990
  H        0.7382740    -2.1149450    -1.3600910
  H       -3.7555350    -0.0560060     0.7240450
  H        2.1352240    -0.9985780     1.6549180
  H       -3.1540096     2.4256339     0.5994378
  H        3.5236120     1.6268920    -1.3298730
units angstrom
no_reorient  #important for SAPT in psi4, default
symmetry c1  #important for SAPT in psi4, default
}

set PROPERTIES_ORIGIN ["COM"]
properties('MP2/aug-cc-pvtz', properties = ['dipole'])
--------------------------------------------------------------------------

    Molecular point group: c1
  Charge       = 0
  Multiplicity = 1
  Basis Set: AUG-CC-PVTZ
    Blend: AUG-CC-PVTZ
  Basis Set: (AUG-CC-PVTZ AUX)
    Blend: AUG-CC-PVTZ-JKFIT

    Orbital Energies [Eh]
    ---------------------

    Doubly Occupied:

       1A    -20.631424     2A    -20.593805     3A    -20.575160
       4A    -20.574754     5A    -20.573023     6A    -20.570365
       7A    -20.565071     8A    -11.401870     9A    -11.318221
      10A    -11.304279    11A    -11.302092    12A    -11.300232
      13A    -11.295741    14A     -1.476268    15A     -1.406967
      16A     -1.395433    17A     -1.382621    18A     -1.368618
      19A     -1.362058    20A     -1.350238    21A     -1.080224
      22A     -1.027790    23A     -0.960568    24A     -0.887611
      25A     -0.830479    26A     -0.802370    27A     -0.757542
      28A     -0.736461    29A     -0.725580    30A     -0.713282
      31A     -0.712097    32A     -0.682317    33A     -0.676075
      34A     -0.649947    35A     -0.640140    36A     -0.636682
      37A     -0.628216    38A     -0.607068    39A     -0.601462
      40A     -0.580976    41A     -0.552968    42A     -0.549852
      43A     -0.539418    44A     -0.533757    45A     -0.530856
      46A     -0.502838    47A     -0.495699    48A     -0.484496
      49A     -0.466305    50A     -0.459914    51A     -0.455423
      52A     -0.442709

  @DF-RHF Final Energy:  -758.52196897095359

   => Energetics <=

    Nuclear Repulsion Energy =            915.4669856927393994
    One-Electron Energy =               -2862.5791909140798452
    Two-Electron Energy =                1188.5902362503868517
    Total Energy =                       -758.5219689709535942
  Basis Set: (AUG-CC-PVTZ AUX)
    Blend: AUG-CC-PVTZ-RI
    Molecular point group: c1

    Geometry (in Angstrom), charge = 0, multiplicity = 1:

       Center              X                  Y                   Z               Mass
    ------------   -----------------  -----------------  -----------------  -----------------
         O           -1.400341642246    -1.702977002349    -1.052980385729    15.994914619570
         O            1.286919357754    -1.500936002349    -0.870372385729    15.994914619570
         O           -3.058433642246    -0.688342002349     0.796895614271    15.994914619570
         O            1.361935357754    -0.360941002349     1.788896614271    15.994914619570
         O           -3.431678642246     1.809597997651    -0.138919385729    15.994914619570
         O            2.568854357754     1.548439997651    -0.998099385729    15.994914619570
         O            3.654315357754     0.140802997651     0.421709614271    15.994914619570
         C           -0.859338642246    -0.956100002349     0.043435614271    12.000000000000
         C            0.457468357754    -0.408580002349    -0.480278385729    12.000000000000
         C           -1.880865642246     0.072220997651     0.511402614271    12.000000000000
         C            1.247969357754     0.356250997651     0.579444614271    12.000000000000
         C           -2.230512642246     1.125885997651    -0.531910385729    12.000000000000
         C            2.628180357754     0.656828997651     0.020931614271    12.000000000000
         H           -0.638330642246    -1.624493002349     0.885235614271     1.007825032230
         H            0.271337357754     0.251584997651    -1.340945385729     1.007825032230
         H           -1.515833642246     0.557942997651     1.431504614271     1.007825032230
         H            0.746707357754     1.304082997651     0.806725614271     1.007825032230
         H           -2.463799642246     0.633174997651    -1.477079385729     1.007825032230
         H           -1.407487642246     1.833134997651    -0.693694385729     1.007825032230
         H           -2.281834642246    -1.989927002349    -0.742763385729     1.007825032230
         H            0.700127357754    -2.106055002349    -1.364355385729     1.007825032230
         H           -3.793681642246    -0.047116002349     0.719780614271     1.007825032230
         H            2.097077357754    -0.989688002349     1.650653614271     1.007825032230
         H           -3.192156242246     2.434523897651     0.595173414271     1.007825032230
         H            3.485465357754     1.635781997651    -1.334137385729     1.007825032230

  Basis Set: AUG-CC-PVTZ
    Blend: AUG-CC-PVTZ
  Basis Set: (AUG-CC-PVTZ AUX)
    Blend: AUG-CC-PVTZ-JKFIT
	 Reference Energy          =    -758.5219689709535942 [Eh]
	 Singles Energy            =      -0.0000000000000000 [Eh]
	 Same-Spin Energy          =      -0.7345425215792708 [Eh]
	 Opposite-Spin Energy      =      -2.2316262011664705 [Eh]
	 Correlation Energy        =      -2.9661687227457412 [Eh]
	 Total Energy              =    -761.4881376936992865 [Eh]

	 ================> DF-SCS-MP2 Energies <==================
	-----------------------------------------------------------
	 SCS Same-Spin Scale       =       0.3333333333333333 [-]
	 SCS Opposite-Spin Scale   =       1.2000000000000000 [-]
	 SCS Same-Spin Energy      =      -0.2448475071930903 [Eh]
	 SCS Opposite-Spin Energy  =      -2.6779514413997645 [Eh]
	 SCS Correlation Energy    =      -2.9227989485928547 [Eh]
	 SCS Total Energy          =    -761.4447679195463934 [Eh]
	-----------------------------------------------------------

  Dipole Moment: [D]
     X:    -1.2155      Y:     2.6900      Z:    -0.7922     Total:     3.0563

*** Psi4 exiting successfully. Buy a developer a beer!
