                               Psi4 1.4a3.dev225

  ==> Input File <==

--------------------------------------------------------------------------
#psi4
#
memory 32 gb

molecule  {
0 1
  O       -1.3621950    -1.7118670    -1.0487160
  O        1.3250660    -1.5098260    -0.8661080
  O       -3.0202870    -0.6972320     0.8011600
  O        1.4000820    -0.3698310     1.7931610
  O       -3.3935320     1.8007080    -0.1346550
  O        2.6070010     1.5395500    -0.9938350
  O        3.6924620     0.1319130     0.4259740
  C       -0.8211920    -0.9649900     0.0477000
  C        0.4956150    -0.4174700    -0.4760140
  C       -1.8427190     0.0633310     0.5156670
  C        1.2861160     0.3473610     0.5837090
  C       -2.1923660     1.1169960    -0.5276460
  C        2.6663270     0.6479390     0.0251960
  H       -0.6001840    -1.6333830     0.8895000
  H        0.3094840     0.2426950    -1.3366810
  H       -1.4776870     0.5490530     1.4357690
  H        0.7848540     1.2951930     0.8109900
  H       -2.4256530     0.6242850    -1.4728150
  H       -1.3693410     1.8242450    -0.6894300
  H       -2.2436880    -1.9988170    -0.7384990
  H        0.6181518    -2.2388189    -1.4612143
  H       -3.7555350    -0.0560060     0.7240450
  H        2.1352240    -0.9985780     1.6549180
  H       -3.1588320     2.4130520     0.5846580
  H        3.5236120     1.6268920    -1.3298730
units angstrom
no_reorient  #important for SAPT in psi4, default
symmetry c1  #important for SAPT in psi4, default
}

set PROPERTIES_ORIGIN ["COM"]
properties('MP2/aug-cc-pvtz', properties = ['dipole'])
--------------------------------------------------------------------------

    Molecular point group: c1
  Charge       = 0
  Multiplicity = 1
  Basis Set: AUG-CC-PVTZ
    Blend: AUG-CC-PVTZ
  Basis Set: (AUG-CC-PVTZ AUX)
    Blend: AUG-CC-PVTZ-JKFIT

    Orbital Energies [Eh]
    ---------------------

    Doubly Occupied:

       1A    -20.630137     2A    -20.591804     3A    -20.578190
       4A    -20.575509     5A    -20.575155     6A    -20.573334
       7A    -20.563720     8A    -11.400579     9A    -11.316837
      10A    -11.301809    11A    -11.301257    12A    -11.300131
      13A    -11.295122    14A     -1.474900    15A     -1.406381
      16A     -1.391686    17A     -1.382450    18A     -1.365149
      19A     -1.358685    20A     -1.331203    21A     -1.075150
      22A     -1.025231    23A     -0.959693    24A     -0.884013
      25A     -0.829626    26A     -0.795008    27A     -0.751710
      28A     -0.735539    29A     -0.722303    30A     -0.714949
      31A     -0.710613    32A     -0.682242    33A     -0.667572
      34A     -0.645608    35A     -0.638512    36A     -0.630969
      37A     -0.618821    38A     -0.602363    39A     -0.600934
      40A     -0.577042    41A     -0.551241    42A     -0.550089
      43A     -0.536400    44A     -0.530983    45A     -0.523703
      46A     -0.502919    47A     -0.494221    48A     -0.480924
      49A     -0.464385    50A     -0.458967    51A     -0.450740
      52A     -0.441131

  @DF-RHF Final Energy:  -758.48807407339768

   => Energetics <=

    Nuclear Repulsion Energy =            914.4920396450423823
    One-Electron Energy =               -2860.8249466779357135
    Two-Electron Energy =                1187.8448329594955339
    Total Energy =                       -758.4880740733976836
  Basis Set: (AUG-CC-PVTZ AUX)
    Blend: AUG-CC-PVTZ-RI
    Molecular point group: c1

    Geometry (in Angstrom), charge = 0, multiplicity = 1:

       Center              X                  Y                   Z               Mass
    ------------   -----------------  -----------------  -----------------  -----------------
         O           -1.399699372606    -1.702275560129    -1.052384593335    15.994914619570
         O            1.287561627394    -1.500234560129    -0.869776593335    15.994914619570
         O           -3.057791372606    -0.687640560129     0.797491406665    15.994914619570
         O            1.362577627394    -0.360239560129     1.789492406665    15.994914619570
         O           -3.431036372606     1.810299439871    -0.138323593335    15.994914619570
         O            2.569496627394     1.549141439871    -0.997503593335    15.994914619570
         O            3.654957627394     0.141504439871     0.422305406665    15.994914619570
         C           -0.858696372606    -0.955398560129     0.044031406665    12.000000000000
         C            0.458110627394    -0.407878560129    -0.479682593335    12.000000000000
         C           -1.880223372606     0.072922439871     0.511998406665    12.000000000000
         C            1.248611627394     0.356952439871     0.580040406665    12.000000000000
         C           -2.229870372606     1.126587439871    -0.531314593335    12.000000000000
         C            2.628822627394     0.657530439871     0.021527406665    12.000000000000
         H           -0.637688372606    -1.623791560129     0.885831406665     1.007825032230
         H            0.271979627394     0.252286439871    -1.340349593335     1.007825032230
         H           -1.515191372606     0.558644439871     1.432100406665     1.007825032230
         H            0.747349627394     1.304784439871     0.807321406665     1.007825032230
         H           -2.463157372606     0.633876439871    -1.476483593335     1.007825032230
         H           -1.406845372606     1.833836439871    -0.693098593335     1.007825032230
         H           -2.281192372606    -1.989225560129    -0.742167593335     1.007825032230
         H            0.580647427394    -2.229227460129    -1.464882893335     1.007825032230
         H           -3.793039372606    -0.046414560129     0.720376406665     1.007825032230
         H            2.097719627394    -0.988986560129     1.651249406665     1.007825032230
         H           -3.196336372606     2.422643439871     0.580989406665     1.007825032230
         H            3.486107627394     1.636483439871    -1.333541593335     1.007825032230

  Basis Set: AUG-CC-PVTZ
    Blend: AUG-CC-PVTZ
  Basis Set: (AUG-CC-PVTZ AUX)
    Blend: AUG-CC-PVTZ-JKFIT
	 Reference Energy          =    -758.4880740733976836 [Eh]
	 Singles Energy            =      -0.0000000000000000 [Eh]
	 Same-Spin Energy          =      -0.7370503414869346 [Eh]
	 Opposite-Spin Energy      =      -2.2378845238935505 [Eh]
	 Correlation Energy        =      -2.9749348653804852 [Eh]
	 Total Energy              =    -761.4630089387782164 [Eh]

	 ================> DF-SCS-MP2 Energies <==================
	-----------------------------------------------------------
	 SCS Same-Spin Scale       =       0.3333333333333333 [-]
	 SCS Opposite-Spin Scale   =       1.2000000000000000 [-]
	 SCS Same-Spin Energy      =      -0.2456834471623115 [Eh]
	 SCS Opposite-Spin Energy  =      -2.6854614286722605 [Eh]
	 SCS Correlation Energy    =      -2.9311448758345722 [Eh]
	 SCS Total Energy          =    -761.4192189492322314 [Eh]
	-----------------------------------------------------------

  Dipole Moment: [D]
     X:    -1.3770      Y:     2.5157      Z:    -0.9097     Total:     3.0087

*** Psi4 exiting successfully. Buy a developer a beer!
