                               Psi4 1.4a3.dev225

  ==> Input File <==

--------------------------------------------------------------------------
#psi4
#
memory 32 gb

molecule  {
0 1
  O       -1.3621950    -1.7118670    -1.0487160
  O        1.3250660    -1.5098260    -0.8661080
  O       -3.0202870    -0.6972320     0.8011600
  O        1.4000820    -0.3698310     1.7931610
  O       -3.3935320     1.8007080    -0.1346550
  O        2.6070010     1.5395500    -0.9938350
  O        3.6924620     0.1319130     0.4259740
  C       -0.8023115    -0.9389247     0.0859639
  C        0.4956150    -0.4174700    -0.4760140
  C       -1.8427190     0.0633310     0.5156670
  C        1.2861160     0.3473610     0.5837090
  C       -2.1923660     1.1169960    -0.5276460
  C        2.6663270     0.6479390     0.0251960
  H       -0.6001840    -1.6333830     0.8895000
  H        0.3094840     0.2426950    -1.3366810
  H       -1.4776870     0.5490530     1.4357690
  H        0.7848540     1.2951930     0.8109900
  H       -2.4256530     0.6242850    -1.4728150
  H       -1.3693410     1.8242450    -0.6894300
  H       -2.2436880    -1.9988170    -0.7384990
  H        0.7382740    -2.1149450    -1.3600910
  H       -3.7555350    -0.0560060     0.7240450
  H        2.1352240    -0.9985780     1.6549180
  H       -3.1588320     2.4130520     0.5846580
  H        3.5236120     1.6268920    -1.3298730
units angstrom
no_reorient  #important for SAPT in psi4, default
symmetry c1  #important for SAPT in psi4, default
}

set PROPERTIES_ORIGIN ["COM"]
properties('MP2/aug-cc-pvtz', properties = ['dipole'])
--------------------------------------------------------------------------

    Molecular point group: c1
  Charge       = 0
  Multiplicity = 1
  Basis Set: AUG-CC-PVTZ
    Blend: AUG-CC-PVTZ
  Basis Set: (AUG-CC-PVTZ AUX)
    Blend: AUG-CC-PVTZ-JKFIT

    Orbital Energies [Eh]
    ---------------------

    Doubly Occupied:

       1A    -20.631825     2A    -20.592736     3A    -20.576034
       4A    -20.575846     5A    -20.571529     6A    -20.567357
       7A    -20.565372     8A    -11.402118     9A    -11.318625
      10A    -11.305912    11A    -11.303776    12A    -11.301357
      13A    -11.296559    14A     -1.476662    15A     -1.405351
      16A     -1.397018    17A     -1.379967    18A     -1.369159
      19A     -1.363020    20A     -1.340856    21A     -1.085310
      22A     -1.030033    23A     -0.963606    24A     -0.891332
      25A     -0.829987    26A     -0.802933    27A     -0.758047
      28A     -0.735001    29A     -0.725968    30A     -0.715711
      31A     -0.713367    32A     -0.682105    33A     -0.674013
      34A     -0.648753    35A     -0.641967    36A     -0.634811
      37A     -0.628588    38A     -0.606499    39A     -0.601789
      40A     -0.580882    41A     -0.550274    42A     -0.548965
      43A     -0.540034    44A     -0.533159    45A     -0.529644
      46A     -0.501517    47A     -0.496027    48A     -0.486092
      49A     -0.468468    50A     -0.463820    51A     -0.456366
      52A     -0.446077

  @DF-RHF Final Energy:  -758.52014934622468

   => Energetics <=

    Nuclear Repulsion Energy =            915.5840826463384019
    One-Electron Energy =               -2862.7840204740791705
    Two-Electron Energy =                1188.6797884815161979
    Total Energy =                       -758.5201493462245708
  Basis Set: (AUG-CC-PVTZ AUX)
    Blend: AUG-CC-PVTZ-RI
    Molecular point group: c1

    Geometry (in Angstrom), charge = 0, multiplicity = 1:

       Center              X                  Y                   Z               Mass
    ------------   -----------------  -----------------  -----------------  -----------------
         O           -1.401472458240    -1.704507686038    -1.055246402222    15.994914619570
         O            1.285788541760    -1.502466686038    -0.872638402222    15.994914619570
         O           -3.059564458240    -0.689872686038     0.794629597778    15.994914619570
         O            1.360804541760    -0.362471686038     1.786630597778    15.994914619570
         O           -3.432809458240     1.808067313962    -0.141185402222    15.994914619570
         O            2.567723541760     1.546909313962    -1.000365402222    15.994914619570
         O            3.653184541760     0.139272313962     0.419443597778    15.994914619570
         C           -0.841588958240    -0.931565386038     0.079433497778    12.000000000000
         C            0.456337541760    -0.410110686038    -0.482544402222    12.000000000000
         C           -1.881996458240     0.070690313962     0.509136597778    12.000000000000
         C            1.246838541760     0.354720313962     0.577178597778    12.000000000000
         C           -2.231643458240     1.124355313962    -0.534176402222    12.000000000000
         C            2.627049541760     0.655298313962     0.018665597778    12.000000000000
         H           -0.639461458240    -1.626023686038     0.882969597778     1.007825032230
         H            0.270206541760     0.250054313962    -1.343211402222     1.007825032230
         H           -1.516964458240     0.556412313962     1.429238597778     1.007825032230
         H            0.745576541760     1.302552313962     0.804459597778     1.007825032230
         H           -2.464930458240     0.631644313962    -1.479345402222     1.007825032230
         H           -1.408618458240     1.831604313962    -0.695960402222     1.007825032230
         H           -2.282965458240    -1.991457686038    -0.745029402222     1.007825032230
         H            0.698996541760    -2.107585686038    -1.366621402222     1.007825032230
         H           -3.794812458240    -0.048646686038     0.717514597778     1.007825032230
         H            2.095946541760    -0.991218686038     1.648387597778     1.007825032230
         H           -3.198109458240     2.420411313962     0.578127597778     1.007825032230
         H            3.484334541760     1.634251313962    -1.336403402222     1.007825032230

  Basis Set: AUG-CC-PVTZ
    Blend: AUG-CC-PVTZ
  Basis Set: (AUG-CC-PVTZ AUX)
    Blend: AUG-CC-PVTZ-JKFIT
	 Reference Energy          =    -758.5201493462246845 [Eh]
	 Singles Energy            =      -0.0000000000000000 [Eh]
	 Same-Spin Energy          =      -0.7346120255308968 [Eh]
	 Opposite-Spin Energy      =      -2.2320184727903558 [Eh]
	 Correlation Energy        =      -2.9666304983212526 [Eh]
	 Total Energy              =    -761.4867798445459357 [Eh]

	 ================> DF-SCS-MP2 Energies <==================
	-----------------------------------------------------------
	 SCS Same-Spin Scale       =       0.3333333333333333 [-]
	 SCS Opposite-Spin Scale   =       1.2000000000000000 [-]
	 SCS Same-Spin Energy      =      -0.2448706751769656 [Eh]
	 SCS Opposite-Spin Energy  =      -2.6784221673484270 [Eh]
	 SCS Correlation Energy    =      -2.9232928425253926 [Eh]
	 SCS Total Energy          =    -761.4434421887500548 [Eh]
	-----------------------------------------------------------

  Dipole Moment: [D]
     X:    -1.1525      Y:     2.7589      Z:    -0.7077     Total:     3.0725

*** Psi4 exiting successfully. Buy a developer a beer!
