                               Psi4 1.4a3.dev225

  ==> Input File <==

--------------------------------------------------------------------------
#psi4
#
memory 32 gb

molecule  {
0 1
  O       -1.3621950    -1.7118670    -1.0487160
  O        1.3250660    -1.5098260    -0.8661080
  O       -3.0202870    -0.6972320     0.8011600
  O        1.4000820    -0.3698310     1.7931610
  O       -3.3935320     1.8007080    -0.1346550
  O        2.6070010     1.5395500    -0.9938350
  O        3.6924620     0.1319130     0.4259740
  C       -0.8211920    -0.9649900     0.0477000
  C        0.4956150    -0.4174700    -0.4760140
  C       -1.8427190     0.0633310     0.5156670
  C        1.2861160     0.3473610     0.5837090
  C       -2.1923660     1.1169960    -0.5276460
  C        2.6663270     0.6479390     0.0251960
  H       -0.6001840    -1.6333830     0.8895000
  H        0.3094840     0.2426950    -1.3366810
  H       -1.4776870     0.5490530     1.4357690
  H        0.7848540     1.2951930     0.8109900
  H       -2.4256530     0.6242850    -1.4728150
  H       -1.3693410     1.8242450    -0.6894300
  H       -2.2436880    -1.9988170    -0.7384990
  H        0.7382740    -2.1149450    -1.3600910
  H       -3.7555350    -0.0560060     0.7240450
  H        2.1352240    -0.9985780     1.6549180
  H       -3.1588320     2.4130520     0.5846580
  H        3.5049088     1.6251098    -1.3230162
units angstrom
no_reorient  #important for SAPT in psi4, default
symmetry c1  #important for SAPT in psi4, default
}

set PROPERTIES_ORIGIN ["COM"]
properties('MP2/aug-cc-pvtz', properties = ['dipole'])
--------------------------------------------------------------------------

    Molecular point group: c1
  Charge       = 0
  Multiplicity = 1
  Basis Set: AUG-CC-PVTZ
    Blend: AUG-CC-PVTZ
  Basis Set: (AUG-CC-PVTZ AUX)
    Blend: AUG-CC-PVTZ-JKFIT

    Orbital Energies [Eh]
    ---------------------

    Doubly Occupied:

       1A    -20.630223     2A    -20.592111     3A    -20.575354
       4A    -20.574908     5A    -20.573184     6A    -20.570541
       7A    -20.565507     8A    -11.402304     9A    -11.318372
      10A    -11.304472    11A    -11.302311    12A    -11.300508
      13A    -11.295933    14A     -1.479263    15A     -1.407941
      16A     -1.396884    17A     -1.384283    18A     -1.370189
      19A     -1.363071    20A     -1.350707    21A     -1.080640
      22A     -1.028703    23A     -0.961854    24A     -0.888981
      25A     -0.833080    26A     -0.802998    27A     -0.758426
      28A     -0.737365    29A     -0.726609    30A     -0.715346
      31A     -0.713453    32A     -0.683227    33A     -0.676566
      34A     -0.650510    35A     -0.640943    36A     -0.637367
      37A     -0.628732    38A     -0.607689    39A     -0.602057
      40A     -0.581307    41A     -0.553536    42A     -0.550191
      43A     -0.539889    44A     -0.534348    45A     -0.531292
      46A     -0.503371    47A     -0.496294    48A     -0.484807
      49A     -0.466522    50A     -0.460226    51A     -0.455622
      52A     -0.442998

  @DF-RHF Final Energy:  -758.52446289773400

   => Energetics <=

    Nuclear Repulsion Energy =            915.7242523719985456
    One-Electron Energy =               -2863.0313954075368201
    Two-Electron Energy =                1188.7826801378041637
    Total Energy =                       -758.5244628977341108
  Basis Set: (AUG-CC-PVTZ AUX)
    Blend: AUG-CC-PVTZ-RI
    Molecular point group: c1

    Geometry (in Angstrom), charge = 0, multiplicity = 1:

       Center              X                  Y                   Z               Mass
    ------------   -----------------  -----------------  -----------------  -----------------
         O           -1.400220710419    -1.702903164621    -1.052939658060    15.994914619570
         O            1.287040289581    -1.500862164621    -0.870331658060    15.994914619570
         O           -3.058312710419    -0.688268164621     0.796936341940    15.994914619570
         O            1.362056289581    -0.360867164621     1.788937341940    15.994914619570
         O           -3.431557710419     1.809671835379    -0.138878658060    15.994914619570
         O            2.568975289581     1.548513835379    -0.998058658060    15.994914619570
         O            3.654436289581     0.140876835379     0.421750341940    15.994914619570
         C           -0.859217710419    -0.956026164621     0.043476341940    12.000000000000
         C            0.457589289581    -0.408506164621    -0.480237658060    12.000000000000
         C           -1.880744710419     0.072294835379     0.511443341940    12.000000000000
         C            1.248090289581     0.356324835379     0.579485341940    12.000000000000
         C           -2.230391710419     1.125959835379    -0.531869658060    12.000000000000
         C            2.628301289581     0.656902835379     0.020972341940    12.000000000000
         H           -0.638209710419    -1.624419164621     0.885276341940     1.007825032230
         H            0.271458289581     0.251658835379    -1.340904658060     1.007825032230
         H           -1.515712710419     0.558016835379     1.431545341940     1.007825032230
         H            0.746828289581     1.304156835379     0.806766341940     1.007825032230
         H           -2.463678710419     0.633248835379    -1.477038658060     1.007825032230
         H           -1.407366710419     1.833208835379    -0.693653658060     1.007825032230
         H           -2.281713710419    -1.989853164621    -0.742722658060     1.007825032230
         H            0.700248289581    -2.105981164621    -1.364314658060     1.007825032230
         H           -3.793560710419    -0.047042164621     0.719821341940     1.007825032230
         H            2.097198289581    -0.989614164621     1.650694341940     1.007825032230
         H           -3.196857710419     2.422015835379     0.580434341940     1.007825032230
         H            3.466883089581     1.634073635379    -1.327239858060     1.007825032230

  Basis Set: AUG-CC-PVTZ
    Blend: AUG-CC-PVTZ
  Basis Set: (AUG-CC-PVTZ AUX)
    Blend: AUG-CC-PVTZ-JKFIT
	 Reference Energy          =    -758.5244628977339971 [Eh]
	 Singles Energy            =      -0.0000000000000000 [Eh]
	 Same-Spin Energy          =      -0.7340600275786007 [Eh]
	 Opposite-Spin Energy      =      -2.2304217444040346 [Eh]
	 Correlation Energy        =      -2.9644817719826353 [Eh]
	 Total Energy              =    -761.4889446697166022 [Eh]

	 ================> DF-SCS-MP2 Energies <==================
	-----------------------------------------------------------
	 SCS Same-Spin Scale       =       0.3333333333333333 [-]
	 SCS Opposite-Spin Scale   =       1.2000000000000000 [-]
	 SCS Same-Spin Energy      =      -0.2446866758595335 [Eh]
	 SCS Opposite-Spin Energy  =      -2.6765060932848415 [Eh]
	 SCS Correlation Energy    =      -2.9211927691443749 [Eh]
	 SCS Total Energy          =    -761.4456556668783378 [Eh]
	-----------------------------------------------------------

  Dipole Moment: [D]
     X:    -1.2362      Y:     2.6681      Z:    -0.7897     Total:     3.0447

*** Psi4 exiting successfully. Buy a developer a beer!
