                               Psi4 1.4a3.dev225

  ==> Input File <==

--------------------------------------------------------------------------
#psi4
#
memory 32 gb

molecule  {
0 1
  O       -1.3621950    -1.7118670    -1.0487160
  O        1.3250660    -1.5098260    -0.8661080
  O       -3.0202870    -0.6972320     0.8011600
  O        1.4000820    -0.3698310     1.7931610
  O       -3.3935320     1.8007080    -0.1346550
  O        2.6070010     1.5395500    -0.9938350
  O        3.6924620     0.1319130     0.4259740
  C       -0.8211920    -0.9649900     0.0477000
  C        0.4956150    -0.4174700    -0.4760140
  C       -1.8427190     0.0633310     0.5156670
  C        1.3610075     0.2937565     0.5488734
  C       -2.1923660     1.1169960    -0.5276460
  C        2.6663270     0.6479390     0.0251960
  H       -0.6001840    -1.6333830     0.8895000
  H        0.3094840     0.2426950    -1.3366810
  H       -1.4776870     0.5490530     1.4357690
  H        0.7848540     1.2951930     0.8109900
  H       -2.4256530     0.6242850    -1.4728150
  H       -1.3693410     1.8242450    -0.6894300
  H       -2.2436880    -1.9988170    -0.7384990
  H        0.7382740    -2.1149450    -1.3600910
  H       -3.7555350    -0.0560060     0.7240450
  H        2.1352240    -0.9985780     1.6549180
  H       -3.1588320     2.4130520     0.5846580
  H        3.5236120     1.6268920    -1.3298730
units angstrom
no_reorient  #important for SAPT in psi4, default
symmetry c1  #important for SAPT in psi4, default
}

set PROPERTIES_ORIGIN ["COM"]
properties('MP2/aug-cc-pvtz', properties = ['dipole'])
--------------------------------------------------------------------------

    Molecular point group: c1
  Charge       = 0
  Multiplicity = 1
  Basis Set: AUG-CC-PVTZ
    Blend: AUG-CC-PVTZ
  Basis Set: (AUG-CC-PVTZ AUX)
    Blend: AUG-CC-PVTZ-JKFIT

    Orbital Energies [Eh]
    ---------------------

    Doubly Occupied:

       1A    -20.632543     2A    -20.591643     3A    -20.578920
       4A    -20.575145     5A    -20.574354     6A    -20.569313
       7A    -20.565002     8A    -11.400954     9A    -11.319665
      10A    -11.305472    11A    -11.301982    12A    -11.299943
      13A    -11.297437    14A     -1.479059    15A     -1.408596
      16A     -1.398911    17A     -1.385420    18A     -1.370351
      19A     -1.363739    20A     -1.351312    21A     -1.081100
      22A     -1.034439    23A     -0.965931    24A     -0.891915
      25A     -0.829170    26A     -0.798290    27A     -0.759957
      28A     -0.745482    29A     -0.725859    30A     -0.714871
      31A     -0.713357    32A     -0.683379    33A     -0.674979
      34A     -0.652008    35A     -0.639750    36A     -0.631772
      37A     -0.629010    38A     -0.606395    39A     -0.600875
      40A     -0.579389    41A     -0.551871    42A     -0.550252
      43A     -0.542620    44A     -0.534427    45A     -0.528702
      46A     -0.502925    47A     -0.495917    48A     -0.479802
      49A     -0.466460    50A     -0.466171    51A     -0.454470
      52A     -0.445419

  @DF-RHF Final Energy:  -758.51128976721043

   => Energetics <=

    Nuclear Repulsion Energy =            916.3521852370796523
    One-Electron Energy =               -2864.2334940315909080
    Two-Electron Energy =                1189.3700190273009412
    Total Energy =                       -758.5112897672104282
  Basis Set: (AUG-CC-PVTZ AUX)
    Blend: AUG-CC-PVTZ-RI
    Molecular point group: c1

    Geometry (in Angstrom), charge = 0, multiplicity = 1:

       Center              X                  Y                   Z               Mass
    ------------   -----------------  -----------------  -----------------  -----------------
         O           -1.404900683368    -1.699631393697    -1.050772253523    15.994914619570
         O            1.282360316632    -1.497590393697    -0.868164253523    15.994914619570
         O           -3.062992683368    -0.684996393697     0.799103746477    15.994914619570
         O            1.357376316632    -0.357595393697     1.791104746477    15.994914619570
         O           -3.436237683368     1.812943606303    -0.136711253523    15.994914619570
         O            2.564295316632     1.551785606303    -0.995891253523    15.994914619570
         O            3.649756316632     0.144148606303     0.423917746477    15.994914619570
         C           -0.863897683368    -0.952754393697     0.045643746477    12.000000000000
         C            0.452909316632    -0.405234393697    -0.478070253523    12.000000000000
         C           -1.885424683368     0.075566606303     0.513610746477    12.000000000000
         C            1.318301816632     0.305992106303     0.546817146477    12.000000000000
         C           -2.235071683368     1.129231606303    -0.529702253523    12.000000000000
         C            2.623621316632     0.660174606303     0.023139746477    12.000000000000
         H           -0.642889683368    -1.621147393697     0.887443746477     1.007825032230
         H            0.266778316632     0.254930606303    -1.338737253523     1.007825032230
         H           -1.520392683368     0.561288606303     1.433712746477     1.007825032230
         H            0.742148316632     1.307428606303     0.808933746477     1.007825032230
         H           -2.468358683368     0.636520606303    -1.474871253523     1.007825032230
         H           -1.412046683368     1.836480606303    -0.691486253523     1.007825032230
         H           -2.286393683368    -1.986581393697    -0.740555253523     1.007825032230
         H            0.695568316632    -2.102709393697    -1.362147253523     1.007825032230
         H           -3.798240683368    -0.043770393697     0.721988746477     1.007825032230
         H            2.092518316632    -0.986342393697     1.652861746477     1.007825032230
         H           -3.201537683368     2.425287606303     0.582601746477     1.007825032230
         H            3.480906316632     1.639127606303    -1.331929253523     1.007825032230

  Basis Set: AUG-CC-PVTZ
    Blend: AUG-CC-PVTZ
  Basis Set: (AUG-CC-PVTZ AUX)
    Blend: AUG-CC-PVTZ-JKFIT
	 Reference Energy          =    -758.5112897672104282 [Eh]
	 Singles Energy            =      -0.0000000000000000 [Eh]
	 Same-Spin Energy          =      -0.7351637860750054 [Eh]
	 Opposite-Spin Energy      =      -2.2325649291588050 [Eh]
	 Correlation Energy        =      -2.9677287152338105 [Eh]
	 Total Energy              =    -761.4790184824441894 [Eh]

	 ================> DF-SCS-MP2 Energies <==================
	-----------------------------------------------------------
	 SCS Same-Spin Scale       =       0.3333333333333333 [-]
	 SCS Opposite-Spin Scale   =       1.2000000000000000 [-]
	 SCS Same-Spin Energy      =      -0.2450545953583351 [Eh]
	 SCS Opposite-Spin Energy  =      -2.6790779149905659 [Eh]
	 SCS Correlation Energy    =      -2.9241325103489011 [Eh]
	 SCS Total Energy          =    -761.4354222775593826 [Eh]
	-----------------------------------------------------------

  Dipole Moment: [D]
     X:    -1.2174      Y:     2.5712      Z:    -0.8086     Total:     2.9576

*** Psi4 exiting successfully. Buy a developer a beer!
