                               Psi4 1.4a3.dev225

  ==> Input File <==

--------------------------------------------------------------------------
#psi4
#
memory 32 gb

molecule  {
0 1
  O       -1.3621950    -1.7118670    -1.0487160
  O        1.3250660    -1.5098260    -0.8661080
  O       -3.0202870    -0.6972320     0.8011600
  O        1.4000820    -0.3698310     1.7931610
  O       -3.3935320     1.8007080    -0.1346550
  O        2.6070010     1.5395500    -0.9938350
  O        3.6924620     0.1319130     0.4259740
  C       -0.8211920    -0.9649900     0.0477000
  C        0.4956150    -0.4174700    -0.4760140
  C       -1.8427190     0.0633310     0.5156670
  C        1.2861160     0.3473610     0.5837090
  C       -2.1923660     1.1169960    -0.5276460
  C        2.6663270     0.6479390     0.0251960
  H       -0.6042120    -1.6212013     0.8741579
  H        0.3094840     0.2426950    -1.3366810
  H       -1.4776870     0.5490530     1.4357690
  H        0.7848540     1.2951930     0.8109900
  H       -2.4256530     0.6242850    -1.4728150
  H       -1.3693410     1.8242450    -0.6894300
  H       -2.2436880    -1.9988170    -0.7384990
  H        0.7382740    -2.1149450    -1.3600910
  H       -3.7555350    -0.0560060     0.7240450
  H        2.1352240    -0.9985780     1.6549180
  H       -3.1588320     2.4130520     0.5846580
  H        3.5236120     1.6268920    -1.3298730
units angstrom
no_reorient  #important for SAPT in psi4, default
symmetry c1  #important for SAPT in psi4, default
}

set PROPERTIES_ORIGIN ["COM"]
properties('MP2/aug-cc-pvtz', properties = ['dipole'])
--------------------------------------------------------------------------

    Molecular point group: c1
  Charge       = 0
  Multiplicity = 1
  Basis Set: AUG-CC-PVTZ
    Blend: AUG-CC-PVTZ
  Basis Set: (AUG-CC-PVTZ AUX)
    Blend: AUG-CC-PVTZ-JKFIT

    Orbital Energies [Eh]
    ---------------------

    Doubly Occupied:

       1A    -20.631443     2A    -20.591978     3A    -20.575300
       4A    -20.574900     5A    -20.572848     6A    -20.570450
       7A    -20.565105     8A    -11.401904     9A    -11.318267
      10A    -11.304202    11A    -11.302100    12A    -11.300339
      13A    -11.293615    14A     -1.476295    15A     -1.407802
      16A     -1.396392    17A     -1.383691    18A     -1.369553
      19A     -1.362575    20A     -1.350558    21A     -1.080707
      22A     -1.028208    23A     -0.962039    24A     -0.888470
      25A     -0.830864    26A     -0.803403    27A     -0.758636
      28A     -0.736708    29A     -0.725737    30A     -0.715385
      31A     -0.713096    32A     -0.683088    33A     -0.676423
      34A     -0.650061    35A     -0.640358    36A     -0.636915
      37A     -0.629124    38A     -0.607155    39A     -0.602342
      40A     -0.581246    41A     -0.553639    42A     -0.550095
      43A     -0.539723    44A     -0.534280    45A     -0.531218
      46A     -0.503372    47A     -0.495729    48A     -0.484555
      49A     -0.466476    50A     -0.460250    51A     -0.455492
      52A     -0.443674

  @DF-RHF Final Energy:  -758.52374271700921

   => Energetics <=

    Nuclear Repulsion Energy =            915.7040443798155138
    One-Electron Energy =               -2863.0200027002911156
    Two-Electron Energy =                1188.7922156034665022
    Total Energy =                       -758.5237427170090996
  Basis Set: (AUG-CC-PVTZ AUX)
    Blend: AUG-CC-PVTZ-RI
    Molecular point group: c1

    Geometry (in Angstrom), charge = 0, multiplicity = 1:

       Center              X                  Y                   Z               Mass
    ------------   -----------------  -----------------  -----------------  -----------------
         O           -1.400296147337    -1.702974945146    -1.052825546049    15.994914619570
         O            1.286964852663    -1.500933945146    -0.870217546049    15.994914619570
         O           -3.058388147337    -0.688339945146     0.797050453951    15.994914619570
         O            1.361980852663    -0.360938945146     1.789051453951    15.994914619570
         O           -3.431633147337     1.809600054854    -0.138764546049    15.994914619570
         O            2.568899852663     1.548442054854    -0.997944546049    15.994914619570
         O            3.654360852663     0.140805054854     0.421864453951    15.994914619570
         C           -0.859293147337    -0.956097945146     0.043590453951    12.000000000000
         C            0.457513852663    -0.408577945146    -0.480123546049    12.000000000000
         C           -1.880820147337     0.072223054854     0.511557453951    12.000000000000
         C            1.248014852663     0.356253054854     0.579599453951    12.000000000000
         C           -2.230467147337     1.125888054854    -0.531755546049    12.000000000000
         C            2.628225852663     0.656831054854     0.021086453951    12.000000000000
         H           -0.642313147337    -1.612309245146     0.870048353951     1.007825032230
         H            0.271382852663     0.251587054854    -1.340790546049     1.007825032230
         H           -1.515788147337     0.557945054854     1.431659453951     1.007825032230
         H            0.746752852663     1.304085054854     0.806880453951     1.007825032230
         H           -2.463754147337     0.633177054854    -1.476924546049     1.007825032230
         H           -1.407442147337     1.833137054854    -0.693539546049     1.007825032230
         H           -2.281789147337    -1.989924945146    -0.742608546049     1.007825032230
         H            0.700172852663    -2.106052945146    -1.364200546049     1.007825032230
         H           -3.793636147337    -0.047113945146     0.719935453951     1.007825032230
         H            2.097122852663    -0.989685945146     1.650808453951     1.007825032230
         H           -3.196933147337     2.421944054854     0.580548453951     1.007825032230
         H            3.485510852663     1.635784054854    -1.333982546049     1.007825032230

  Basis Set: AUG-CC-PVTZ
    Blend: AUG-CC-PVTZ
  Basis Set: (AUG-CC-PVTZ AUX)
    Blend: AUG-CC-PVTZ-JKFIT
	 Reference Energy          =    -758.5237427170092133 [Eh]
	 Singles Energy            =      -0.0000000000000000 [Eh]
	 Same-Spin Energy          =      -0.7342544121591207 [Eh]
	 Opposite-Spin Energy      =      -2.2308105470366275 [Eh]
	 Correlation Energy        =      -2.9650649591957481 [Eh]
	 Total Energy              =    -761.4888076762049423 [Eh]

	 ================> DF-SCS-MP2 Energies <==================
	-----------------------------------------------------------
	 SCS Same-Spin Scale       =       0.3333333333333333 [-]
	 SCS Opposite-Spin Scale   =       1.2000000000000000 [-]
	 SCS Same-Spin Energy      =      -0.2447514707197069 [Eh]
	 SCS Opposite-Spin Energy  =      -2.6769726564439531 [Eh]
	 SCS Correlation Energy    =      -2.9217241271636598 [Eh]
	 SCS Total Energy          =    -761.4454668441728700 [Eh]
	-----------------------------------------------------------

  Dipole Moment: [D]
     X:    -1.2105      Y:     2.6732      Z:    -0.7975     Total:     3.0409

*** Psi4 exiting successfully. Buy a developer a beer!
