                               Psi4 1.4a3.dev225

  ==> Input File <==

--------------------------------------------------------------------------
#psi4
#
memory 32 gb

molecule  {
0 1
  O       -1.3621950    -1.7118670    -1.0487160
  O        1.3250660    -1.5098260    -0.8661080
  O       -3.0202870    -0.6972320     0.8011600
  O        1.4000820    -0.3698310     1.7931610
  O       -3.3935320     1.8007080    -0.1346550
  O        2.6070010     1.5395500    -0.9938350
  O        3.6924620     0.1319130     0.4259740
  C       -0.8211920    -0.9649900     0.0477000
  C        0.5537823    -0.4940742    -0.5033703
  C       -1.8427190     0.0633310     0.5156670
  C        1.2861160     0.3473610     0.5837090
  C       -2.1923660     1.1169960    -0.5276460
  C        2.6663270     0.6479390     0.0251960
  H       -0.6001840    -1.6333830     0.8895000
  H        0.3094840     0.2426950    -1.3366810
  H       -1.4776870     0.5490530     1.4357690
  H        0.7848540     1.2951930     0.8109900
  H       -2.4256530     0.6242850    -1.4728150
  H       -1.3693410     1.8242450    -0.6894300
  H       -2.2436880    -1.9988170    -0.7384990
  H        0.7382740    -2.1149450    -1.3600910
  H       -3.7555350    -0.0560060     0.7240450
  H        2.1352240    -0.9985780     1.6549180
  H       -3.1588320     2.4130520     0.5846580
  H        3.5236120     1.6268920    -1.3298730
units angstrom
no_reorient  #important for SAPT in psi4, default
symmetry c1  #important for SAPT in psi4, default
}

set PROPERTIES_ORIGIN ["COM"]
properties('MP2/aug-cc-pvtz', properties = ['dipole'])
--------------------------------------------------------------------------

    Molecular point group: c1
  Charge       = 0
  Multiplicity = 1
  Basis Set: AUG-CC-PVTZ
    Blend: AUG-CC-PVTZ
  Basis Set: (AUG-CC-PVTZ AUX)
    Blend: AUG-CC-PVTZ-JKFIT

    Orbital Energies [Eh]
    ---------------------

    Doubly Occupied:

       1A    -20.630159     2A    -20.590511     3A    -20.581725
       4A    -20.574599     5A    -20.572995     6A    -20.571634
       7A    -20.563921     8A    -11.399343     9A    -11.315716
      10A    -11.306860    11A    -11.301690    12A    -11.298550
      13A    -11.293361    14A     -1.475419    15A     -1.429663
      16A     -1.402112    17A     -1.385502    18A     -1.375807
      19A     -1.363334    20A     -1.353692    21A     -1.070021
      22A     -1.024417    23A     -0.956283    24A     -0.886135
      25A     -0.827614    26A     -0.809920    27A     -0.760945
      28A     -0.734730    29A     -0.724861    30A     -0.713844
      31A     -0.711164    32A     -0.685850    33A     -0.683683
      34A     -0.656734    35A     -0.645044    36A     -0.637436
      37A     -0.627961    38A     -0.611177    39A     -0.601285
      40A     -0.586474    41A     -0.555211    42A     -0.549022
      43A     -0.538315    44A     -0.537360    45A     -0.533281
      46A     -0.502513    47A     -0.494991    48A     -0.482911
      49A     -0.462442    50A     -0.458220    51A     -0.443143
      52A     -0.432905

  @DF-RHF Final Energy:  -758.51544952424319

   => Energetics <=

    Nuclear Repulsion Energy =            915.6956917229985038
    One-Electron Energy =               -2862.9573201011721721
    Two-Electron Energy =                1188.7461788539303598
    Total Energy =                       -758.5154495242431949
  Basis Set: (AUG-CC-PVTZ AUX)
    Blend: AUG-CC-PVTZ-RI
    Molecular point group: c1

    Geometry (in Angstrom), charge = 0, multiplicity = 1:

       Center              X                  Y                   Z               Mass
    ------------   -----------------  -----------------  -----------------  -----------------
         O           -1.403877057247    -1.698223667546    -1.051230033677    15.994914619570
         O            1.283383942753    -1.496182667546    -0.868622033677    15.994914619570
         O           -3.061969057247    -0.683588667546     0.798645966323    15.994914619570
         O            1.358399942753    -0.356187667546     1.790646966323    15.994914619570
         O           -3.435214057247     1.814351332454    -0.137169033677    15.994914619570
         O            2.565318942753     1.553193332454    -0.996349033677    15.994914619570
         O            3.650779942753     0.145556332454     0.423459966323    15.994914619570
         C           -0.862874057247    -0.951346667546     0.045185966323    12.000000000000
         C            0.512100242753    -0.480430867546    -0.505884333677    12.000000000000
         C           -1.884401057247     0.076974332454     0.513152966323    12.000000000000
         C            1.244433942753     0.361004332454     0.581194966323    12.000000000000
         C           -2.234048057247     1.130639332454    -0.530160033677    12.000000000000
         C            2.624644942753     0.661582332454     0.022681966323    12.000000000000
         H           -0.641866057247    -1.619739667546     0.886985966323     1.007825032230
         H            0.267801942753     0.256338332454    -1.339195033677     1.007825032230
         H           -1.519369057247     0.562696332454     1.433254966323     1.007825032230
         H            0.743171942753     1.308836332454     0.808475966323     1.007825032230
         H           -2.467335057247     0.637928332454    -1.475329033677     1.007825032230
         H           -1.411023057247     1.837888332454    -0.691944033677     1.007825032230
         H           -2.285370057247    -1.985173667546    -0.741013033677     1.007825032230
         H            0.696591942753    -2.101301667546    -1.362605033677     1.007825032230
         H           -3.797217057247    -0.042362667546     0.721530966323     1.007825032230
         H            2.093541942753    -0.984934667546     1.652403966323     1.007825032230
         H           -3.200514057247     2.426695332454     0.582143966323     1.007825032230
         H            3.481929942753     1.640535332454    -1.332387033677     1.007825032230

  Basis Set: AUG-CC-PVTZ
    Blend: AUG-CC-PVTZ
  Basis Set: (AUG-CC-PVTZ AUX)
    Blend: AUG-CC-PVTZ-JKFIT
	 Reference Energy          =    -758.5154495242431949 [Eh]
	 Singles Energy            =      -0.0000000000000000 [Eh]
	 Same-Spin Energy          =      -0.7343672239093787 [Eh]
	 Opposite-Spin Energy      =      -2.2298612947682988 [Eh]
	 Correlation Energy        =      -2.9642285186776776 [Eh]
	 Total Energy              =    -761.4796780429209093 [Eh]

	 ================> DF-SCS-MP2 Energies <==================
	-----------------------------------------------------------
	 SCS Same-Spin Scale       =       0.3333333333333333 [-]
	 SCS Opposite-Spin Scale   =       1.2000000000000000 [-]
	 SCS Same-Spin Energy      =      -0.2447890746364595 [Eh]
	 SCS Opposite-Spin Energy  =      -2.6758335537219584 [Eh]
	 SCS Correlation Energy    =      -2.9206226283584180 [Eh]
	 SCS Total Energy          =    -761.4360721526015823 [Eh]
	-----------------------------------------------------------

  Dipole Moment: [D]
     X:    -1.0468      Y:     2.3993      Z:    -0.9025     Total:     2.7690

*** Psi4 exiting successfully. Buy a developer a beer!
