                               Psi4 1.4a3.dev225

  ==> Input File <==

--------------------------------------------------------------------------
#psi4
#
memory 32 gb

molecule  {
0 1
  O       -1.3621950    -1.7118670    -1.0487160
  O        1.3250660    -1.5098260    -0.8661080
  O       -3.0202870    -0.6972320     0.8011600
  O        1.4000820    -0.3698310     1.7931610
  O       -3.3935320     1.8007080    -0.1346550
  O        2.6070010     1.5395500    -0.9938350
  O        3.6924620     0.1319130     0.4259740
  C       -0.8211920    -0.9649900     0.0477000
  C        0.4956150    -0.4174700    -0.4760140
  C       -1.8427190     0.0633310     0.5156670
  C        1.2861160     0.3473610     0.5837090
  C       -2.1923660     1.1169960    -0.5276460
  C        2.6663270     0.6479390     0.0251960
  H       -0.6001840    -1.6333830     0.8895000
  H        0.3128665     0.2306980    -1.3210403
  H       -1.4776870     0.5490530     1.4357690
  H        0.7848540     1.2951930     0.8109900
  H       -2.4256530     0.6242850    -1.4728150
  H       -1.3693410     1.8242450    -0.6894300
  H       -2.2436880    -1.9988170    -0.7384990
  H        0.7382740    -2.1149450    -1.3600910
  H       -3.7555350    -0.0560060     0.7240450
  H        2.1352240    -0.9985780     1.6549180
  H       -3.1588320     2.4130520     0.5846580
  H        3.5236120     1.6268920    -1.3298730
units angstrom
no_reorient  #important for SAPT in psi4, default
symmetry c1  #important for SAPT in psi4, default
}

set PROPERTIES_ORIGIN ["COM"]
properties('MP2/aug-cc-pvtz', properties = ['dipole'])
--------------------------------------------------------------------------

    Molecular point group: c1
  Charge       = 0
  Multiplicity = 1
  Basis Set: AUG-CC-PVTZ
    Blend: AUG-CC-PVTZ
  Basis Set: (AUG-CC-PVTZ AUX)
    Blend: AUG-CC-PVTZ-JKFIT

    Orbital Energies [Eh]
    ---------------------

    Doubly Occupied:

       1A    -20.631531     2A    -20.592138     3A    -20.575293
       4A    -20.574631     5A    -20.573098     6A    -20.570046
       7A    -20.565085     8A    -11.401889     9A    -11.318102
      10A    -11.302241    11A    -11.302000    12A    -11.300548
      13A    -11.295639    14A     -1.476335    15A     -1.407800
      16A     -1.396307    17A     -1.383686    18A     -1.369533
      19A     -1.362484    20A     -1.350543    21A     -1.080862
      22A     -1.028308    23A     -0.961472    24A     -0.889077
      25A     -0.830657    26A     -0.803513    27A     -0.758327
      28A     -0.736610    29A     -0.726188    30A     -0.715429
      31A     -0.713210    32A     -0.683319    33A     -0.676406
      34A     -0.649993    35A     -0.640510    36A     -0.636820
      37A     -0.628858    38A     -0.607162    39A     -0.601951
      40A     -0.581605    41A     -0.553286    42A     -0.550128
      43A     -0.539564    44A     -0.534297    45A     -0.531236
      46A     -0.503399    47A     -0.495733    48A     -0.484466
      49A     -0.466942    50A     -0.459969    51A     -0.455904
      52A     -0.442937

  @DF-RHF Final Energy:  -758.52375547453471

   => Energetics <=

    Nuclear Repulsion Energy =            915.6998914742447369
    One-Electron Energy =               -2863.0131549882116815
    Two-Electron Energy =                1188.7895080394321212
    Total Energy =                       -758.5237554745347097
  Basis Set: (AUG-CC-PVTZ AUX)
    Blend: AUG-CC-PVTZ-RI
    Molecular point group: c1

    Geometry (in Angstrom), charge = 0, multiplicity = 1:

       Center              X                  Y                   Z               Mass
    ------------   -----------------  -----------------  -----------------  -----------------
         O           -1.400334240533    -1.702850656102    -1.052984811130    15.994914619570
         O            1.286926759467    -1.500809656102    -0.870376811130    15.994914619570
         O           -3.058426240533    -0.688215656102     0.796891188870    15.994914619570
         O            1.361942759467    -0.360814656102     1.788892188870    15.994914619570
         O           -3.431671240533     1.809724343898    -0.138923811130    15.994914619570
         O            2.568861759467     1.548566343898    -0.998103811130    15.994914619570
         O            3.654322759467     0.140929343898     0.421705188870    15.994914619570
         C           -0.859331240533    -0.955973656102     0.043431188870    12.000000000000
         C            0.457475759467    -0.408453656102    -0.480282811130    12.000000000000
         C           -1.880858240533     0.072347343898     0.511398188870    12.000000000000
         C            1.247976759467     0.356377343898     0.579440188870    12.000000000000
         C           -2.230505240533     1.126012343898    -0.531914811130    12.000000000000
         C            2.628187759467     0.656955343898     0.020927188870    12.000000000000
         H           -0.638323240533    -1.624366656102     0.885231188870     1.007825032230
         H            0.274727259467     0.239714343898    -1.325309111130     1.007825032230
         H           -1.515826240533     0.558069343898     1.431500188870     1.007825032230
         H            0.746714759467     1.304209343898     0.806721188870     1.007825032230
         H           -2.463792240533     0.633301343898    -1.477083811130     1.007825032230
         H           -1.407480240533     1.833261343898    -0.693698811130     1.007825032230
         H           -2.281827240533    -1.989800656102    -0.742767811130     1.007825032230
         H            0.700134759467    -2.105928656102    -1.364359811130     1.007825032230
         H           -3.793674240533    -0.046989656102     0.719776188870     1.007825032230
         H            2.097084759467    -0.989561656102     1.650649188870     1.007825032230
         H           -3.196971240533     2.422068343898     0.580389188870     1.007825032230
         H            3.485472759467     1.635908343898    -1.334141811130     1.007825032230

  Basis Set: AUG-CC-PVTZ
    Blend: AUG-CC-PVTZ
  Basis Set: (AUG-CC-PVTZ AUX)
    Blend: AUG-CC-PVTZ-JKFIT
	 Reference Energy          =    -758.5237554745347097 [Eh]
	 Singles Energy            =      -0.0000000000000000 [Eh]
	 Same-Spin Energy          =      -0.7342541649395616 [Eh]
	 Opposite-Spin Energy      =      -2.2308132258833608 [Eh]
	 Correlation Energy        =      -2.9650673908229224 [Eh]
	 Total Energy              =    -761.4888228653576334 [Eh]

	 ================> DF-SCS-MP2 Energies <==================
	-----------------------------------------------------------
	 SCS Same-Spin Scale       =       0.3333333333333333 [-]
	 SCS Opposite-Spin Scale   =       1.2000000000000000 [-]
	 SCS Same-Spin Energy      =      -0.2447513883131872 [Eh]
	 SCS Opposite-Spin Energy  =      -2.6769758710600331 [Eh]
	 SCS Correlation Energy    =      -2.9217272593732204 [Eh]
	 SCS Total Energy          =    -761.4454827339079657 [Eh]
	-----------------------------------------------------------

  Dipole Moment: [D]
     X:    -1.2190      Y:     2.6855      Z:    -0.8080     Total:     3.0579

*** Psi4 exiting successfully. Buy a developer a beer!
