                               Psi4 1.4a3.dev225

  ==> Input File <==

--------------------------------------------------------------------------
#psi4
#
memory 32 gb

molecule  {
0 1
  O       -1.3621950    -1.7118670    -1.0487160
  O        1.3250660    -1.5098260    -0.8661080
  O       -3.0202870    -0.6972320     0.8011600
  O        1.4000820    -0.3698310     1.7931610
  O       -3.3935320     1.8007080    -0.1346550
  O        2.6070010     1.5395500    -0.9938350
  O        3.6453456     0.0884603     0.4816663
  C       -0.8211920    -0.9649900     0.0477000
  C        0.4956150    -0.4174700    -0.4760140
  C       -1.8427190     0.0633310     0.5156670
  C        1.2861160     0.3473610     0.5837090
  C       -2.1923660     1.1169960    -0.5276460
  C        2.6663270     0.6479390     0.0251960
  H       -0.6001840    -1.6333830     0.8895000
  H        0.3094840     0.2426950    -1.3366810
  H       -1.4776870     0.5490530     1.4357690
  H        0.7848540     1.2951930     0.8109900
  H       -2.4256530     0.6242850    -1.4728150
  H       -1.3693410     1.8242450    -0.6894300
  H       -2.2436880    -1.9988170    -0.7384990
  H        0.7382740    -2.1149450    -1.3600910
  H       -3.7555350    -0.0560060     0.7240450
  H        2.1352240    -0.9985780     1.6549180
  H       -3.1588320     2.4130520     0.5846580
  H        3.5236120     1.6268920    -1.3298730
units angstrom
no_reorient  #important for SAPT in psi4, default
symmetry c1  #important for SAPT in psi4, default
}

set PROPERTIES_ORIGIN ["COM"]
properties('MP2/aug-cc-pvtz', properties = ['dipole'])
--------------------------------------------------------------------------

    Molecular point group: c1
  Charge       = 0
  Multiplicity = 1
  Basis Set: AUG-CC-PVTZ
    Blend: AUG-CC-PVTZ
  Basis Set: (AUG-CC-PVTZ AUX)
    Blend: AUG-CC-PVTZ-JKFIT

    Orbital Energies [Eh]
    ---------------------

    Doubly Occupied:

       1A    -20.638233     2A    -20.591352     3A    -20.574340
       4A    -20.571933     5A    -20.570865     6A    -20.569083
       7A    -20.566597     8A    -11.402856     9A    -11.313828
      10A    -11.302507    11A    -11.301101    12A    -11.299603
      13A    -11.294359    14A     -1.477312    15A     -1.406807
      16A     -1.396418    17A     -1.384869    18A     -1.370055
      19A     -1.361279    20A     -1.349367    21A     -1.078597
      22A     -1.026272    23A     -0.959968    24A     -0.887396
      25A     -0.831166    26A     -0.801061    27A     -0.757023
      28A     -0.736982    29A     -0.726866    30A     -0.714467
      31A     -0.713119    32A     -0.682195    33A     -0.674910
      34A     -0.650890    35A     -0.640520    36A     -0.635753
      37A     -0.627813    38A     -0.606973    39A     -0.600846
      40A     -0.579740    41A     -0.551913    42A     -0.549201
      43A     -0.536884    44A     -0.533172    45A     -0.529979
      46A     -0.502344    47A     -0.498817    48A     -0.483039
      49A     -0.465309    50A     -0.458623    51A     -0.453722
      52A     -0.441386

  @DF-RHF Final Energy:  -758.52135687939415

   => Energetics <=

    Nuclear Repulsion Energy =            916.3925527001566707
    One-Electron Energy =               -2864.4683973506471375
    Two-Electron Energy =                1189.5544877710963192
    Total Energy =                       -758.5213568793942613
  Basis Set: (AUG-CC-PVTZ AUX)
    Blend: AUG-CC-PVTZ-RI
    Molecular point group: c1

    Geometry (in Angstrom), charge = 0, multiplicity = 1:

       Center              X                  Y                   Z               Mass
    ------------   -----------------  -----------------  -----------------  -----------------
         O           -1.396472982158    -1.699367348636    -1.057447924818    15.994914619570
         O            1.290788017842    -1.497326348636    -0.874839924818    15.994914619570
         O           -3.054564982158    -0.684732348636     0.792428075182    15.994914619570
         O            1.365804017842    -0.357331348636     1.784429075182    15.994914619570
         O           -3.427809982158     1.813207651364    -0.143386924818    15.994914619570
         O            2.572723017842     1.552049651364    -1.002566924818    15.994914619570
         O            3.611067617842     0.100959951364     0.472934375182    15.994914619570
         C           -0.855469982158    -0.952490348636     0.038968075182    12.000000000000
         C            0.461337017842    -0.404970348636    -0.484745924818    12.000000000000
         C           -1.876996982158     0.075830651364     0.506935075182    12.000000000000
         C            1.251838017842     0.359860651364     0.574977075182    12.000000000000
         C           -2.226643982158     1.129495651364    -0.536377924818    12.000000000000
         C            2.632049017842     0.660438651364     0.016464075182    12.000000000000
         H           -0.634461982158    -1.620883348636     0.880768075182     1.007825032230
         H            0.275206017842     0.255194651364    -1.345412924818     1.007825032230
         H           -1.511964982158     0.561552651364     1.427037075182     1.007825032230
         H            0.750576017842     1.307692651364     0.802258075182     1.007825032230
         H           -2.459930982158     0.636784651364    -1.481546924818     1.007825032230
         H           -1.403618982158     1.836744651364    -0.698161924818     1.007825032230
         H           -2.277965982158    -1.986317348636    -0.747230924818     1.007825032230
         H            0.703996017842    -2.102445348636    -1.368822924818     1.007825032230
         H           -3.789812982158    -0.043506348636     0.715313075182     1.007825032230
         H            2.100946017842    -0.986078348636     1.646186075182     1.007825032230
         H           -3.193109982158     2.425551651364     0.575926075182     1.007825032230
         H            3.489334017842     1.639391651364    -1.338604924818     1.007825032230

  Basis Set: AUG-CC-PVTZ
    Blend: AUG-CC-PVTZ
  Basis Set: (AUG-CC-PVTZ AUX)
    Blend: AUG-CC-PVTZ-JKFIT
	 Reference Energy          =    -758.5213568793941477 [Eh]
	 Singles Energy            =      -0.0000000000000000 [Eh]
	 Same-Spin Energy          =      -0.7346921708209561 [Eh]
	 Opposite-Spin Energy      =      -2.2315952860983237 [Eh]
	 Correlation Energy        =      -2.9662874569192796 [Eh]
	 Total Energy              =    -761.4876443363134513 [Eh]

	 ================> DF-SCS-MP2 Energies <==================
	-----------------------------------------------------------
	 SCS Same-Spin Scale       =       0.3333333333333333 [-]
	 SCS Opposite-Spin Scale   =       1.2000000000000000 [-]
	 SCS Same-Spin Energy      =      -0.2448973902736520 [Eh]
	 SCS Opposite-Spin Energy  =      -2.6779143433179882 [Eh]
	 SCS Correlation Energy    =      -2.9228117335916401 [Eh]
	 SCS Total Energy          =    -761.4441686129857771 [Eh]
	-----------------------------------------------------------

  Dipole Moment: [D]
     X:    -1.0052      Y:     2.8024      Z:    -0.9408     Total:     3.1224

*** Psi4 exiting successfully. Buy a developer a beer!
