                               Psi4 1.4a3.dev225

  ==> Input File <==

--------------------------------------------------------------------------
#psi4
#
memory 32 gb

molecule  {
0 1
  O       -1.3621950    -1.7118670    -1.0487160
  O        1.3250660    -1.5098260    -0.8661080
  O       -3.0202870    -0.6972320     0.8011600
  O        1.4000820    -0.3698310     1.7931610
  O       -3.3935320     1.8007080    -0.1346550
  O        2.6070010     1.5395500    -0.9938350
  O        3.6924620     0.1319130     0.4259740
  C       -0.8211920    -0.9649900     0.0477000
  C        0.4956150    -0.4174700    -0.4760140
  C       -1.8427190     0.0633310     0.5156670
  C        1.2117797     0.3974714     0.6244369
  C       -2.1923660     1.1169960    -0.5276460
  C        2.6663270     0.6479390     0.0251960
  H       -0.6001840    -1.6333830     0.8895000
  H        0.3094840     0.2426950    -1.3366810
  H       -1.4776870     0.5490530     1.4357690
  H        0.7848540     1.2951930     0.8109900
  H       -2.4256530     0.6242850    -1.4728150
  H       -1.3693410     1.8242450    -0.6894300
  H       -2.2436880    -1.9988170    -0.7384990
  H        0.7382740    -2.1149450    -1.3600910
  H       -3.7555350    -0.0560060     0.7240450
  H        2.1352240    -0.9985780     1.6549180
  H       -3.1588320     2.4130520     0.5846580
  H        3.5236120     1.6268920    -1.3298730
units angstrom
no_reorient  #important for SAPT in psi4, default
symmetry c1  #important for SAPT in psi4, default
}

set PROPERTIES_ORIGIN ["COM"]
properties('MP2/aug-cc-pvtz', properties = ['dipole'])
--------------------------------------------------------------------------

    Molecular point group: c1
  Charge       = 0
  Multiplicity = 1
  Basis Set: AUG-CC-PVTZ
    Blend: AUG-CC-PVTZ
  Basis Set: (AUG-CC-PVTZ AUX)
    Blend: AUG-CC-PVTZ-JKFIT

    Orbital Energies [Eh]
    ---------------------

    Doubly Occupied:

       1A    -20.629790     2A    -20.592509     3A    -20.575592
       4A    -20.572019     5A    -20.571977     6A    -20.571918
       7A    -20.564633     8A    -11.401785     9A    -11.319186
      10A    -11.304936    11A    -11.302674    12A    -11.300989
      13A    -11.294464    14A     -1.473214    15A     -1.407493
      16A     -1.394542    17A     -1.381953    18A     -1.368929
      19A     -1.361514    20A     -1.350201    21A     -1.080220
      22A     -1.023645    23A     -0.957844    24A     -0.885237
      25A     -0.834515    26A     -0.806314    27A     -0.756364
      28A     -0.728490    29A     -0.724248    30A     -0.715672
      31A     -0.711621    32A     -0.683456    33A     -0.679306
      34A     -0.649858    35A     -0.647435    36A     -0.639753
      37A     -0.628183    38A     -0.609055    39A     -0.602709
      40A     -0.585027    41A     -0.551919    42A     -0.550062
      43A     -0.535395    44A     -0.532198    45A     -0.531732
      46A     -0.503695    47A     -0.495065    48A     -0.485003
      49A     -0.466633    50A     -0.457577    51A     -0.453154
      52A     -0.435970

  @DF-RHF Final Energy:  -758.51299440102412

   => Energetics <=

    Nuclear Repulsion Energy =            914.7551025845904178
    One-Electron Energy =               -2861.1608533946782700
    Two-Electron Energy =                1187.8927564090636224
    Total Energy =                       -758.5129944010241161
  Basis Set: (AUG-CC-PVTZ AUX)
    Blend: AUG-CC-PVTZ-RI
    Molecular point group: c1

    Geometry (in Angstrom), charge = 0, multiplicity = 1:

       Center              X                  Y                   Z               Mass
    ------------   -----------------  -----------------  -----------------  -----------------
         O           -1.395767004380    -1.705979397239    -1.055397214504    15.994914619570
         O            1.291493995620    -1.503938397239    -0.872789214504    15.994914619570
         O           -3.053859004380    -0.691344397239     0.794478785496    15.994914619570
         O            1.366509995620    -0.363943397239     1.786479785496    15.994914619570
         O           -3.427104004380     1.806595602761    -0.141336214504    15.994914619570
         O            2.573428995620     1.545437602761    -1.000516214504    15.994914619570
         O            3.658889995620     0.137800602761     0.419292785496    15.994914619570
         C           -0.854764004380    -0.959102397239     0.041018785496    12.000000000000
         C            0.462042995620    -0.411582397239    -0.482695214504    12.000000000000
         C           -1.876291004380     0.069218602761     0.508985785496    12.000000000000
         C            1.178207695620     0.403359002761     0.617755685496    12.000000000000
         C           -2.225938004380     1.122883602761    -0.534327214504    12.000000000000
         C            2.632754995620     0.653826602761     0.018514785496    12.000000000000
         H           -0.633756004380    -1.627495397239     0.882818785496     1.007825032230
         H            0.275911995620     0.248582602761    -1.343362214504     1.007825032230
         H           -1.511259004380     0.554940602761     1.429087785496     1.007825032230
         H            0.751281995620     1.301080602761     0.804308785496     1.007825032230
         H           -2.459225004380     0.630172602761    -1.479496214504     1.007825032230
         H           -1.402913004380     1.830132602761    -0.696111214504     1.007825032230
         H           -2.277260004380    -1.992929397239    -0.745180214504     1.007825032230
         H            0.704701995620    -2.109057397239    -1.366772214504     1.007825032230
         H           -3.789107004380    -0.050118397239     0.717363785496     1.007825032230
         H            2.101651995620    -0.992690397239     1.648236785496     1.007825032230
         H           -3.192404004380     2.418939602761     0.577976785496     1.007825032230
         H            3.490039995620     1.632779602761    -1.336554214504     1.007825032230

  Basis Set: AUG-CC-PVTZ
    Blend: AUG-CC-PVTZ
  Basis Set: (AUG-CC-PVTZ AUX)
    Blend: AUG-CC-PVTZ-JKFIT
	 Reference Energy          =    -758.5129944010241161 [Eh]
	 Singles Energy            =      -0.0000000000000000 [Eh]
	 Same-Spin Energy          =      -0.7341593612063251 [Eh]
	 Opposite-Spin Energy      =      -2.2309912569200168 [Eh]
	 Correlation Energy        =      -2.9651506181263416 [Eh]
	 Total Energy              =    -761.4781450191504746 [Eh]

	 ================> DF-SCS-MP2 Energies <==================
	-----------------------------------------------------------
	 SCS Same-Spin Scale       =       0.3333333333333333 [-]
	 SCS Opposite-Spin Scale   =       1.2000000000000000 [-]
	 SCS Same-Spin Energy      =      -0.2447197870687750 [Eh]
	 SCS Opposite-Spin Energy  =      -2.6771895083040200 [Eh]
	 SCS Correlation Energy    =      -2.9219092953727950 [Eh]
	 SCS Total Energy          =    -761.4349036963968729 [Eh]
	-----------------------------------------------------------

  Dipole Moment: [D]
     X:    -1.2215      Y:     2.7436      Z:    -0.7812     Total:     3.1032

*** Psi4 exiting successfully. Buy a developer a beer!
