                               Psi4 1.4a3.dev225

  ==> Input File <==

--------------------------------------------------------------------------
#psi4
#
memory 32 gb

molecule  {
0 1
  O       -1.3621950    -1.7118670    -1.0487160
  O        1.3250660    -1.5098260    -0.8661080
  O       -3.0202870    -0.6972320     0.8011600
  O        1.4000820    -0.3698310     1.7931610
  O       -3.3935320     1.8007080    -0.1346550
  O        2.6070010     1.5395500    -0.9938350
  O        3.6924620     0.1319130     0.4259740
  C       -0.8211920    -0.9649900     0.0477000
  C        0.4956150    -0.4174700    -0.4760140
  C       -1.7604064     0.1164948     0.4957109
  C        1.2861160     0.3473610     0.5837090
  C       -2.1923660     1.1169960    -0.5276460
  C        2.6663270     0.6479390     0.0251960
  H       -0.6001840    -1.6333830     0.8895000
  H        0.3094840     0.2426950    -1.3366810
  H       -1.4776870     0.5490530     1.4357690
  H        0.7848540     1.2951930     0.8109900
  H       -2.4256530     0.6242850    -1.4728150
  H       -1.3693410     1.8242450    -0.6894300
  H       -2.2436880    -1.9988170    -0.7384990
  H        0.7382740    -2.1149450    -1.3600910
  H       -3.7555350    -0.0560060     0.7240450
  H        2.1352240    -0.9985780     1.6549180
  H       -3.1588320     2.4130520     0.5846580
  H        3.5236120     1.6268920    -1.3298730
units angstrom
no_reorient  #important for SAPT in psi4, default
symmetry c1  #important for SAPT in psi4, default
}

set PROPERTIES_ORIGIN ["COM"]
properties('MP2/aug-cc-pvtz', properties = ['dipole'])
--------------------------------------------------------------------------

    Molecular point group: c1
  Charge       = 0
  Multiplicity = 1
  Basis Set: AUG-CC-PVTZ
    Blend: AUG-CC-PVTZ
  Basis Set: (AUG-CC-PVTZ AUX)
    Blend: AUG-CC-PVTZ-JKFIT

    Orbital Energies [Eh]
    ---------------------

    Doubly Occupied:

       1A    -20.632531     2A    -20.594010     3A    -20.576477
       4A    -20.574982     5A    -20.570711     6A    -20.566273
       7A    -20.564118     8A    -11.403208     9A    -11.320048
      10A    -11.304856    11A    -11.304320    12A    -11.303132
      13A    -11.298909    14A     -1.477425    15A     -1.403570
      16A     -1.394232    17A     -1.384921    18A     -1.368078
      19A     -1.359249    20A     -1.330885    21A     -1.089296
      22A     -1.034539    23A     -0.966806    24A     -0.888659
      25A     -0.832739    26A     -0.804416    27A     -0.758651
      28A     -0.738140    29A     -0.725136    30A     -0.713861
      31A     -0.712244    32A     -0.683527    33A     -0.669036
      34A     -0.650413    35A     -0.640324    36A     -0.634355
      37A     -0.628498    38A     -0.607691    39A     -0.602214
      40A     -0.581675    41A     -0.556752    42A     -0.541768
      43A     -0.540632    44A     -0.529046    45A     -0.525460
      46A     -0.500102    47A     -0.496509    48A     -0.486218
      49A     -0.471858    50A     -0.465705    51A     -0.458020
      52A     -0.446837

  @DF-RHF Final Energy:  -758.51288984722987

   => Energetics <=

    Nuclear Repulsion Energy =            915.7409050273970479
    One-Electron Energy =               -2863.0814650844740754
    Two-Electron Energy =                1188.8276702098471560
    Total Energy =                       -758.5128898472298715
  Basis Set: (AUG-CC-PVTZ AUX)
    Blend: AUG-CC-PVTZ-RI
    Molecular point group: c1

    Geometry (in Angstrom), charge = 0, multiplicity = 1:

       Center              X                  Y                   Z               Mass
    ------------   -----------------  -----------------  -----------------  -----------------
         O           -1.405354901317    -1.706166284504    -1.051682972414    15.994914619570
         O            1.281906098683    -1.504125284504    -0.869074972414    15.994914619570
         O           -3.063446901317    -0.691531284504     0.798193027586    15.994914619570
         O            1.356922098683    -0.364130284504     1.790194027586    15.994914619570
         O           -3.436691901317     1.806408715496    -0.137621972414    15.994914619570
         O            2.563841098683     1.545250715496    -0.996801972414    15.994914619570
         O            3.649302098683     0.137613715496     0.423007027586    15.994914619570
         C           -0.864351901317    -0.959289284504     0.044733027586    12.000000000000
         C            0.452455098683    -0.411769284504    -0.478980972414    12.000000000000
         C           -1.803566301317     0.122195515496     0.492743927586    12.000000000000
         C            1.242956098683     0.353061715496     0.580742027586    12.000000000000
         C           -2.235525901317     1.122696715496    -0.530612972414    12.000000000000
         C            2.623167098683     0.653639715496     0.022229027586    12.000000000000
         H           -0.643343901317    -1.627682284504     0.886533027586     1.007825032230
         H            0.266324098683     0.248395715496    -1.339647972414     1.007825032230
         H           -1.520846901317     0.554753715496     1.432802027586     1.007825032230
         H            0.741694098683     1.300893715496     0.808023027586     1.007825032230
         H           -2.468812901317     0.629985715496    -1.475781972414     1.007825032230
         H           -1.412500901317     1.829945715496    -0.692396972414     1.007825032230
         H           -2.286847901317    -1.993116284504    -0.741465972414     1.007825032230
         H            0.695114098683    -2.109244284504    -1.363057972414     1.007825032230
         H           -3.798694901317    -0.050305284504     0.721078027586     1.007825032230
         H            2.092064098683    -0.992877284504     1.651951027586     1.007825032230
         H           -3.201991901317     2.418752715496     0.581691027586     1.007825032230
         H            3.480452098683     1.632592715496    -1.332839972414     1.007825032230

  Basis Set: AUG-CC-PVTZ
    Blend: AUG-CC-PVTZ
  Basis Set: (AUG-CC-PVTZ AUX)
    Blend: AUG-CC-PVTZ-JKFIT
	 Reference Energy          =    -758.5128898472298715 [Eh]
	 Singles Energy            =      -0.0000000000000000 [Eh]
	 Same-Spin Energy          =      -0.7351881651355964 [Eh]
	 Opposite-Spin Energy      =      -2.2335974763454196 [Eh]
	 Correlation Energy        =      -2.9687856414810159 [Eh]
	 Total Energy              =    -761.4816754887108345 [Eh]

	 ================> DF-SCS-MP2 Energies <==================
	-----------------------------------------------------------
	 SCS Same-Spin Scale       =       0.3333333333333333 [-]
	 SCS Opposite-Spin Scale   =       1.2000000000000000 [-]
	 SCS Same-Spin Energy      =      -0.2450627217118654 [Eh]
	 SCS Opposite-Spin Energy  =      -2.6803169716145034 [Eh]
	 SCS Correlation Energy    =      -2.9253796933263687 [Eh]
	 SCS Total Energy          =    -761.4382695405562345 [Eh]
	-----------------------------------------------------------

  Dipole Moment: [D]
     X:    -0.9537      Y:     2.7977      Z:    -0.8545     Total:     3.0768

*** Psi4 exiting successfully. Buy a developer a beer!
