                               Psi4 1.4a3.dev225

  ==> Input File <==

--------------------------------------------------------------------------
#psi4
#
memory 32 gb

molecule  {
0 1
  O       -1.3621950    -1.7118670    -1.0487160
  O        1.3250660    -1.5098260    -0.8661080
  O       -3.0202870    -0.6972320     0.8011600
  O        1.4000820    -0.3698310     1.7931610
  O       -3.3935320     1.8007080    -0.1346550
  O        2.6070010     1.5395500    -0.9938350
  O        3.6924620     0.1319130     0.4259740
  C       -0.8211920    -0.9649900     0.0477000
  C        0.4956150    -0.4174700    -0.4760140
  C       -1.8427190     0.0633310     0.5156670
  C        1.2861160     0.3473610     0.5837090
  C       -2.1694153     1.0478339    -0.4591634
  C        2.6663270     0.6479390     0.0251960
  H       -0.6001840    -1.6333830     0.8895000
  H        0.3094840     0.2426950    -1.3366810
  H       -1.4776870     0.5490530     1.4357690
  H        0.7848540     1.2951930     0.8109900
  H       -2.4256530     0.6242850    -1.4728150
  H       -1.3693410     1.8242450    -0.6894300
  H       -2.2436880    -1.9988170    -0.7384990
  H        0.7382740    -2.1149450    -1.3600910
  H       -3.7555350    -0.0560060     0.7240450
  H        2.1352240    -0.9985780     1.6549180
  H       -3.1588320     2.4130520     0.5846580
  H        3.5236120     1.6268920    -1.3298730
units angstrom
no_reorient  #important for SAPT in psi4, default
symmetry c1  #important for SAPT in psi4, default
}

set PROPERTIES_ORIGIN ["COM"]
properties('MP2/aug-cc-pvtz', properties = ['dipole'])
--------------------------------------------------------------------------

    Molecular point group: c1
  Charge       = 0
  Multiplicity = 1
  Basis Set: AUG-CC-PVTZ
    Blend: AUG-CC-PVTZ
  Basis Set: (AUG-CC-PVTZ AUX)
    Blend: AUG-CC-PVTZ-JKFIT

    Orbital Energies [Eh]
    ---------------------

    Doubly Occupied:

       1A    -20.631796     2A    -20.589414     3A    -20.576902
       4A    -20.575549     5A    -20.574713     6A    -20.571439
       7A    -20.565564     8A    -11.402395     9A    -11.318911
      10A    -11.305490    11A    -11.303848    12A    -11.300361
      13A    -11.298917    14A     -1.476695    15A     -1.409290
      16A     -1.395918    17A     -1.381987    18A     -1.367616
      19A     -1.361427    20A     -1.351051    21A     -1.089118
      22A     -1.038734    23A     -0.965981    24A     -0.885508
      25A     -0.831084    26A     -0.803605    27A     -0.760290
      28A     -0.737959    29A     -0.728707    30A     -0.714831
      31A     -0.706300    32A     -0.688261    33A     -0.676627
      34A     -0.650777    35A     -0.642532    36A     -0.637875
      37A     -0.630044    38A     -0.607893    39A     -0.590766
      40A     -0.579276    41A     -0.556248    42A     -0.552256
      43A     -0.539673    44A     -0.531396    45A     -0.528341
      46A     -0.496218    47A     -0.494543    48A     -0.485485
      49A     -0.474428    50A     -0.463650    51A     -0.456873
      52A     -0.448524

  @DF-RHF Final Energy:  -758.51078514319147

   => Energetics <=

    Nuclear Repulsion Energy =            917.2069779345199549
    One-Electron Energy =               -2865.9293499361156137
    Two-Electron Energy =                1190.2115868584041891
    Total Energy =                       -758.5107851431914696
  Basis Set: (AUG-CC-PVTZ AUX)
    Blend: AUG-CC-PVTZ-RI
    Molecular point group: c1

    Geometry (in Angstrom), charge = 0, multiplicity = 1:

       Center              X                  Y                   Z               Mass
    ------------   -----------------  -----------------  -----------------  -----------------
         O           -1.401721580054    -1.698679170826    -1.057095976532    15.994914619570
         O            1.285539419946    -1.496638170826    -0.874487976532    15.994914619570
         O           -3.059813580054    -0.684044170826     0.792780023468    15.994914619570
         O            1.360555419946    -0.356643170826     1.784781023468    15.994914619570
         O           -3.433058580054     1.813895829174    -0.143034976532    15.994914619570
         O            2.567474419946     1.552737829174    -1.002214976532    15.994914619570
         O            3.652935419946     0.145100829174     0.417594023468    15.994914619570
         C           -0.860718580054    -0.951802170826     0.039320023468    12.000000000000
         C            0.456088419946    -0.404282170826    -0.484393976532    12.000000000000
         C           -1.882245580054     0.076518829174     0.507287023468    12.000000000000
         C            1.246589419946     0.360548829174     0.575329023468    12.000000000000
         C           -2.208941880054     1.061021729174    -0.467543376532    12.000000000000
         C            2.626800419946     0.661126829174     0.016816023468    12.000000000000
         H           -0.639710580054    -1.620195170826     0.881120023468     1.007825032230
         H            0.269957419946     0.255882829174    -1.345060976532     1.007825032230
         H           -1.517213580054     0.562240829174     1.427389023468     1.007825032230
         H            0.745327419946     1.308380829174     0.802610023468     1.007825032230
         H           -2.465179580054     0.637472829174    -1.481194976532     1.007825032230
         H           -1.408867580054     1.837432829174    -0.697809976532     1.007825032230
         H           -2.283214580054    -1.985629170826    -0.746878976532     1.007825032230
         H            0.698747419946    -2.101757170826    -1.368470976532     1.007825032230
         H           -3.795061580054    -0.042818170826     0.715665023468     1.007825032230
         H            2.095697419946    -0.985390170826     1.646538023468     1.007825032230
         H           -3.198358580054     2.426239829174     0.576278023468     1.007825032230
         H            3.484085419946     1.640079829174    -1.338252976532     1.007825032230

  Basis Set: AUG-CC-PVTZ
    Blend: AUG-CC-PVTZ
  Basis Set: (AUG-CC-PVTZ AUX)
    Blend: AUG-CC-PVTZ-JKFIT
	 Reference Energy          =    -758.5107851431914696 [Eh]
	 Singles Energy            =      -0.0000000000000000 [Eh]
	 Same-Spin Energy          =      -0.7356229066016593 [Eh]
	 Opposite-Spin Energy      =      -2.2330558885663918 [Eh]
	 Correlation Energy        =      -2.9686787951680511 [Eh]
	 Total Energy              =    -761.4794639383595722 [Eh]

	 ================> DF-SCS-MP2 Energies <==================
	-----------------------------------------------------------
	 SCS Same-Spin Scale       =       0.3333333333333333 [-]
	 SCS Opposite-Spin Scale   =       1.2000000000000000 [-]
	 SCS Same-Spin Energy      =      -0.2452076355338864 [Eh]
	 SCS Opposite-Spin Energy  =      -2.6796670662796700 [Eh]
	 SCS Correlation Energy    =      -2.9248747018135566 [Eh]
	 SCS Total Energy          =    -761.4356598450050342 [Eh]
	-----------------------------------------------------------

  Dipole Moment: [D]
     X:    -1.0937      Y:     2.5233      Z:    -0.7752     Total:     2.8573

*** Psi4 exiting successfully. Buy a developer a beer!
