                               Psi4 1.4a3.dev225

  ==> Input File <==

--------------------------------------------------------------------------
#psi4
#
memory 32 gb

molecule  {
0 1
  O       -1.3621950    -1.7118670    -1.0487160
  O        1.3250660    -1.5098260    -0.8661080
  O       -3.0202870    -0.6972320     0.8011600
  O        1.4000820    -0.3698310     1.7931610
  O       -3.3935320     1.8007080    -0.1346550
  O        2.6070010     1.5395500    -0.9938350
  O        3.6924620     0.1319130     0.4259740
  C       -0.8211920    -0.9649900     0.0477000
  C        0.4956150    -0.4174700    -0.4760140
  C       -1.8427190     0.0633310     0.5156670
  C        1.2861160     0.3473610     0.5837090
  C       -2.1923660     1.1169960    -0.5276460
  C        2.6663270     0.6479390     0.0251960
  H       -0.6203238    -1.5724744     0.8127893
  H        0.3094840     0.2426950    -1.3366810
  H       -1.4776870     0.5490530     1.4357690
  H        0.7848540     1.2951930     0.8109900
  H       -2.4256530     0.6242850    -1.4728150
  H       -1.3693410     1.8242450    -0.6894300
  H       -2.2436880    -1.9988170    -0.7384990
  H        0.7382740    -2.1149450    -1.3600910
  H       -3.7555350    -0.0560060     0.7240450
  H        2.1352240    -0.9985780     1.6549180
  H       -3.1588320     2.4130520     0.5846580
  H        3.5236120     1.6268920    -1.3298730
units angstrom
no_reorient  #important for SAPT in psi4, default
symmetry c1  #important for SAPT in psi4, default
}

set PROPERTIES_ORIGIN ["COM"]
properties('MP2/aug-cc-pvtz', properties = ['dipole'])
--------------------------------------------------------------------------

    Molecular point group: c1
  Charge       = 0
  Multiplicity = 1
  Basis Set: AUG-CC-PVTZ
    Blend: AUG-CC-PVTZ
  Basis Set: (AUG-CC-PVTZ AUX)
    Blend: AUG-CC-PVTZ-JKFIT

    Orbital Energies [Eh]
    ---------------------

    Doubly Occupied:

       1A    -20.631431     2A    -20.591755     3A    -20.575378
       4A    -20.575316     5A    -20.571984     6A    -20.570595
       7A    -20.565143     8A    -11.401935     9A    -11.318312
      10A    -11.303733    11A    -11.301677    12A    -11.300036
      13A    -11.284477    14A     -1.476307    15A     -1.407912
      16A     -1.396507    17A     -1.383706    18A     -1.369559
      19A     -1.362695    20A     -1.350425    21A     -1.082350
      22A     -1.028473    23A     -0.965596    24A     -0.889640
      25A     -0.832040    26A     -0.806869    27A     -0.761555
      28A     -0.737170    29A     -0.726150    30A     -0.716841
      31A     -0.714118    32A     -0.683101    33A     -0.676736
      34A     -0.650444    35A     -0.640476    36A     -0.637429
      37A     -0.631307    38A     -0.607412    39A     -0.603801
      40A     -0.581981    41A     -0.555057    42A     -0.550051
      43A     -0.540328    44A     -0.534377    45A     -0.531465
      46A     -0.503700    47A     -0.495754    48A     -0.484606
      49A     -0.466748    50A     -0.461213    51A     -0.455489
      52A     -0.446234

  @DF-RHF Final Energy:  -758.51842074996955

   => Energetics <=

    Nuclear Repulsion Energy =            916.2007347706182827
    One-Electron Energy =               -2863.9635298951902769
    Two-Electron Energy =                1189.2443743746023301
    Total Energy =                       -758.5184207499696640
  Basis Set: (AUG-CC-PVTZ AUX)
    Blend: AUG-CC-PVTZ-RI
    Molecular point group: c1

    Geometry (in Angstrom), charge = 0, multiplicity = 1:

       Center              X                  Y                   Z               Mass
    ------------   -----------------  -----------------  -----------------  -----------------
         O           -1.400213325670    -1.703225422626    -1.052510084728    15.994914619570
         O            1.287047674330    -1.501184422626    -0.869902084728    15.994914619570
         O           -3.058305325670    -0.688590422626     0.797365915272    15.994914619570
         O            1.362063674330    -0.361189422626     1.789366915272    15.994914619570
         O           -3.431550325670     1.809349577374    -0.138449084728    15.994914619570
         O            2.568982674330     1.548191577374    -0.997629084728    15.994914619570
         O            3.654443674330     0.140554577374     0.422179915272    15.994914619570
         C           -0.859210325670    -0.956348422626     0.043905915272    12.000000000000
         C            0.457596674330    -0.408828422626    -0.479808084728    12.000000000000
         C           -1.880737325670     0.071972577374     0.511872915272    12.000000000000
         C            1.248097674330     0.356002577374     0.579914915272    12.000000000000
         C           -2.230384325670     1.125637577374    -0.531440084728    12.000000000000
         C            2.628308674330     0.656580577374     0.021401915272    12.000000000000
         H           -0.658342125670    -1.563832822626     0.808995215272     1.007825032230
         H            0.271465674330     0.251336577374    -1.340475084728     1.007825032230
         H           -1.515705325670     0.557694577374     1.431974915272     1.007825032230
         H            0.746835674330     1.303834577374     0.807195915272     1.007825032230
         H           -2.463671325670     0.632926577374    -1.476609084728     1.007825032230
         H           -1.407359325670     1.832886577374    -0.693224084728     1.007825032230
         H           -2.281706325670    -1.990175422626    -0.742293084728     1.007825032230
         H            0.700255674330    -2.106303422626    -1.363885084728     1.007825032230
         H           -3.793553325670    -0.047364422626     0.720250915272     1.007825032230
         H            2.097205674330    -0.989936422626     1.651123915272     1.007825032230
         H           -3.196850325670     2.421693577374     0.580863915272     1.007825032230
         H            3.485593674330     1.635533577374    -1.333667084728     1.007825032230

  Basis Set: AUG-CC-PVTZ
    Blend: AUG-CC-PVTZ
  Basis Set: (AUG-CC-PVTZ AUX)
    Blend: AUG-CC-PVTZ-JKFIT
	 Reference Energy          =    -758.5184207499695503 [Eh]
	 Singles Energy            =      -0.0000000000000000 [Eh]
	 Same-Spin Energy          =      -0.7340370215678932 [Eh]
	 Opposite-Spin Energy      =      -2.2301678252709523 [Eh]
	 Correlation Energy        =      -2.9642048468388453 [Eh]
	 Total Energy              =    -761.4826255968083615 [Eh]

	 ================> DF-SCS-MP2 Energies <==================
	-----------------------------------------------------------
	 SCS Same-Spin Scale       =       0.3333333333333333 [-]
	 SCS Opposite-Spin Scale   =       1.2000000000000000 [-]
	 SCS Same-Spin Energy      =      -0.2446790071892977 [Eh]
	 SCS Opposite-Spin Energy  =      -2.6762013903251427 [Eh]
	 SCS Correlation Energy    =      -2.9208803975144404 [Eh]
	 SCS Total Energy          =    -761.4393011474840023 [Eh]
	-----------------------------------------------------------

  Dipole Moment: [D]
     X:    -1.2013      Y:     2.6683      Z:    -0.7794     Total:     3.0283

*** Psi4 exiting successfully. Buy a developer a beer!
