                               Psi4 1.4a3.dev225

  ==> Input File <==

--------------------------------------------------------------------------
#psi4
#
memory 32 gb

molecule  {
0 1
  O       -1.3621950    -1.7118670    -1.0487160
  O        1.3250660    -1.5098260    -0.8661080
  O       -3.0202870    -0.6972320     0.8011600
  O        1.4000820    -0.3698310     1.7931610
  O       -3.3935320     1.8007080    -0.1346550
  O        2.6070010     1.5395500    -0.9938350
  O        3.6924620     0.1319130     0.4259740
  C       -0.8211920    -0.9649900     0.0477000
  C        0.4956150    -0.4174700    -0.4760140
  C       -1.8427190     0.0633310     0.5156670
  C        1.2861160     0.3473610     0.5837090
  C       -2.1923660     1.1169960    -0.5276460
  C        2.6663270     0.6479390     0.0251960
  H       -0.6001840    -1.6333830     0.8895000
  H        0.3094840     0.2426950    -1.3366810
  H       -1.4776870     0.5490530     1.4357690
  H        0.7848540     1.2951930     0.8109900
  H       -2.4256530     0.6242850    -1.4728150
  H       -1.3693410     1.8242450    -0.6894300
  H       -2.2436880    -1.9988170    -0.7384990
  H        0.7382740    -2.1149450    -1.3600910
  H       -3.7179696    -0.0887676     0.7279850
  H        2.1352240    -0.9985780     1.6549180
  H       -3.1588320     2.4130520     0.5846580
  H        3.5236120     1.6268920    -1.3298730
units angstrom
no_reorient  #important for SAPT in psi4, default
symmetry c1  #important for SAPT in psi4, default
}

set PROPERTIES_ORIGIN ["COM"]
properties('MP2/aug-cc-pvtz', properties = ['dipole'])
--------------------------------------------------------------------------

    Molecular point group: c1
  Charge       = 0
  Multiplicity = 1
  Basis Set: AUG-CC-PVTZ
    Blend: AUG-CC-PVTZ
  Basis Set: (AUG-CC-PVTZ AUX)
    Blend: AUG-CC-PVTZ-JKFIT

    Orbital Energies [Eh]
    ---------------------

    Doubly Occupied:

       1A    -20.631585     2A    -20.591131     3A    -20.575003
       4A    -20.573549     5A    -20.572236     6A    -20.570657
       7A    -20.565252     8A    -11.402061     9A    -11.318475
      10A    -11.304605    11A    -11.303021    12A    -11.300568
      13A    -11.296254    14A     -1.476439    15A     -1.412252
      16A     -1.397431    17A     -1.383702    18A     -1.372100
      19A     -1.364299    20A     -1.353450    21A     -1.081612
      22A     -1.029656    23A     -0.961548    24A     -0.890545
      25A     -0.831461    26A     -0.803542    27A     -0.759532
      28A     -0.737081    29A     -0.727525    30A     -0.715421
      31A     -0.713933    32A     -0.685828    33A     -0.678011
      34A     -0.650290    35A     -0.641435    36A     -0.637531
      37A     -0.629002    38A     -0.607392    39A     -0.601972
      40A     -0.581736    41A     -0.553739    42A     -0.553317
      43A     -0.540006    44A     -0.535174    45A     -0.531888
      46A     -0.503236    47A     -0.495874    48A     -0.484828
      49A     -0.467530    50A     -0.460374    51A     -0.456173
      52A     -0.443195

  @DF-RHF Final Energy:  -758.52452491497388

   => Energetics <=

    Nuclear Repulsion Energy =            915.8960289502141450
    One-Electron Energy =               -2863.3321863625105834
    Two-Electron Energy =                1188.9116324973224437
    Total Energy =                       -758.5245249149738811
  Basis Set: (AUG-CC-PVTZ AUX)
    Blend: AUG-CC-PVTZ-RI
    Molecular point group: c1

    Geometry (in Angstrom), charge = 0, multiplicity = 1:

       Center              X                  Y                   Z               Mass
    ------------   -----------------  -----------------  -----------------  -----------------
         O           -1.400509955521    -1.702743917018    -1.052924664438    15.994914619570
         O            1.286751044479    -1.500702917018    -0.870316664438    15.994914619570
         O           -3.058601955521    -0.688108917018     0.796951335562    15.994914619570
         O            1.361767044479    -0.360707917018     1.788952335562    15.994914619570
         O           -3.431846955521     1.809831082982    -0.138863664438    15.994914619570
         O            2.568686044479     1.548673082982    -0.998043664438    15.994914619570
         O            3.654147044479     0.141036082982     0.421765335562    15.994914619570
         C           -0.859506955521    -0.955866917018     0.043491335562    12.000000000000
         C            0.457300044479    -0.408346917018    -0.480222664438    12.000000000000
         C           -1.881033955521     0.072454082982     0.511458335562    12.000000000000
         C            1.247801044479     0.356484082982     0.579500335562    12.000000000000
         C           -2.230680955521     1.126119082982    -0.531854664438    12.000000000000
         C            2.628012044479     0.657062082982     0.020987335562    12.000000000000
         H           -0.638498955521    -1.624259917018     0.885291335562     1.007825032230
         H            0.271169044479     0.251818082982    -1.340889664438     1.007825032230
         H           -1.516001955521     0.558176082982     1.431560335562     1.007825032230
         H            0.746539044479     1.304316082982     0.806781335562     1.007825032230
         H           -2.463967955521     0.633408082982    -1.477023664438     1.007825032230
         H           -1.407655955521     1.833368082982    -0.693638664438     1.007825032230
         H           -2.282002955521    -1.989693917018    -0.742707664438     1.007825032230
         H            0.699959044479    -2.105821917018    -1.364299664438     1.007825032230
         H           -3.756284555521    -0.079644517018     0.723776335562     1.007825032230
         H            2.096909044479    -0.989454917018     1.650709335562     1.007825032230
         H           -3.197146955521     2.422175082982     0.580449335562     1.007825032230
         H            3.485297044479     1.636015082982    -1.334081664438     1.007825032230

  Basis Set: AUG-CC-PVTZ
    Blend: AUG-CC-PVTZ
  Basis Set: (AUG-CC-PVTZ AUX)
    Blend: AUG-CC-PVTZ-JKFIT
	 Reference Energy          =    -758.5245249149738811 [Eh]
	 Singles Energy            =      -0.0000000000000000 [Eh]
	 Same-Spin Energy          =      -0.7335727899016758 [Eh]
	 Opposite-Spin Energy      =      -2.2293902125358898 [Eh]
	 Correlation Energy        =      -2.9629630024375655 [Eh]
	 Total Energy              =    -761.4874879174114994 [Eh]

	 ================> DF-SCS-MP2 Energies <==================
	-----------------------------------------------------------
	 SCS Same-Spin Scale       =       0.3333333333333333 [-]
	 SCS Opposite-Spin Scale   =       1.2000000000000000 [-]
	 SCS Same-Spin Energy      =      -0.2445242633005586 [Eh]
	 SCS Opposite-Spin Energy  =      -2.6752682550430675 [Eh]
	 SCS Correlation Energy    =      -2.9197925183436260 [Eh]
	 SCS Total Energy          =    -761.4443174333174511 [Eh]
	-----------------------------------------------------------

  Dipole Moment: [D]
     X:    -1.1602      Y:     2.6288      Z:    -0.7952     Total:     2.9814

*** Psi4 exiting successfully. Buy a developer a beer!
