                               Psi4 1.4a3.dev225

  ==> Input File <==

--------------------------------------------------------------------------
#psi4
#
memory 32 gb

molecule  {
0 1
  O       -1.3621950    -1.7118670    -1.0487160
  O        1.3250660    -1.5098260    -0.8661080
  O       -3.0202870    -0.6972320     0.8011600
  O        1.4000820    -0.3698310     1.7931610
  O       -3.3935320     1.8007080    -0.1346550
  O        2.6070010     1.5395500    -0.9938350
  O        3.6924620     0.1319130     0.4259740
  C       -0.8211920    -0.9649900     0.0477000
  C        0.4782797    -0.4246779    -0.4691195
  C       -1.8427190     0.0633310     0.5156670
  C        1.2861160     0.3473610     0.5837090
  C       -2.1923660     1.1169960    -0.5276460
  C        2.6663270     0.6479390     0.0251960
  H       -0.6001840    -1.6333830     0.8895000
  H        0.3094840     0.2426950    -1.3366810
  H       -1.4776870     0.5490530     1.4357690
  H        0.7848540     1.2951930     0.8109900
  H       -2.4256530     0.6242850    -1.4728150
  H       -1.3693410     1.8242450    -0.6894300
  H       -2.2436880    -1.9988170    -0.7384990
  H        0.7382740    -2.1149450    -1.3600910
  H       -3.7555350    -0.0560060     0.7240450
  H        2.1352240    -0.9985780     1.6549180
  H       -3.1588320     2.4130520     0.5846580
  H        3.5236120     1.6268920    -1.3298730
units angstrom
no_reorient  #important for SAPT in psi4, default
symmetry c1  #important for SAPT in psi4, default
}

set PROPERTIES_ORIGIN ["COM"]
properties('MP2/aug-cc-pvtz', properties = ['dipole'])
--------------------------------------------------------------------------

    Molecular point group: c1
  Charge       = 0
  Multiplicity = 1
  Basis Set: AUG-CC-PVTZ
    Blend: AUG-CC-PVTZ
  Basis Set: (AUG-CC-PVTZ AUX)
    Blend: AUG-CC-PVTZ-JKFIT

    Orbital Energies [Eh]
    ---------------------

    Doubly Occupied:

       1A    -20.631411     2A    -20.592242     3A    -20.575670
       4A    -20.574424     5A    -20.573456     6A    -20.570096
       7A    -20.565180     8A    -11.402168     9A    -11.318495
      10A    -11.304468    11A    -11.302802    12A    -11.300653
      13A    -11.295553    14A     -1.476204    15A     -1.408055
      16A     -1.395935    17A     -1.383837    18A     -1.369157
      19A     -1.362333    20A     -1.350208    21A     -1.081813
      22A     -1.027229    23A     -0.963718    24A     -0.888244
      25A     -0.831361    26A     -0.801722    27A     -0.757686
      28A     -0.736967    29A     -0.725414    30A     -0.715488
      31A     -0.712721    32A     -0.683176    33A     -0.676095
      34A     -0.648748    35A     -0.639740    36A     -0.637055
      37A     -0.628444    38A     -0.606498    39A     -0.602337
      40A     -0.581101    41A     -0.553353    42A     -0.550715
      43A     -0.539308    44A     -0.534458    45A     -0.531338
      46A     -0.503398    47A     -0.495680    48A     -0.484129
      49A     -0.466675    50A     -0.461178    51A     -0.454748
      52A     -0.444220

  @DF-RHF Final Energy:  -758.52278310008398

   => Energetics <=

    Nuclear Repulsion Energy =            915.6663219423583087
    One-Electron Energy =               -2862.9440070726664089
    Two-Electron Energy =                1188.7549020302240024
    Total Energy =                       -758.5227831000840979
  Basis Set: (AUG-CC-PVTZ AUX)
    Blend: AUG-CC-PVTZ-RI
    Molecular point group: c1

    Geometry (in Angstrom), charge = 0, multiplicity = 1:

       Center              X                  Y                   Z               Mass
    ------------   -----------------  -----------------  -----------------  -----------------
         O           -1.399255823729    -1.702471157136    -1.053326397842    15.994914619570
         O            1.288005176271    -1.500430157136    -0.870718397842    15.994914619570
         O           -3.057347823729    -0.687836157136     0.796549602158    15.994914619570
         O            1.363021176271    -0.360435157136     1.788550602158    15.994914619570
         O           -3.430592823729     1.810103842864    -0.139265397842    15.994914619570
         O            2.569940176271     1.548945842864    -0.998445397842    15.994914619570
         O            3.655401176271     0.141308842864     0.421363602158    15.994914619570
         C           -0.858252823729    -0.955594157136     0.043089602158    12.000000000000
         C            0.441218876271    -0.415282057136    -0.473729897842    12.000000000000
         C           -1.879779823729     0.072726842864     0.511056602158    12.000000000000
         C            1.249055176271     0.356756842864     0.579098602158    12.000000000000
         C           -2.229426823729     1.126391842864    -0.532256397842    12.000000000000
         C            2.629266176271     0.657334842864     0.020585602158    12.000000000000
         H           -0.637244823729    -1.623987157136     0.884889602158     1.007825032230
         H            0.272423176271     0.252090842864    -1.341291397842     1.007825032230
         H           -1.514747823729     0.558448842864     1.431158602158     1.007825032230
         H            0.747793176271     1.304588842864     0.806379602158     1.007825032230
         H           -2.462713823729     0.633680842864    -1.477425397842     1.007825032230
         H           -1.406401823729     1.833640842864    -0.694040397842     1.007825032230
         H           -2.280748823729    -1.989421157136    -0.743109397842     1.007825032230
         H            0.701213176271    -2.105549157136    -1.364701397842     1.007825032230
         H           -3.792595823729    -0.046610157136     0.719434602158     1.007825032230
         H            2.098163176271    -0.989182157136     1.650307602158     1.007825032230
         H           -3.195892823729     2.422447842864     0.580047602158     1.007825032230
         H            3.486551176271     1.636287842864    -1.334483397842     1.007825032230

  Basis Set: AUG-CC-PVTZ
    Blend: AUG-CC-PVTZ
  Basis Set: (AUG-CC-PVTZ AUX)
    Blend: AUG-CC-PVTZ-JKFIT
	 Reference Energy          =    -758.5227831000839842 [Eh]
	 Singles Energy            =      -0.0000000000000000 [Eh]
	 Same-Spin Energy          =      -0.7344350890961646 [Eh]
	 Opposite-Spin Energy      =      -2.2312775507497329 [Eh]
	 Correlation Energy        =      -2.9657126398458975 [Eh]
	 Total Energy              =    -761.4884957399299310 [Eh]

	 ================> DF-SCS-MP2 Energies <==================
	-----------------------------------------------------------
	 SCS Same-Spin Scale       =       0.3333333333333333 [-]
	 SCS Opposite-Spin Scale   =       1.2000000000000000 [-]
	 SCS Same-Spin Energy      =      -0.2448116963653882 [Eh]
	 SCS Opposite-Spin Energy  =      -2.6775330608996795 [Eh]
	 SCS Correlation Energy    =      -2.9223447572650678 [Eh]
	 SCS Total Energy          =    -761.4451278573490072 [Eh]
	-----------------------------------------------------------

  Dipole Moment: [D]
     X:    -1.2389      Y:     2.6787      Z:    -0.7902     Total:     3.0553

*** Psi4 exiting successfully. Buy a developer a beer!
