                               Psi4 1.4a3.dev225

  ==> Input File <==

--------------------------------------------------------------------------
#psi4
#
memory 32 gb

molecule  {
0 1
  O       -1.3621950    -1.7118670    -1.0487160
  O        1.3250660    -1.5098260    -0.8661080
  O       -3.0202870    -0.6972320     0.8011600
  O        1.4000820    -0.3698310     1.7931610
  O       -3.3935320     1.8007080    -0.1346550
  O        2.6070010     1.5395500    -0.9938350
  O        3.6924620     0.1319130     0.4259740
  C       -0.8211920    -0.9649900     0.0477000
  C        0.5129503    -0.4102621    -0.4829085
  C       -1.8427190     0.0633310     0.5156670
  C        1.2861160     0.3473610     0.5837090
  C       -2.1923660     1.1169960    -0.5276460
  C        2.6663270     0.6479390     0.0251960
  H       -0.6001840    -1.6333830     0.8895000
  H        0.3094840     0.2426950    -1.3366810
  H       -1.4776870     0.5490530     1.4357690
  H        0.7848540     1.2951930     0.8109900
  H       -2.4256530     0.6242850    -1.4728150
  H       -1.3693410     1.8242450    -0.6894300
  H       -2.2436880    -1.9988170    -0.7384990
  H        0.7382740    -2.1149450    -1.3600910
  H       -3.7555350    -0.0560060     0.7240450
  H        2.1352240    -0.9985780     1.6549180
  H       -3.1588320     2.4130520     0.5846580
  H        3.5236120     1.6268920    -1.3298730
units angstrom
no_reorient  #important for SAPT in psi4, default
symmetry c1  #important for SAPT in psi4, default
}

set PROPERTIES_ORIGIN ["COM"]
properties('MP2/aug-cc-pvtz', properties = ['dipole'])
--------------------------------------------------------------------------

    Molecular point group: c1
  Charge       = 0
  Multiplicity = 1
  Basis Set: AUG-CC-PVTZ
    Blend: AUG-CC-PVTZ
  Basis Set: (AUG-CC-PVTZ AUX)
    Blend: AUG-CC-PVTZ-JKFIT

    Orbital Energies [Eh]
    ---------------------

    Doubly Occupied:

       1A    -20.631495     2A    -20.591850     3A    -20.575158
       4A    -20.574898     5A    -20.572753     6A    -20.570749
       7A    -20.565021     8A    -11.401636     9A    -11.318074
      10A    -11.304295    11A    -11.301672    12A    -11.300204
      13A    -11.296032    14A     -1.476397    15A     -1.407589
      16A     -1.396811    17A     -1.383610    18A     -1.369963
      19A     -1.362784    20A     -1.350862    21A     -1.079255
      22A     -1.029055    23A     -0.959000    24A     -0.888241
      25A     -0.829987    26A     -0.803587    27A     -0.758372
      28A     -0.736256    29A     -0.725912    30A     -0.715053
      31A     -0.712461    32A     -0.683088    33A     -0.676611
      34A     -0.651373    35A     -0.640869    36A     -0.636632
      37A     -0.628648    38A     -0.607681    39A     -0.601512
      40A     -0.581058    41A     -0.553189    42A     -0.549504
      43A     -0.539904    44A     -0.534045    45A     -0.530922
      46A     -0.503184    47A     -0.495768    48A     -0.485041
      49A     -0.466308    50A     -0.459041    51A     -0.455718
      52A     -0.441176

  @DF-RHF Final Energy:  -758.52347045070633

   => Energetics <=

    Nuclear Repulsion Energy =            915.5070751524461912
    One-Electron Energy =               -2862.6404838920448128
    Two-Electron Energy =                1188.6099382888921809
    Total Energy =                       -758.5234704507063270
  Basis Set: (AUG-CC-PVTZ AUX)
    Blend: AUG-CC-PVTZ-RI
    Molecular point group: c1

    Geometry (in Angstrom), charge = 0, multiplicity = 1:

       Center              X                  Y                   Z               Mass
    ------------   -----------------  -----------------  -----------------  -----------------
         O           -1.401377882291    -1.703353494674    -1.052482424403    15.994914619570
         O            1.285883117709    -1.501312494674    -0.869874424403    15.994914619570
         O           -3.059469882291    -0.688718494674     0.797393575597    15.994914619570
         O            1.360899117709    -0.361317494674     1.789394575597    15.994914619570
         O           -3.432714882291     1.809221505326    -0.138421424403    15.994914619570
         O            2.567818117709     1.548063505326    -0.997601424403    15.994914619570
         O            3.653279117709     0.140426505326     0.422207575597    15.994914619570
         C           -0.860374882291    -0.956476494674     0.043933575597    12.000000000000
         C            0.473767417709    -0.401748594674    -0.486674924403    12.000000000000
         C           -1.881901882291     0.071844505326     0.511900575597    12.000000000000
         C            1.246933117709     0.355874505326     0.579942575597    12.000000000000
         C           -2.231548882291     1.125509505326    -0.531412424403    12.000000000000
         C            2.627144117709     0.656452505326     0.021429575597    12.000000000000
         H           -0.639366882291    -1.624869494674     0.885733575597     1.007825032230
         H            0.270301117709     0.251208505326    -1.340447424403     1.007825032230
         H           -1.516869882291     0.557566505326     1.432002575597     1.007825032230
         H            0.745671117709     1.303706505326     0.807223575597     1.007825032230
         H           -2.464835882291     0.632798505326    -1.476581424403     1.007825032230
         H           -1.408523882291     1.832758505326    -0.693196424403     1.007825032230
         H           -2.282870882291    -1.990303494674    -0.742265424403     1.007825032230
         H            0.699091117709    -2.106431494674    -1.363857424403     1.007825032230
         H           -3.794717882291    -0.047492494674     0.720278575597     1.007825032230
         H            2.096041117709    -0.990064494674     1.651151575597     1.007825032230
         H           -3.198014882291     2.421565505326     0.580891575597     1.007825032230
         H            3.484429117709     1.635405505326    -1.333639424403     1.007825032230

  Basis Set: AUG-CC-PVTZ
    Blend: AUG-CC-PVTZ
  Basis Set: (AUG-CC-PVTZ AUX)
    Blend: AUG-CC-PVTZ-JKFIT
	 Reference Energy          =    -758.5234704507063270 [Eh]
	 Singles Energy            =      -0.0000000000000000 [Eh]
	 Same-Spin Energy          =      -0.7342449011712745 [Eh]
	 Opposite-Spin Energy      =      -2.2308149967269770 [Eh]
	 Correlation Energy        =      -2.9650598978982514 [Eh]
	 Total Energy              =    -761.4885303486046269 [Eh]

	 ================> DF-SCS-MP2 Energies <==================
	-----------------------------------------------------------
	 SCS Same-Spin Scale       =       0.3333333333333333 [-]
	 SCS Opposite-Spin Scale   =       1.2000000000000000 [-]
	 SCS Same-Spin Energy      =      -0.2447483003904248 [Eh]
	 SCS Opposite-Spin Energy  =      -2.6769779960723725 [Eh]
	 SCS Correlation Energy    =      -2.9217262964627975 [Eh]
	 SCS Total Energy          =    -761.4451967471691205 [Eh]
	-----------------------------------------------------------

  Dipole Moment: [D]
     X:    -1.1872      Y:     2.6724      Z:    -0.8164     Total:     3.0360

*** Psi4 exiting successfully. Buy a developer a beer!
