                               Psi4 1.4a3.dev225

  ==> Input File <==

--------------------------------------------------------------------------
#psi4
#
memory 32 gb

molecule  {
0 1
  O       -1.3621950    -1.7118670    -1.0487160
  O        1.3250660    -1.5098260    -0.8661080
  O       -3.0202870    -0.6972320     0.8011600
  O        1.4000820    -0.3698310     1.7931610
  O       -3.3935320     1.8007080    -0.1346550
  O        2.6070010     1.5395500    -0.9938350
  O        3.6924620     0.1319130     0.4259740
  C       -0.8211920    -0.9649900     0.0477000
  C        0.4956150    -0.4174700    -0.4760140
  C       -1.8427190     0.0633310     0.5156670
  C        1.2861160     0.3473610     0.5837090
  C       -2.1923660     1.1169960    -0.5276460
  C        2.6663270     0.6479390     0.0251960
  H       -0.6001840    -1.6333830     0.8895000
  H        0.3094840     0.2426950    -1.3366810
  H       -1.4776870     0.5490530     1.4357690
  H        0.7848540     1.2951930     0.8109900
  H       -2.4256530     0.6242850    -1.4728150
  H       -1.3693410     1.8242450    -0.6894300
  H       -2.2436880    -1.9988170    -0.7384990
  H        0.7382740    -2.1149450    -1.3600910
  H       -3.7555350    -0.0560060     0.7240450
  H        2.1352240    -0.9985780     1.6549180
  H       -3.1588320     2.4130520     0.5846580
  H        3.7106437     1.6447139    -1.3984406
units angstrom
no_reorient  #important for SAPT in psi4, default
symmetry c1  #important for SAPT in psi4, default
}

set PROPERTIES_ORIGIN ["COM"]
properties('MP2/aug-cc-pvtz', properties = ['dipole'])
--------------------------------------------------------------------------

    Molecular point group: c1
  Charge       = 0
  Multiplicity = 1
  Basis Set: AUG-CC-PVTZ
    Blend: AUG-CC-PVTZ
  Basis Set: (AUG-CC-PVTZ AUX)
    Blend: AUG-CC-PVTZ-JKFIT

    Orbital Energies [Eh]
    ---------------------

    Doubly Occupied:

       1A    -20.639207     2A    -20.591411     3A    -20.574617
       4A    -20.573705     5A    -20.572314     6A    -20.569227
       7A    -20.561318     8A    -11.398025     9A    -11.317329
      10A    -11.303106    11A    -11.301458    12A    -11.299688
      13A    -11.294894    14A     -1.456707    15A     -1.406676
      16A     -1.393156    17A     -1.379675    18A     -1.365790
      19A     -1.353520    20A     -1.349301    21A     -1.078477
      22A     -1.024193    23A     -0.957445    24A     -0.883529
      25A     -0.813891    26A     -0.798231    27A     -0.754732
      28A     -0.729959    29A     -0.719940    30A     -0.714523
      31A     -0.698544    32A     -0.681611    33A     -0.673370
      34A     -0.645547    35A     -0.637149    36A     -0.627821
      37A     -0.626782    38A     -0.601516    39A     -0.598247
      40A     -0.578386    41A     -0.550619    42A     -0.549347
      43A     -0.535890    44A     -0.533249    45A     -0.529015
      46A     -0.502484    47A     -0.490433    48A     -0.481946
      49A     -0.465484    50A     -0.458144    51A     -0.454317
      52A     -0.441559

  @DF-RHF Final Energy:  -758.48865549826905

   => Energetics <=

    Nuclear Repulsion Energy =            914.3765446552157528
    One-Electron Energy =               -2860.6553914541118502
    Two-Electron Energy =                1187.7901913006271570
    Total Energy =                       -758.4886554982690541
  Basis Set: (AUG-CC-PVTZ AUX)
    Blend: AUG-CC-PVTZ-RI
    Molecular point group: c1

    Geometry (in Angstrom), charge = 0, multiplicity = 1:

       Center              X                  Y                   Z               Mass
    ------------   -----------------  -----------------  -----------------  -----------------
         O           -1.401278277375    -1.703003938230    -1.052551943807    15.994914619570
         O            1.285982722625    -1.500962938230    -0.869943943807    15.994914619570
         O           -3.059370277375    -0.688368938230     0.797324056193    15.994914619570
         O            1.360998722625    -0.360967938230     1.789325056193    15.994914619570
         O           -3.432615277375     1.809571061770    -0.138490943807    15.994914619570
         O            2.567917722625     1.548413061770    -0.997670943807    15.994914619570
         O            3.653378722625     0.140776061770     0.422138056193    15.994914619570
         C           -0.860275277375    -0.956126938230     0.043864056193    12.000000000000
         C            0.456531722625    -0.408606938230    -0.479849943807    12.000000000000
         C           -1.881802277375     0.072194061770     0.511831056193    12.000000000000
         C            1.247032722625     0.356224061770     0.579873056193    12.000000000000
         C           -2.231449277375     1.125859061770    -0.531481943807    12.000000000000
         C            2.627243722625     0.656802061770     0.021360056193    12.000000000000
         H           -0.639267277375    -1.624519938230     0.885664056193     1.007825032230
         H            0.270400722625     0.251558061770    -1.340516943807     1.007825032230
         H           -1.516770277375     0.557916061770     1.431933056193     1.007825032230
         H            0.745770722625     1.304056061770     0.807154056193     1.007825032230
         H           -2.464736277375     0.633148061770    -1.476650943807     1.007825032230
         H           -1.408424277375     1.833108061770    -0.693265943807     1.007825032230
         H           -2.282771277375    -1.989953938230    -0.742334943807     1.007825032230
         H            0.699190722625    -2.106081938230    -1.363926943807     1.007825032230
         H           -3.794618277375    -0.047142938230     0.720209056193     1.007825032230
         H            2.096140722625    -0.989714938230     1.651082056193     1.007825032230
         H           -3.197915277375     2.421915061770     0.580822056193     1.007825032230
         H            3.671560422625     1.653576961770    -1.402276543807     1.007825032230

  Basis Set: AUG-CC-PVTZ
    Blend: AUG-CC-PVTZ
  Basis Set: (AUG-CC-PVTZ AUX)
    Blend: AUG-CC-PVTZ-JKFIT
	 Reference Energy          =    -758.4886554982690541 [Eh]
	 Singles Energy            =      -0.0000000000000000 [Eh]
	 Same-Spin Energy          =      -0.7368628690586567 [Eh]
	 Opposite-Spin Energy      =      -2.2374481717756787 [Eh]
	 Correlation Energy        =      -2.9743110408343352 [Eh]
	 Total Energy              =    -761.4629665391033768 [Eh]

	 ================> DF-SCS-MP2 Energies <==================
	-----------------------------------------------------------
	 SCS Same-Spin Scale       =       0.3333333333333333 [-]
	 SCS Opposite-Spin Scale   =       1.2000000000000000 [-]
	 SCS Same-Spin Energy      =      -0.2456209563528856 [Eh]
	 SCS Opposite-Spin Energy  =      -2.6849378061308142 [Eh]
	 SCS Correlation Energy    =      -2.9305587624836997 [Eh]
	 SCS Total Energy          =    -761.4192142607527103 [Eh]
	-----------------------------------------------------------

  Dipole Moment: [D]
     X:    -0.9890      Y:     2.7310      Z:    -0.9213     Total:     3.0472

*** Psi4 exiting successfully. Buy a developer a beer!
