                               Psi4 1.4a3.dev225

  ==> Input File <==

--------------------------------------------------------------------------
#psi4
#
memory 32 gb

molecule  {
0 1
  O       -1.3621950    -1.7118670    -1.0487160
  O        1.3250660    -1.5098260    -0.8661080
  O       -3.0202870    -0.6972320     0.8011600
  O        1.4000820    -0.3698310     1.7931610
  O       -3.3935320     1.8007080    -0.1346550
  O        2.6070010     1.5395500    -0.9938350
  O        3.6924620     0.1319130     0.4259740
  C       -0.8211920    -0.9649900     0.0477000
  C        0.4956150    -0.4174700    -0.4760140
  C       -1.8427190     0.0633310     0.5156670
  C        1.2861160     0.3473610     0.5837090
  C       -2.1923660     1.1169960    -0.5276460
  C        2.6241511     0.6691485     0.0087233
  H       -0.6001840    -1.6333830     0.8895000
  H        0.3094840     0.2426950    -1.3366810
  H       -1.4776870     0.5490530     1.4357690
  H        0.7848540     1.2951930     0.8109900
  H       -2.4256530     0.6242850    -1.4728150
  H       -1.3693410     1.8242450    -0.6894300
  H       -2.2436880    -1.9988170    -0.7384990
  H        0.7382740    -2.1149450    -1.3600910
  H       -3.7555350    -0.0560060     0.7240450
  H        2.1352240    -0.9985780     1.6549180
  H       -3.1588320     2.4130520     0.5846580
  H        3.5236120     1.6268920    -1.3298730
units angstrom
no_reorient  #important for SAPT in psi4, default
symmetry c1  #important for SAPT in psi4, default
}

set PROPERTIES_ORIGIN ["COM"]
properties('MP2/aug-cc-pvtz', properties = ['dipole'])
--------------------------------------------------------------------------

    Molecular point group: c1
  Charge       = 0
  Multiplicity = 1
  Basis Set: AUG-CC-PVTZ
    Blend: AUG-CC-PVTZ
  Basis Set: (AUG-CC-PVTZ AUX)
    Blend: AUG-CC-PVTZ-JKFIT

    Orbital Energies [Eh]
    ---------------------

    Doubly Occupied:

       1A    -20.639902     2A    -20.592914     3A    -20.576081
       4A    -20.575989     5A    -20.574014     6A    -20.571318
       7A    -20.555750     8A    -11.406046     9A    -11.319822
      10A    -11.306593    11A    -11.303159    12A    -11.301466
      13A    -11.296938    14A     -1.482301    15A     -1.408846
      16A     -1.397346    17A     -1.382881    18A     -1.367277
      19A     -1.351740    20A     -1.340047    21A     -1.083876
      22A     -1.034122    23A     -0.965243    24A     -0.891834
      25A     -0.838828    26A     -0.805103    27A     -0.760342
      28A     -0.740653    29A     -0.725754    30A     -0.716226
      31A     -0.712271    32A     -0.683865    33A     -0.677313
      34A     -0.651537    35A     -0.640968    36A     -0.636899
      37A     -0.629812    38A     -0.603497    39A     -0.598480
      40A     -0.583056    41A     -0.552746    42A     -0.550851
      43A     -0.541275    44A     -0.535228    45A     -0.530192
      46A     -0.504276    47A     -0.480938    48A     -0.478656
      49A     -0.467189    50A     -0.460154    51A     -0.456595
      52A     -0.444477

  @DF-RHF Final Energy:  -758.51549519387709

   => Energetics <=

    Nuclear Repulsion Energy =            915.7809062135354452
    One-Electron Energy =               -2863.1274257897816824
    Two-Electron Energy =                1188.8310243823691508
    Total Energy =                       -758.5154951938770864
  Basis Set: (AUG-CC-PVTZ AUX)
    Blend: AUG-CC-PVTZ-RI
    Molecular point group: c1

    Geometry (in Angstrom), charge = 0, multiplicity = 1:

       Center              X                  Y                   Z               Mass
    ------------   -----------------  -----------------  -----------------  -----------------
         O           -1.397735422931    -1.704210480569    -1.051896178381    15.994914619570
         O            1.289525577069    -1.502169480569    -0.869288178381    15.994914619570
         O           -3.055827422931    -0.689575480569     0.797979821619    15.994914619570
         O            1.364541577069    -0.362174480569     1.789980821619    15.994914619570
         O           -3.429072422931     1.808364519431    -0.137835178381    15.994914619570
         O            2.571460577069     1.547206519431    -0.997015178381    15.994914619570
         O            3.656921577069     0.139569519431     0.422793821619    15.994914619570
         C           -0.856732422931    -0.957333480569     0.044519821619    12.000000000000
         C            0.460074577069    -0.409813480569    -0.479194178381    12.000000000000
         C           -1.878259422931     0.070987519431     0.512486821619    12.000000000000
         C            1.250575577069     0.355017519431     0.580528821619    12.000000000000
         C           -2.227906422931     1.124652519431    -0.530826178381    12.000000000000
         C            2.588610677069     0.676805019431     0.005543121619    12.000000000000
         H           -0.635724422931    -1.625726480569     0.886319821619     1.007825032230
         H            0.273943577069     0.250351519431    -1.339861178381     1.007825032230
         H           -1.513227422931     0.556709519431     1.432588821619     1.007825032230
         H            0.749313577069     1.302849519431     0.807809821619     1.007825032230
         H           -2.461193422931     0.631941519431    -1.475995178381     1.007825032230
         H           -1.404881422931     1.831901519431    -0.692610178381     1.007825032230
         H           -2.279228422931    -1.991160480569    -0.741679178381     1.007825032230
         H            0.702733577069    -2.107288480569    -1.363271178381     1.007825032230
         H           -3.791075422931    -0.048349480569     0.720864821619     1.007825032230
         H            2.099683577069    -0.990921480569     1.651737821619     1.007825032230
         H           -3.194372422931     2.420708519431     0.581477821619     1.007825032230
         H            3.488071577069     1.634548519431    -1.333053178381     1.007825032230

  Basis Set: AUG-CC-PVTZ
    Blend: AUG-CC-PVTZ
  Basis Set: (AUG-CC-PVTZ AUX)
    Blend: AUG-CC-PVTZ-JKFIT
	 Reference Energy          =    -758.5154951938770864 [Eh]
	 Singles Energy            =      -0.0000000000000000 [Eh]
	 Same-Spin Energy          =      -0.7354499553035869 [Eh]
	 Opposite-Spin Energy      =      -2.2329224967142771 [Eh]
	 Correlation Energy        =      -2.9683724520178640 [Eh]
	 Total Energy              =    -761.4838676458949749 [Eh]

	 ================> DF-SCS-MP2 Energies <==================
	-----------------------------------------------------------
	 SCS Same-Spin Scale       =       0.3333333333333333 [-]
	 SCS Opposite-Spin Scale   =       1.2000000000000000 [-]
	 SCS Same-Spin Energy      =      -0.2451499851011956 [Eh]
	 SCS Opposite-Spin Energy  =      -2.6795069960571323 [Eh]
	 SCS Correlation Energy    =      -2.9246569811583281 [Eh]
	 SCS Total Energy          =    -761.4401521750354505 [Eh]
	-----------------------------------------------------------

  Dipole Moment: [D]
     X:    -1.4523      Y:     2.8248      Z:    -0.9683     Total:     3.3206

*** Psi4 exiting successfully. Buy a developer a beer!
