                               Psi4 1.4a3.dev225

  ==> Input File <==

--------------------------------------------------------------------------
#psi4
#
memory 32 gb

molecule  {
0 1
  O       -1.3621950    -1.7118670    -1.0487160
  O        1.3250660    -1.5098260    -0.8661080
  O       -3.0202870    -0.6972320     0.8011600
  O        1.4000820    -0.3698310     1.7931610
  O       -3.3935320     1.8007080    -0.1346550
  O        2.6070010     1.5395500    -0.9938350
  O        3.6924620     0.1319130     0.4259740
  C       -0.8211920    -0.9649900     0.0477000
  C        0.4956150    -0.4174700    -0.4760140
  C       -1.8427190     0.0633310     0.5156670
  C        1.2861160     0.3473610     0.5837090
  C       -2.1923660     1.1169960    -0.5276460
  C        2.6663270     0.6479390     0.0251960
  H       -0.6001840    -1.6333830     0.8895000
  H        0.3094840     0.2426950    -1.3366810
  H       -1.4776870     0.5490530     1.4357690
  H        0.7848540     1.2951930     0.8109900
  H       -2.4256530     0.6242850    -1.4728150
  H       -1.3693410     1.8242450    -0.6894300
  H       -2.2436880    -1.9988170    -0.7384990
  H        0.6782129    -2.1768820    -1.4106526
  H       -3.7555350    -0.0560060     0.7240450
  H        2.1352240    -0.9985780     1.6549180
  H       -3.1588320     2.4130520     0.5846580
  H        3.5236120     1.6268920    -1.3298730
units angstrom
no_reorient  #important for SAPT in psi4, default
symmetry c1  #important for SAPT in psi4, default
}

set PROPERTIES_ORIGIN ["COM"]
properties('MP2/aug-cc-pvtz', properties = ['dipole'])
--------------------------------------------------------------------------

    Molecular point group: c1
  Charge       = 0
  Multiplicity = 1
  Basis Set: AUG-CC-PVTZ
    Blend: AUG-CC-PVTZ
  Basis Set: (AUG-CC-PVTZ AUX)
    Blend: AUG-CC-PVTZ-JKFIT

    Orbital Energies [Eh]
    ---------------------

    Doubly Occupied:

       1A    -20.630800     2A    -20.591910     3A    -20.575367
       4A    -20.575197     5A    -20.574218     6A    -20.574057
       7A    -20.564419     8A    -11.401243     9A    -11.317520
      10A    -11.302787    11A    -11.301989    12A    -11.300263
      13A    -11.295437    14A     -1.475597    15A     -1.406645
      16A     -1.393283    17A     -1.382656    18A     -1.366441
      19A     -1.359671    20A     -1.341859    21A     -1.077428
      22A     -1.026605    23A     -0.960428    24A     -0.885818
      25A     -0.830143    26A     -0.798156    27A     -0.754375
      28A     -0.736015    29A     -0.723856    30A     -0.715091
      31A     -0.711529    32A     -0.682472    33A     -0.671128
      34A     -0.647583    35A     -0.639312    36A     -0.632688
      37A     -0.625267    38A     -0.605002    39A     -0.601564
      40A     -0.579180    41A     -0.552103    42A     -0.550096
      43A     -0.537189    44A     -0.532972    45A     -0.528593
      46A     -0.503135    47A     -0.494992    48A     -0.482881
      49A     -0.465189    50A     -0.459500    51A     -0.453320
      52A     -0.442107

  @DF-RHF Final Energy:  -758.51012973256184

   => Energetics <=

    Nuclear Repulsion Energy =            915.0039863615661488
    One-Electron Energy =               -2861.7540804001805554
    Two-Electron Energy =                1188.2399643060525705
    Total Energy =                       -758.5101297325618361
  Basis Set: (AUG-CC-PVTZ AUX)
    Blend: AUG-CC-PVTZ-RI
    Molecular point group: c1

    Geometry (in Angstrom), charge = 0, multiplicity = 1:

       Center              X                  Y                   Z               Mass
    ------------   -----------------  -----------------  -----------------  -----------------
         O           -1.400008112808    -1.702593942760    -1.052644502486    15.994914619570
         O            1.287252887192    -1.500552942760    -0.870036502486    15.994914619570
         O           -3.058100112808    -0.687958942760     0.797231497514    15.994914619570
         O            1.362268887192    -0.360557942760     1.789232497514    15.994914619570
         O           -3.431345112808     1.809981057240    -0.138583502486    15.994914619570
         O            2.569187887192     1.548823057240    -0.997763502486    15.994914619570
         O            3.654648887192     0.141186057240     0.422045497514    15.994914619570
         C           -0.859005112808    -0.955716942760     0.043771497514    12.000000000000
         C            0.457801887192    -0.408196942760    -0.479942502486    12.000000000000
         C           -1.880532112808     0.072604057240     0.511738497514    12.000000000000
         C            1.248302887192     0.356634057240     0.579780497514    12.000000000000
         C           -2.230179112808     1.126269057240    -0.531574502486    12.000000000000
         C            2.628513887192     0.657212057240     0.021267497514    12.000000000000
         H           -0.637997112808    -1.624109942760     0.885571497514     1.007825032230
         H            0.271670887192     0.251968057240    -1.340609502486     1.007825032230
         H           -1.515500112808     0.558326057240     1.431840497514     1.007825032230
         H            0.747040887192     1.304466057240     0.807061497514     1.007825032230
         H           -2.463466112808     0.633558057240    -1.476743502486     1.007825032230
         H           -1.407154112808     1.833518057240    -0.693358502486     1.007825032230
         H           -2.281501112808    -1.989543942760    -0.742427502486     1.007825032230
         H            0.640399787192    -2.167608942760    -1.414581102486     1.007825032230
         H           -3.793348112808    -0.046732942760     0.720116497514     1.007825032230
         H            2.097410887192    -0.989304942760     1.650989497514     1.007825032230
         H           -3.196645112808     2.422325057240     0.580729497514     1.007825032230
         H            3.485798887192     1.636165057240    -1.333801502486     1.007825032230

  Basis Set: AUG-CC-PVTZ
    Blend: AUG-CC-PVTZ
  Basis Set: (AUG-CC-PVTZ AUX)
    Blend: AUG-CC-PVTZ-JKFIT
	 Reference Energy          =    -758.5101297325618361 [Eh]
	 Singles Energy            =      -0.0000000000000000 [Eh]
	 Same-Spin Energy          =      -0.7356912690091724 [Eh]
	 Opposite-Spin Energy      =      -2.2343383256603597 [Eh]
	 Correlation Energy        =      -2.9700295946695321 [Eh]
	 Total Energy              =    -761.4801593272313767 [Eh]

	 ================> DF-SCS-MP2 Energies <==================
	-----------------------------------------------------------
	 SCS Same-Spin Scale       =       0.3333333333333333 [-]
	 SCS Opposite-Spin Scale   =       1.2000000000000000 [-]
	 SCS Same-Spin Energy      =      -0.2452304230030574 [Eh]
	 SCS Opposite-Spin Energy  =      -2.6812059907924315 [Eh]
	 SCS Correlation Energy    =      -2.9264364137954888 [Eh]
	 SCS Total Energy          =    -761.4365661463573360 [Eh]
	-----------------------------------------------------------

  Dipole Moment: [D]
     X:    -1.2895      Y:     2.5924      Z:    -0.8589     Total:     3.0201

*** Psi4 exiting successfully. Buy a developer a beer!
