                               Psi4 1.4a3.dev225

  ==> Input File <==

--------------------------------------------------------------------------
#psi4
#
memory 32 gb

molecule  {
0 1
  O       -1.3621950    -1.7118670    -1.0487160
  O        1.3250660    -1.5098260    -0.8661080
  O       -3.0202870    -0.6972320     0.8011600
  O        1.4000820    -0.3698310     1.7931610
  O       -3.3935320     1.8007080    -0.1346550
  O        2.6070010     1.5395500    -0.9938350
  O        3.6924620     0.1319130     0.4259740
  C       -0.8211920    -0.9649900     0.0477000
  C        0.4956150    -0.4174700    -0.4760140
  C       -1.8262565     0.0739638     0.5116758
  C        1.2861160     0.3473610     0.5837090
  C       -2.1923660     1.1169960    -0.5276460
  C        2.6663270     0.6479390     0.0251960
  H       -0.6001840    -1.6333830     0.8895000
  H        0.3094840     0.2426950    -1.3366810
  H       -1.4776870     0.5490530     1.4357690
  H        0.7848540     1.2951930     0.8109900
  H       -2.4256530     0.6242850    -1.4728150
  H       -1.3693410     1.8242450    -0.6894300
  H       -2.2436880    -1.9988170    -0.7384990
  H        0.7382740    -2.1149450    -1.3600910
  H       -3.7555350    -0.0560060     0.7240450
  H        2.1352240    -0.9985780     1.6549180
  H       -3.1588320     2.4130520     0.5846580
  H        3.5236120     1.6268920    -1.3298730
units angstrom
no_reorient  #important for SAPT in psi4, default
symmetry c1  #important for SAPT in psi4, default
}

set PROPERTIES_ORIGIN ["COM"]
properties('MP2/aug-cc-pvtz', properties = ['dipole'])
--------------------------------------------------------------------------

    Molecular point group: c1
  Charge       = 0
  Multiplicity = 1
  Basis Set: AUG-CC-PVTZ
    Blend: AUG-CC-PVTZ
  Basis Set: (AUG-CC-PVTZ AUX)
    Blend: AUG-CC-PVTZ-JKFIT

    Orbital Energies [Eh]
    ---------------------

    Doubly Occupied:

       1A    -20.631659     2A    -20.592427     3A    -20.575122
       4A    -20.573464     5A    -20.573117     6A    -20.570470
       7A    -20.565326     8A    -11.402153     9A    -11.318604
      10A    -11.304424    11A    -11.302381    12A    -11.300924
      13A    -11.296406    14A     -1.476513    15A     -1.405933
      16A     -1.395859    17A     -1.383940    18A     -1.368620
      19A     -1.361462    20A     -1.348144    21A     -1.082085
      22A     -1.029558    23A     -0.962400    24A     -0.888258
      25A     -0.831009    26A     -0.802943    27A     -0.758064
      28A     -0.736851    29A     -0.725344    30A     -0.714870
      31A     -0.712270    32A     -0.682586    33A     -0.675134
      34A     -0.650074    35A     -0.640002    36A     -0.636555
      37A     -0.628733    38A     -0.607225    39A     -0.601855
      40A     -0.581054    41A     -0.553893    42A     -0.547322
      43A     -0.539703    44A     -0.533247    45A     -0.530982
      46A     -0.503016    47A     -0.495914    48A     -0.484930
      49A     -0.467857    50A     -0.461192    51A     -0.456330
      52A     -0.444056

  @DF-RHF Final Energy:  -758.52271143906387

   => Energetics <=

    Nuclear Repulsion Energy =            915.6129963859059444
    One-Electron Energy =               -2862.8468968761030737
    Two-Electron Energy =                1188.7111890511332604
    Total Energy =                       -758.5227114390638690
  Basis Set: (AUG-CC-PVTZ AUX)
    Blend: AUG-CC-PVTZ-RI
    Molecular point group: c1

    Geometry (in Angstrom), charge = 0, multiplicity = 1:

       Center              X                  Y                   Z               Mass
    ------------   -----------------  -----------------  -----------------  -----------------
         O           -1.401324461447    -1.703563120073    -1.052660124605    15.994914619570
         O            1.285936538553    -1.501522120073    -0.870052124605    15.994914619570
         O           -3.059416461447    -0.688928120073     0.797215875395    15.994914619570
         O            1.360952538553    -0.361527120073     1.789216875395    15.994914619570
         O           -3.432661461447     1.809011879927    -0.138599124605    15.994914619570
         O            2.567871538553     1.547853879927    -0.997779124605    15.994914619570
         O            3.653332538553     0.140216879927     0.422029875395    15.994914619570
         C           -0.860321461447    -0.956686120073     0.043755875395    12.000000000000
         C            0.456485538553    -0.409166120073    -0.479958124605    12.000000000000
         C           -1.865385961447     0.082267679927     0.507731675395    12.000000000000
         C            1.246986538553     0.355664879927     0.579764875395    12.000000000000
         C           -2.231495461447     1.125299879927    -0.531590124605    12.000000000000
         C            2.627197538553     0.656242879927     0.021251875395    12.000000000000
         H           -0.639313461447    -1.625079120073     0.885555875395     1.007825032230
         H            0.270354538553     0.250998879927    -1.340625124605     1.007825032230
         H           -1.516816461447     0.557356879927     1.431824875395     1.007825032230
         H            0.745724538553     1.303496879927     0.807045875395     1.007825032230
         H           -2.464782461447     0.632588879927    -1.476759124605     1.007825032230
         H           -1.408470461447     1.832548879927    -0.693374124605     1.007825032230
         H           -2.282817461447    -1.990513120073    -0.742443124605     1.007825032230
         H            0.699144538553    -2.106641120073    -1.364035124605     1.007825032230
         H           -3.794664461447    -0.047702120073     0.720100875395     1.007825032230
         H            2.096094538553    -0.990274120073     1.650973875395     1.007825032230
         H           -3.197961461447     2.421355879927     0.580713875395     1.007825032230
         H            3.484482538553     1.635195879927    -1.333817124605     1.007825032230

  Basis Set: AUG-CC-PVTZ
    Blend: AUG-CC-PVTZ
  Basis Set: (AUG-CC-PVTZ AUX)
    Blend: AUG-CC-PVTZ-JKFIT
	 Reference Energy          =    -758.5227114390638690 [Eh]
	 Singles Energy            =      -0.0000000000000000 [Eh]
	 Same-Spin Energy          =      -0.7344331431692004 [Eh]
	 Opposite-Spin Energy      =      -2.2314212767421315 [Eh]
	 Correlation Energy        =      -2.9658544199113317 [Eh]
	 Total Energy              =    -761.4885658589752211 [Eh]

	 ================> DF-SCS-MP2 Energies <==================
	-----------------------------------------------------------
	 SCS Same-Spin Scale       =       0.3333333333333333 [-]
	 SCS Opposite-Spin Scale   =       1.2000000000000000 [-]
	 SCS Same-Spin Energy      =      -0.2448110477230668 [Eh]
	 SCS Opposite-Spin Energy  =      -2.6777055320905578 [Eh]
	 SCS Correlation Energy    =      -2.9225165798136246 [Eh]
	 SCS Total Energy          =    -761.4452280188775148 [Eh]
	-----------------------------------------------------------

  Dipole Moment: [D]
     X:    -1.1586      Y:     2.7023      Z:    -0.8129     Total:     3.0505

*** Psi4 exiting successfully. Buy a developer a beer!
