                               Psi4 1.4a3.dev225

  ==> Input File <==

--------------------------------------------------------------------------
#psi4
#
memory 32 gb

molecule  {
0 1
  O       -1.3621950    -1.7118670    -1.0487160
  O        1.3250660    -1.5098260    -0.8661080
  O       -3.0202870    -0.6972320     0.8011600
  O        1.4000820    -0.3698310     1.7931610
  O       -3.3935320     1.8007080    -0.1346550
  O        2.6070010     1.5395500    -0.9938350
  O        3.6924620     0.1319130     0.4259740
  C       -0.8287442    -0.9754161     0.0323944
  C        0.4956150    -0.4174700    -0.4760140
  C       -1.8427190     0.0633310     0.5156670
  C        1.2861160     0.3473610     0.5837090
  C       -2.1923660     1.1169960    -0.5276460
  C        2.6663270     0.6479390     0.0251960
  H       -0.6001840    -1.6333830     0.8895000
  H        0.3094840     0.2426950    -1.3366810
  H       -1.4776870     0.5490530     1.4357690
  H        0.7848540     1.2951930     0.8109900
  H       -2.4256530     0.6242850    -1.4728150
  H       -1.3693410     1.8242450    -0.6894300
  H       -2.2436880    -1.9988170    -0.7384990
  H        0.7382740    -2.1149450    -1.3600910
  H       -3.7555350    -0.0560060     0.7240450
  H        2.1352240    -0.9985780     1.6549180
  H       -3.1588320     2.4130520     0.5846580
  H        3.5236120     1.6268920    -1.3298730
units angstrom
no_reorient  #important for SAPT in psi4, default
symmetry c1  #important for SAPT in psi4, default
}

set PROPERTIES_ORIGIN ["COM"]
properties('MP2/aug-cc-pvtz', properties = ['dipole'])
--------------------------------------------------------------------------

    Molecular point group: c1
  Charge       = 0
  Multiplicity = 1
  Basis Set: AUG-CC-PVTZ
    Blend: AUG-CC-PVTZ
  Basis Set: (AUG-CC-PVTZ AUX)
    Blend: AUG-CC-PVTZ-JKFIT

    Orbital Energies [Eh]
    ---------------------

    Doubly Occupied:

       1A    -20.631303     2A    -20.591764     3A    -20.575341
       4A    -20.574992     5A    -20.574377     6A    -20.569984
       7A    -20.564994     8A    -11.401817     9A    -11.318133
      10A    -11.303757    11A    -11.301627    12A    -11.300064
      13A    -11.295799    14A     -1.476152    15A     -1.409946
      16A     -1.396194    17A     -1.385739    18A     -1.369753
      19A     -1.362395    20A     -1.353276    21A     -1.078476
      22A     -1.027433    23A     -0.960377    24A     -0.887015
      25A     -0.831074    26A     -0.802751    27A     -0.758095
      28A     -0.737416    29A     -0.725515    30A     -0.715092
      31A     -0.712269    32A     -0.683583    33A     -0.677637
      34A     -0.650486    35A     -0.639800    36A     -0.637805
      37A     -0.628687    38A     -0.607335    39A     -0.602051
      40A     -0.581551    41A     -0.555068    42A     -0.550248
      43A     -0.539575    44A     -0.535211    45A     -0.530087
      46A     -0.503796    47A     -0.495597    48A     -0.483970
      49A     -0.465674    50A     -0.458687    51A     -0.454483
      52A     -0.441121

  @DF-RHF Final Energy:  -758.52365517616761

   => Energetics <=

    Nuclear Repulsion Energy =            915.5887480913153240
    One-Electron Energy =               -2862.7940648564008370
    Two-Electron Energy =                1188.6816615889179047
    Total Energy =                       -758.5236551761677219
  Basis Set: (AUG-CC-PVTZ AUX)
    Blend: AUG-CC-PVTZ-RI
    Molecular point group: c1

    Geometry (in Angstrom), charge = 0, multiplicity = 1:

       Center              X                  Y                   Z               Mass
    ------------   -----------------  -----------------  -----------------  -----------------
         O           -1.399854610918    -1.702274183076    -1.051967612234    15.994914619570
         O            1.287406389082    -1.500233183076    -0.869359612234    15.994914619570
         O           -3.057946610918    -0.687639183076     0.797908387766    15.994914619570
         O            1.362422389082    -0.360238183076     1.789909387766    15.994914619570
         O           -3.431191610918     1.810300816924    -0.137906612234    15.994914619570
         O            2.569341389082     1.549142816924    -0.997086612234    15.994914619570
         O            3.654802389082     0.141505816924     0.422722387766    15.994914619570
         C           -0.866403810918    -0.965823283076     0.029142787766    12.000000000000
         C            0.457955389082    -0.407877183076    -0.479265612234    12.000000000000
         C           -1.880378610918     0.072923816924     0.512415387766    12.000000000000
         C            1.248456389082     0.356953816924     0.580457387766    12.000000000000
         C           -2.230025610918     1.126588816924    -0.530897612234    12.000000000000
         C            2.628667389082     0.657531816924     0.021944387766    12.000000000000
         H           -0.637843610918    -1.623790183076     0.886248387766     1.007825032230
         H            0.271824389082     0.252287816924    -1.339932612234     1.007825032230
         H           -1.515346610918     0.558645816924     1.432517387766     1.007825032230
         H            0.747194389082     1.304785816924     0.807738387766     1.007825032230
         H           -2.463312610918     0.633877816924    -1.476066612234     1.007825032230
         H           -1.407000610918     1.833837816924    -0.692681612234     1.007825032230
         H           -2.281347610918    -1.989224183076    -0.741750612234     1.007825032230
         H            0.700614389082    -2.105352183076    -1.363342612234     1.007825032230
         H           -3.793194610918    -0.046413183076     0.720793387766     1.007825032230
         H            2.097564389082    -0.988985183076     1.651666387766     1.007825032230
         H           -3.196491610918     2.422644816924     0.581406387766     1.007825032230
         H            3.485952389082     1.636484816924    -1.333124612234     1.007825032230

  Basis Set: AUG-CC-PVTZ
    Blend: AUG-CC-PVTZ
  Basis Set: (AUG-CC-PVTZ AUX)
    Blend: AUG-CC-PVTZ-JKFIT
	 Reference Energy          =    -758.5236551761676083 [Eh]
	 Singles Energy            =      -0.0000000000000000 [Eh]
	 Same-Spin Energy          =      -0.7342520788988378 [Eh]
	 Opposite-Spin Energy      =      -2.2306948507125766 [Eh]
	 Correlation Energy        =      -2.9649469296114144 [Eh]
	 Total Energy              =    -761.4886021057790231 [Eh]

	 ================> DF-SCS-MP2 Energies <==================
	-----------------------------------------------------------
	 SCS Same-Spin Scale       =       0.3333333333333333 [-]
	 SCS Opposite-Spin Scale   =       1.2000000000000000 [-]
	 SCS Same-Spin Energy      =      -0.2447506929662793 [Eh]
	 SCS Opposite-Spin Energy  =      -2.6768338208550917 [Eh]
	 SCS Correlation Energy    =      -2.9215845138213710 [Eh]
	 SCS Total Energy          =    -761.4452396899889663 [Eh]
	-----------------------------------------------------------

  Dipole Moment: [D]
     X:    -1.2380      Y:     2.6412      Z:    -0.8440     Total:     3.0366

*** Psi4 exiting successfully. Buy a developer a beer!
