                               Psi4 1.4a3.dev225

  ==> Input File <==

--------------------------------------------------------------------------
#psi4
#
memory 32 gb

molecule  {
0 1
  O       -1.3621950    -1.7118670    -1.0487160
  O        1.3250660    -1.5098260    -0.8661080
  O       -3.0202870    -0.6972320     0.8011600
  O        1.4000820    -0.3698310     1.7931610
  O       -3.3935320     1.8007080    -0.1346550
  O        2.6070010     1.5395500    -0.9938350
  O        3.6924620     0.1319130     0.4259740
  C       -0.8211920    -0.9649900     0.0477000
  C        0.4956150    -0.4174700    -0.4760140
  C       -1.8427190     0.0633310     0.5156670
  C        1.2861160     0.3473610     0.5837090
  C       -2.1923660     1.1169960    -0.5276460
  C        2.6663270     0.6479390     0.0251960
  H       -0.5961560    -1.6455647     0.9048421
  H        0.3094840     0.2426950    -1.3366810
  H       -1.4776870     0.5490530     1.4357690
  H        0.7848540     1.2951930     0.8109900
  H       -2.4256530     0.6242850    -1.4728150
  H       -1.3693410     1.8242450    -0.6894300
  H       -2.2436880    -1.9988170    -0.7384990
  H        0.7382740    -2.1149450    -1.3600910
  H       -3.7555350    -0.0560060     0.7240450
  H        2.1352240    -0.9985780     1.6549180
  H       -3.1588320     2.4130520     0.5846580
  H        3.5236120     1.6268920    -1.3298730
units angstrom
no_reorient  #important for SAPT in psi4, default
symmetry c1  #important for SAPT in psi4, default
}

set PROPERTIES_ORIGIN ["COM"]
properties('MP2/aug-cc-pvtz', properties = ['dipole'])
--------------------------------------------------------------------------

    Molecular point group: c1
  Charge       = 0
  Multiplicity = 1
  Basis Set: AUG-CC-PVTZ
    Blend: AUG-CC-PVTZ
  Basis Set: (AUG-CC-PVTZ AUX)
    Blend: AUG-CC-PVTZ-JKFIT

    Orbital Energies [Eh]
    ---------------------

    Doubly Occupied:

       1A    -20.631457     2A    -20.592122     3A    -20.575275
       4A    -20.574669     5A    -20.573374     6A    -20.570391
       7A    -20.565091     8A    -11.401894     9A    -11.318253
      10A    -11.304495    11A    -11.302376    12A    -11.300535
      13A    -11.298020    14A     -1.476295    15A     -1.407802
      16A     -1.396343    17A     -1.383720    18A     -1.369567
      19A     -1.362517    20A     -1.350664    21A     -1.080131
      22A     -1.028148    23A     -0.960677    24A     -0.888034
      25A     -0.830492    26A     -0.802027    27A     -0.757395
      28A     -0.736499    29A     -0.725586    30A     -0.715222
      31A     -0.711982    32A     -0.683109    33A     -0.676290
      34A     -0.649929    35A     -0.640319    36A     -0.636787
      37A     -0.628045    38A     -0.607081    39A     -0.601477
      40A     -0.580859    41A     -0.552913    42A     -0.550136
      43A     -0.539425    44A     -0.534250    45A     -0.531034
      46A     -0.503202    47A     -0.495722    48A     -0.484538
      49A     -0.466381    50A     -0.459823    51A     -0.455519
      52A     -0.441987

  @DF-RHF Final Energy:  -758.52288918863019

   => Energetics <=

    Nuclear Repulsion Energy =            915.4689432657833095
    One-Electron Energy =               -2862.5639024708575562
    Two-Electron Energy =                1188.5720700164440586
    Total Energy =                       -758.5228891886301881
  Basis Set: (AUG-CC-PVTZ AUX)
    Blend: AUG-CC-PVTZ-RI
    Molecular point group: c1

    Geometry (in Angstrom), charge = 0, multiplicity = 1:

       Center              X                  Y                   Z               Mass
    ------------   -----------------  -----------------  -----------------  -----------------
         O           -1.400337558684    -1.702849706664    -1.052983276196    15.994914619570
         O            1.286923441316    -1.500808706664    -0.870375276196    15.994914619570
         O           -3.058429558684    -0.688214706664     0.796892723804    15.994914619570
         O            1.361939441316    -0.360813706664     1.788893723804    15.994914619570
         O           -3.431674558684     1.809725293336    -0.138922276196    15.994914619570
         O            2.568858441316     1.548567293336    -0.998102276196    15.994914619570
         O            3.654319441316     0.140930293336     0.421706723804    15.994914619570
         C           -0.859334558684    -0.955972706664     0.043432723804    12.000000000000
         C            0.457472441316    -0.408452706664    -0.480281276196    12.000000000000
         C           -1.880861558684     0.072348293336     0.511399723804    12.000000000000
         C            1.247973441316     0.356378293336     0.579441723804    12.000000000000
         C           -2.230508558684     1.126013293336    -0.531913276196    12.000000000000
         C            2.628184441316     0.656956293336     0.020928723804    12.000000000000
         H           -0.634298558684    -1.636547406664     0.900574823804     1.007825032230
         H            0.271341441316     0.251712293336    -1.340948276196     1.007825032230
         H           -1.515829558684     0.558070293336     1.431501723804     1.007825032230
         H            0.746711441316     1.304210293336     0.806722723804     1.007825032230
         H           -2.463795558684     0.633302293336    -1.477082276196     1.007825032230
         H           -1.407483558684     1.833262293336    -0.693697276196     1.007825032230
         H           -2.281830558684    -1.989799706664    -0.742766276196     1.007825032230
         H            0.700131441316    -2.105927706664    -1.364358276196     1.007825032230
         H           -3.793677558684    -0.046988706664     0.719777723804     1.007825032230
         H            2.097081441316    -0.989560706664     1.650650723804     1.007825032230
         H           -3.196974558684     2.422069293336     0.580390723804     1.007825032230
         H            3.485469441316     1.635909293336    -1.334140276196     1.007825032230

  Basis Set: AUG-CC-PVTZ
    Blend: AUG-CC-PVTZ
  Basis Set: (AUG-CC-PVTZ AUX)
    Blend: AUG-CC-PVTZ-JKFIT
	 Reference Energy          =    -758.5228891886301881 [Eh]
	 Singles Energy            =      -0.0000000000000000 [Eh]
	 Same-Spin Energy          =      -0.7343825584437130 [Eh]
	 Opposite-Spin Energy      =      -2.2312138422045287 [Eh]
	 Correlation Energy        =      -2.9655964006482418 [Eh]
	 Total Energy              =    -761.4884855892784117 [Eh]

	 ================> DF-SCS-MP2 Energies <==================
	-----------------------------------------------------------
	 SCS Same-Spin Scale       =       0.3333333333333333 [-]
	 SCS Opposite-Spin Scale   =       1.2000000000000000 [-]
	 SCS Same-Spin Energy      =      -0.2447941861479043 [Eh]
	 SCS Opposite-Spin Energy  =      -2.6774566106454345 [Eh]
	 SCS Correlation Energy    =      -2.9222507967933389 [Eh]
	 SCS Total Energy          =    -761.4451399854235660 [Eh]
	-----------------------------------------------------------

  Dipole Moment: [D]
     X:    -1.2161      Y:     2.6783      Z:    -0.8098     Total:     3.0509

*** Psi4 exiting successfully. Buy a developer a beer!
