                               Psi4 1.4a3.dev225

  ==> Input File <==

--------------------------------------------------------------------------
#psi4
#
memory 32 gb

molecule  {
0 1
  O       -1.3621950    -1.7118670    -1.0487160
  O        1.3250660    -1.5098260    -0.8661080
  O       -3.0202870    -0.6972320     0.8011600
  O        1.4000820    -0.3698310     1.7931610
  O       -3.3935320     1.8007080    -0.1346550
  O        2.6070010     1.5395500    -0.9938350
  O        3.6924620     0.1319130     0.4259740
  C       -0.8211920    -0.9649900     0.0477000
  C        0.4956150    -0.4174700    -0.4760140
  C       -1.8427190     0.0633310     0.5156670
  C        1.2861160     0.3473610     0.5837090
  C       -2.1923660     1.1169960    -0.5276460
  C        2.4976234     0.7327772    -0.0406946
  H       -0.6001840    -1.6333830     0.8895000
  H        0.3094840     0.2426950    -1.3366810
  H       -1.4776870     0.5490530     1.4357690
  H        0.7848540     1.2951930     0.8109900
  H       -2.4256530     0.6242850    -1.4728150
  H       -1.3693410     1.8242450    -0.6894300
  H       -2.2436880    -1.9988170    -0.7384990
  H        0.7382740    -2.1149450    -1.3600910
  H       -3.7555350    -0.0560060     0.7240450
  H        2.1352240    -0.9985780     1.6549180
  H       -3.1588320     2.4130520     0.5846580
  H        3.5236120     1.6268920    -1.3298730
units angstrom
no_reorient  #important for SAPT in psi4, default
symmetry c1  #important for SAPT in psi4, default
}

set PROPERTIES_ORIGIN ["COM"]
properties('MP2/aug-cc-pvtz', properties = ['dipole'])
--------------------------------------------------------------------------

    Molecular point group: c1
  Charge       = 0
  Multiplicity = 1
  Basis Set: AUG-CC-PVTZ
    Blend: AUG-CC-PVTZ
  Basis Set: (AUG-CC-PVTZ AUX)
    Blend: AUG-CC-PVTZ-JKFIT

    Orbital Energies [Eh]
    ---------------------

    Doubly Occupied:

       1A    -20.663151     2A    -20.595467     3A    -20.579642
       4A    -20.578414     5A    -20.576714     6A    -20.574040
       7A    -20.525754     8A    -11.414799     9A    -11.324078
      10A    -11.313755    11A    -11.305866    12A    -11.304510
      13A    -11.300197    14A     -1.521658    15A     -1.411782
      16A     -1.400323    17A     -1.384692    18A     -1.369405
      19A     -1.354276    20A     -1.254625    21A     -1.098719
      22A     -1.050324    23A     -0.975029    24A     -0.904155
      25A     -0.866404    26A     -0.812068    27A     -0.770686
      28A     -0.753781    29A     -0.730935    30A     -0.719106
      31A     -0.717679    32A     -0.687235    33A     -0.681551
      34A     -0.669323    35A     -0.644975    36A     -0.635773
      37A     -0.632780    38A     -0.608138    39A     -0.589784
      40A     -0.574631    41A     -0.553751    42A     -0.550562
      43A     -0.540629    44A     -0.538004    45A     -0.517509
      46A     -0.507222    47A     -0.476381    48A     -0.470961
      49A     -0.461550    50A     -0.450055    51A     -0.435554
      52A     -0.426045

  @DF-RHF Final Energy:  -758.45489066969753

   => Energetics <=

    Nuclear Repulsion Energy =            916.6287890218881103
    One-Electron Energy =               -2864.5584684997629665
    Two-Electron Energy =                1189.4747888081772089
    Total Energy =                       -758.4548906696975337
  Basis Set: (AUG-CC-PVTZ AUX)
    Blend: AUG-CC-PVTZ-RI
    Molecular point group: c1

    Geometry (in Angstrom), charge = 0, multiplicity = 1:

       Center              X                  Y                   Z               Mass
    ------------   -----------------  -----------------  -----------------  -----------------
         O           -1.389991132692    -1.708104956800    -1.048871492399    15.994914619570
         O            1.297269867308    -1.506063956800    -0.866263492399    15.994914619570
         O           -3.048083132692    -0.693469956800     0.801004507601    15.994914619570
         O            1.372285867308    -0.366068956800     1.793005507601    15.994914619570
         O           -3.421328132692     1.804470043200    -0.134810492399    15.994914619570
         O            2.579204867308     1.543312043200    -0.993990492399    15.994914619570
         O            3.664665867308     0.135675043200     0.425818507601    15.994914619570
         C           -0.848988132692    -0.961227956800     0.047544507601    12.000000000000
         C            0.467818867308    -0.413707956800    -0.476169492399    12.000000000000
         C           -1.870515132692     0.067093043200     0.515511507601    12.000000000000
         C            1.258319867308     0.351123043200     0.583553507601    12.000000000000
         C           -2.220162132692     1.120758043200    -0.527801492399    12.000000000000
         C            2.469827267308     0.736539243200    -0.040850092399    12.000000000000
         H           -0.627980132692    -1.629620956800     0.889344507601     1.007825032230
         H            0.281687867308     0.246457043200    -1.336836492399     1.007825032230
         H           -1.505483132692     0.552815043200     1.435613507601     1.007825032230
         H            0.757057867308     1.298955043200     0.810834507601     1.007825032230
         H           -2.453449132692     0.628047043200    -1.472970492399     1.007825032230
         H           -1.397137132692     1.828007043200    -0.689585492399     1.007825032230
         H           -2.271484132692    -1.995054956800    -0.738654492399     1.007825032230
         H            0.710477867308    -2.111182956800    -1.360246492399     1.007825032230
         H           -3.783331132692    -0.052243956800     0.723889507601     1.007825032230
         H            2.107427867308    -0.994815956800     1.654762507601     1.007825032230
         H           -3.186628132692     2.416814043200     0.584502507601     1.007825032230
         H            3.495815867308     1.630654043200    -1.330028492399     1.007825032230

  Basis Set: AUG-CC-PVTZ
    Blend: AUG-CC-PVTZ
  Basis Set: (AUG-CC-PVTZ AUX)
    Blend: AUG-CC-PVTZ-JKFIT
	 Reference Energy          =    -758.4548906696975337 [Eh]
	 Singles Energy            =      -0.0000000000000000 [Eh]
	 Same-Spin Energy          =      -0.7391661967436252 [Eh]
	 Opposite-Spin Energy      =      -2.2390869380264080 [Eh]
	 Correlation Energy        =      -2.9782531347700330 [Eh]
	 Total Energy              =    -761.4331438044675906 [Eh]

	 ================> DF-SCS-MP2 Energies <==================
	-----------------------------------------------------------
	 SCS Same-Spin Scale       =       0.3333333333333333 [-]
	 SCS Opposite-Spin Scale   =       1.2000000000000000 [-]
	 SCS Same-Spin Energy      =      -0.2463887322478751 [Eh]
	 SCS Opposite-Spin Energy  =      -2.6869043256316893 [Eh]
	 SCS Correlation Energy    =      -2.9332930578795642 [Eh]
	 SCS Total Energy          =    -761.3881837275771431 [Eh]
	-----------------------------------------------------------

  Dipole Moment: [D]
     X:    -2.1270      Y:     3.2180      Z:    -1.4192     Total:     4.1102

*** Psi4 exiting successfully. Buy a developer a beer!
