                               Psi4 1.4a3.dev225

  ==> Input File <==

--------------------------------------------------------------------------
#psi4
#
memory 32 gb

molecule  {
0 1
  O       -1.3621950    -1.7118670    -1.0487160
  O        1.3250660    -1.5098260    -0.8661080
  O       -3.0202870    -0.6972320     0.8011600
  O        1.4000820    -0.3698310     1.7931610
  O       -3.3935320     1.8007080    -0.1346550
  O        2.6070010     1.5395500    -0.9938350
  O        3.6924620     0.1319130     0.4259740
  C       -0.8211920    -0.9649900     0.0477000
  C        0.4956150    -0.4174700    -0.4760140
  C       -1.8427190     0.0633310     0.5156670
  C        1.2861160     0.3473610     0.5837090
  C       -2.1923660     1.1169960    -0.5276460
  C        2.6663270     0.6479390     0.0251960
  H       -0.6001840    -1.6333830     0.8895000
  H        0.3094840     0.2426950    -1.3366810
  H       -1.4776870     0.5490530     1.4357690
  H        0.7848540     1.2951930     0.8109900
  H       -2.4256530     0.6242850    -1.4728150
  H       -1.3693410     1.8242450    -0.6894300
  H       -2.2436880    -1.9988170    -0.7384990
  H        0.7382740    -2.1149450    -1.3600910
  H       -3.7555350    -0.0560060     0.7240450
  H        2.1352240    -0.9985780     1.6549180
  H       -3.1588320     2.4130520     0.5846580
  H        3.5423152     1.6286742    -1.3367298
units angstrom
no_reorient  #important for SAPT in psi4, default
symmetry c1  #important for SAPT in psi4, default
}

set PROPERTIES_ORIGIN ["COM"]
properties('MP2/aug-cc-pvtz', properties = ['dipole'])
--------------------------------------------------------------------------

    Molecular point group: c1
  Charge       = 0
  Multiplicity = 1
  Basis Set: AUG-CC-PVTZ
    Blend: AUG-CC-PVTZ
  Basis Set: (AUG-CC-PVTZ AUX)
    Blend: AUG-CC-PVTZ-JKFIT

    Orbital Energies [Eh]
    ---------------------

    Doubly Occupied:

       1A    -20.632586     2A    -20.591984     3A    -20.575218
       4A    -20.574668     5A    -20.573022     6A    -20.570298
       7A    -20.564694     8A    -11.401496     9A    -11.318150
      10A    -11.304215    11A    -11.302152    12A    -11.300358
      13A    -11.295738    14A     -1.473567    15A     -1.407662
      16A     -1.395900    17A     -1.383152    18A     -1.368961
      19A     -1.361932    20A     -1.350506    21A     -1.080173
      22A     -1.027672    23A     -0.960831    24A     -0.887568
      25A     -0.828359    26A     -0.802352    27A     -0.757585
      28A     -0.735852    29A     -0.724763    30A     -0.715197
      31A     -0.711553    32A     -0.682962    33A     -0.676132
      34A     -0.649483    35A     -0.639810    36A     -0.636216
      37A     -0.628420    38A     -0.606517    39A     -0.601774
      40A     -0.580798    41A     -0.553016    42A     -0.550036
      43A     -0.539246    44A     -0.534177    45A     -0.530967
      46A     -0.503205    47A     -0.495163    48A     -0.484285
      49A     -0.466330    50A     -0.459837    51A     -0.455385
      52A     -0.442738

  @DF-RHF Final Energy:  -758.52196770948694

   => Energetics <=

    Nuclear Repulsion Energy =            915.4505006978224628
    One-Electron Energy =               -2862.5556130926961487
    Two-Electron Energy =                1188.5831446853867419
    Total Energy =                       -758.5219677094869439
  Basis Set: (AUG-CC-PVTZ AUX)
    Blend: AUG-CC-PVTZ-RI
    Molecular point group: c1

    Geometry (in Angstrom), charge = 0, multiplicity = 1:

       Center              X                  Y                   Z               Mass
    ------------   -----------------  -----------------  -----------------  -----------------
         O           -1.400412995601    -1.702921487189    -1.052869164185    15.994914619570
         O            1.286848004399    -1.500880487189    -0.870261164185    15.994914619570
         O           -3.058504995601    -0.688286487189     0.797006835815    15.994914619570
         O            1.361864004399    -0.360885487189     1.789007835815    15.994914619570
         O           -3.431749995601     1.809653512811    -0.138808164185    15.994914619570
         O            2.568783004399     1.548495512811    -0.997988164185    15.994914619570
         O            3.654244004399     0.140858512811     0.421820835815    15.994914619570
         C           -0.859409995601    -0.956044487189     0.043546835815    12.000000000000
         C            0.457397004399    -0.408524487189    -0.480167164185    12.000000000000
         C           -1.880936995601     0.072276512811     0.511513835815    12.000000000000
         C            1.247898004399     0.356306512811     0.579555835815    12.000000000000
         C           -2.230583995601     1.125941512811    -0.531799164185    12.000000000000
         C            2.628109004399     0.656884512811     0.021042835815    12.000000000000
         H           -0.638401995601    -1.624437487189     0.885346835815     1.007825032230
         H            0.271266004399     0.251640512811    -1.340834164185     1.007825032230
         H           -1.515904995601     0.557998512811     1.431615835815     1.007825032230
         H            0.746636004399     1.304138512811     0.806836835815     1.007825032230
         H           -2.463870995601     0.633230512811    -1.476968164185     1.007825032230
         H           -1.407558995601     1.833190512811    -0.693583164185     1.007825032230
         H           -2.281905995601    -1.989871487189    -0.742652164185     1.007825032230
         H            0.700056004399    -2.105999487189    -1.364244164185     1.007825032230
         H           -3.793752995601    -0.047060487189     0.719891835815     1.007825032230
         H            2.097006004399    -0.989632487189     1.650764835815     1.007825032230
         H           -3.197049995601     2.421997512811     0.580504835815     1.007825032230
         H            3.504097204399     1.637619712811    -1.340882964185     1.007825032230

  Basis Set: AUG-CC-PVTZ
    Blend: AUG-CC-PVTZ
  Basis Set: (AUG-CC-PVTZ AUX)
    Blend: AUG-CC-PVTZ-JKFIT
	 Reference Energy          =    -758.5219677094869439 [Eh]
	 Singles Energy            =      -0.0000000000000000 [Eh]
	 Same-Spin Energy          =      -0.7345742913962526 [Eh]
	 Opposite-Spin Energy      =      -2.2316026071254123 [Eh]
	 Correlation Energy        =      -2.9661768985216650 [Eh]
	 Total Energy              =    -761.4881446080086107 [Eh]

	 ================> DF-SCS-MP2 Energies <==================
	-----------------------------------------------------------
	 SCS Same-Spin Scale       =       0.3333333333333333 [-]
	 SCS Opposite-Spin Scale   =       1.2000000000000000 [-]
	 SCS Same-Spin Energy      =      -0.2448580971320842 [Eh]
	 SCS Opposite-Spin Energy  =      -2.6779231285504945 [Eh]
	 SCS Correlation Energy    =      -2.9227812256825789 [Eh]
	 SCS Total Energy          =    -761.4447489351695140 [Eh]
	-----------------------------------------------------------

  Dipole Moment: [D]
     X:    -1.1903      Y:     2.6826      Z:    -0.8168     Total:     3.0464

*** Psi4 exiting successfully. Buy a developer a beer!
