                               Psi4 1.4a3.dev225

  ==> Input File <==

--------------------------------------------------------------------------
#psi4
#
memory 32 gb

molecule  {
0 1
  O       -1.3621950    -1.7118670    -1.0487160
  O        1.3250660    -1.5098260    -0.8661080
  O       -3.0202870    -0.6972320     0.8011600
  O        1.4000820    -0.3698310     1.7931610
  O       -3.3935320     1.8007080    -0.1346550
  O        2.6070010     1.5395500    -0.9938350
  O        3.6924620     0.1319130     0.4259740
  C       -0.8211920    -0.9649900     0.0477000
  C        0.4956150    -0.4174700    -0.4760140
  C       -1.9250316     0.0101672     0.5356231
  C        1.2861160     0.3473610     0.5837090
  C       -2.1923660     1.1169960    -0.5276460
  C        2.6663270     0.6479390     0.0251960
  H       -0.6001840    -1.6333830     0.8895000
  H        0.3094840     0.2426950    -1.3366810
  H       -1.4776870     0.5490530     1.4357690
  H        0.7848540     1.2951930     0.8109900
  H       -2.4256530     0.6242850    -1.4728150
  H       -1.3693410     1.8242450    -0.6894300
  H       -2.2436880    -1.9988170    -0.7384990
  H        0.7382740    -2.1149450    -1.3600910
  H       -3.7555350    -0.0560060     0.7240450
  H        2.1352240    -0.9985780     1.6549180
  H       -3.1588320     2.4130520     0.5846580
  H        3.5236120     1.6268920    -1.3298730
units angstrom
no_reorient  #important for SAPT in psi4, default
symmetry c1  #important for SAPT in psi4, default
}

set PROPERTIES_ORIGIN ["COM"]
properties('MP2/aug-cc-pvtz', properties = ['dipole'])
--------------------------------------------------------------------------

    Molecular point group: c1
  Charge       = 0
  Multiplicity = 1
  Basis Set: AUG-CC-PVTZ
    Blend: AUG-CC-PVTZ
  Basis Set: (AUG-CC-PVTZ AUX)
    Blend: AUG-CC-PVTZ-JKFIT

    Orbital Energies [Eh]
    ---------------------

    Doubly Occupied:

       1A    -20.630392     2A    -20.590270     3A    -20.586260
       4A    -20.573050     5A    -20.571446     6A    -20.570153
       7A    -20.563940     8A    -11.400615     9A    -11.316523
      10A    -11.303990    11A    -11.303638    12A    -11.298061
      13A    -11.293171    14A     -1.475186    15A     -1.434317
      16A     -1.397407    17A     -1.382554    18A     -1.377635
      19A     -1.364096    20A     -1.354022    21A     -1.072823
      22A     -1.020334    23A     -0.956095    24A     -0.889124
      25A     -0.829688    26A     -0.802516    27A     -0.758692
      28A     -0.736377    29A     -0.729469    30A     -0.718879
      31A     -0.714723    32A     -0.692023    33A     -0.677260
      34A     -0.649529    35A     -0.644354    36A     -0.636413
      37A     -0.628086    38A     -0.607028    39A     -0.603379
      40A     -0.582319    41A     -0.562243    42A     -0.550430
      43A     -0.542573    44A     -0.537531    45A     -0.528945
      46A     -0.503238    47A     -0.494718    48A     -0.482450
      49A     -0.461000    50A     -0.455417    51A     -0.444338
      52A     -0.433241

  @DF-RHF Final Energy:  -758.51545612842619

   => Energetics <=

    Nuclear Repulsion Energy =            915.4971557228168422
    One-Electron Energy =               -2862.5612999443569606
    Two-Electron Energy =                1188.5486880931139240
    Total Energy =                       -758.5154561284261945
  Basis Set: (AUG-CC-PVTZ AUX)
    Blend: AUG-CC-PVTZ-RI
    Molecular point group: c1

    Geometry (in Angstrom), charge = 0, multiplicity = 1:

       Center              X                  Y                   Z               Mass
    ------------   -----------------  -----------------  -----------------  -----------------
         O           -1.395278804704    -1.699658367306    -1.054125849831    15.994914619570
         O            1.291982195296    -1.497617367306    -0.871517849831    15.994914619570
         O           -3.053370804704    -0.685023367306     0.795750150169    15.994914619570
         O            1.366998195296    -0.357622367306     1.787751150169    15.994914619570
         O           -3.426615804704     1.812916632694    -0.140064849831    15.994914619570
         O            2.573917195296     1.551758632694    -0.999244849831    15.994914619570
         O            3.659378195296     0.144121632694     0.420564150169    15.994914619570
         C           -0.854275804704    -0.952781367306     0.042290150169    12.000000000000
         C            0.462531195296    -0.405261367306    -0.481423849831    12.000000000000
         C           -1.958115404704     0.022375832694     0.530213250169    12.000000000000
         C            1.253032195296     0.359569632694     0.578299150169    12.000000000000
         C           -2.225449804704     1.129204632694    -0.533055849831    12.000000000000
         C            2.633243195296     0.660147632694     0.019786150169    12.000000000000
         H           -0.633267804704    -1.621174367306     0.884090150169     1.007825032230
         H            0.276400195296     0.254903632694    -1.342090849831     1.007825032230
         H           -1.510770804704     0.561261632694     1.430359150169     1.007825032230
         H            0.751770195296     1.307401632694     0.805580150169     1.007825032230
         H           -2.458736804704     0.636493632694    -1.478224849831     1.007825032230
         H           -1.402424804704     1.836453632694    -0.694839849831     1.007825032230
         H           -2.276771804704    -1.986608367306    -0.743908849831     1.007825032230
         H            0.705190195296    -2.102736367306    -1.365500849831     1.007825032230
         H           -3.788618804704    -0.043797367306     0.718635150169     1.007825032230
         H            2.102140195296    -0.986369367306     1.649508150169     1.007825032230
         H           -3.191915804704     2.425260632694     0.579248150169     1.007825032230
         H            3.490528195296     1.639100632694    -1.335282849831     1.007825032230

  Basis Set: AUG-CC-PVTZ
    Blend: AUG-CC-PVTZ
  Basis Set: (AUG-CC-PVTZ AUX)
    Blend: AUG-CC-PVTZ-JKFIT
	 Reference Energy          =    -758.5154561284261945 [Eh]
	 Singles Energy            =      -0.0000000000000000 [Eh]
	 Same-Spin Energy          =      -0.7342121145140859 [Eh]
	 Opposite-Spin Energy      =      -2.2297899630530318 [Eh]
	 Correlation Energy        =      -2.9640020775671179 [Eh]
	 Total Energy              =    -761.4794582059932964 [Eh]

	 ================> DF-SCS-MP2 Energies <==================
	-----------------------------------------------------------
	 SCS Same-Spin Scale       =       0.3333333333333333 [-]
	 SCS Opposite-Spin Scale   =       1.2000000000000000 [-]
	 SCS Same-Spin Energy      =      -0.2447373715046953 [Eh]
	 SCS Opposite-Spin Energy  =      -2.6757479556636379 [Eh]
	 SCS Correlation Energy    =      -2.9204853271683331 [Eh]
	 SCS Total Energy          =    -761.4359414555945023 [Eh]
	-----------------------------------------------------------

  Dipole Moment: [D]
     X:    -1.5171      Y:     2.5181      Z:    -0.7619     Total:     3.0370

*** Psi4 exiting successfully. Buy a developer a beer!
