                               Psi4 1.4a3.dev225

  ==> Input File <==

--------------------------------------------------------------------------
#psi4
#
memory 32 gb

molecule  {
0 1
  O       -1.3621950    -1.7118670    -1.0487160
  O        1.3250660    -1.5098260    -0.8661080
  O       -3.0202870    -0.6972320     0.8011600
  O        1.4000820    -0.3698310     1.7931610
  O       -3.3935320     1.8007080    -0.1346550
  O        2.6070010     1.5395500    -0.9938350
  O        3.6924620     0.1319130     0.4259740
  C       -0.8211920    -0.9649900     0.0477000
  C        0.4374477    -0.3408658    -0.4486577
  C       -1.8427190     0.0633310     0.5156670
  C        1.2861160     0.3473610     0.5837090
  C       -2.1923660     1.1169960    -0.5276460
  C        2.6663270     0.6479390     0.0251960
  H       -0.6001840    -1.6333830     0.8895000
  H        0.3094840     0.2426950    -1.3366810
  H       -1.4776870     0.5490530     1.4357690
  H        0.7848540     1.2951930     0.8109900
  H       -2.4256530     0.6242850    -1.4728150
  H       -1.3693410     1.8242450    -0.6894300
  H       -2.2436880    -1.9988170    -0.7384990
  H        0.7382740    -2.1149450    -1.3600910
  H       -3.7555350    -0.0560060     0.7240450
  H        2.1352240    -0.9985780     1.6549180
  H       -3.1588320     2.4130520     0.5846580
  H        3.5236120     1.6268920    -1.3298730
units angstrom
no_reorient  #important for SAPT in psi4, default
symmetry c1  #important for SAPT in psi4, default
}

set PROPERTIES_ORIGIN ["COM"]
properties('MP2/aug-cc-pvtz', properties = ['dipole'])
--------------------------------------------------------------------------

    Molecular point group: c1
  Charge       = 0
  Multiplicity = 1
  Basis Set: AUG-CC-PVTZ
    Blend: AUG-CC-PVTZ
  Basis Set: (AUG-CC-PVTZ AUX)
    Blend: AUG-CC-PVTZ-JKFIT

    Orbital Energies [Eh]
    ---------------------

    Doubly Occupied:

       1A    -20.632524     2A    -20.593597     3A    -20.576651
       4A    -20.575956     5A    -20.574689     6A    -20.566171
       7A    -20.559074     8A    -11.404408     9A    -11.321187
      10A    -11.305446    11A    -11.303005    12A    -11.302249
      13A    -11.298485    14A     -1.477236    15A     -1.407352
      16A     -1.393553    17A     -1.383311    18A     -1.367266
      19A     -1.359366    20A     -1.329816    21A     -1.091177
      22A     -1.031944    23A     -0.965806    24A     -0.890890
      25A     -0.834179    26A     -0.801356    27A     -0.755028
      28A     -0.739092    29A     -0.726387    30A     -0.716867
      31A     -0.714582    32A     -0.683114    33A     -0.673316
      34A     -0.645311    35A     -0.641299    36A     -0.634612
      37A     -0.626284    38A     -0.608442    39A     -0.602088
      40A     -0.579344    41A     -0.551531    42A     -0.549201
      43A     -0.539678    44A     -0.534560    45A     -0.520752
      46A     -0.502607    47A     -0.495648    48A     -0.484836
      49A     -0.470610    50A     -0.464550    51A     -0.455814
      52A     -0.448665

  @DF-RHF Final Energy:  -758.51265773740658

   => Energetics <=

    Nuclear Repulsion Energy =            915.5207237687367297
    One-Electron Energy =               -2862.6449356340040140
    Two-Electron Energy =                1188.6115541278604724
    Total Energy =                       -758.5126577374066983
  Basis Set: (AUG-CC-PVTZ AUX)
    Blend: AUG-CC-PVTZ-RI
    Molecular point group: c1

    Geometry (in Angstrom), charge = 0, multiplicity = 1:

       Center              X                  Y                   Z               Mass
    ------------   -----------------  -----------------  -----------------  -----------------
         O           -1.396756648773    -1.707600984264    -1.054578788568    15.994914619570
         O            1.290504351227    -1.505559984264    -0.871970788568    15.994914619570
         O           -3.054848648773    -0.692965984264     0.795297211432    15.994914619570
         O            1.365520351227    -0.365564984264     1.787298211432    15.994914619570
         O           -3.428093648773     1.804974015736    -0.140517788568    15.994914619570
         O            2.572439351227     1.543816015736    -0.999697788568    15.994914619570
         O            3.657900351227     0.136179015736     0.420111211432    15.994914619570
         C           -0.855753648773    -0.960723984264     0.041837211432    12.000000000000
         C            0.402886051227    -0.336599784264    -0.454520488568    12.000000000000
         C           -1.877280648773     0.067597015736     0.509804211432    12.000000000000
         C            1.251554351227     0.351627015736     0.577846211432    12.000000000000
         C           -2.226927648773     1.121262015736    -0.533508788568    12.000000000000
         C            2.631765351227     0.652205015736     0.019333211432    12.000000000000
         H           -0.634745648773    -1.629116984264     0.883637211432     1.007825032230
         H            0.274922351227     0.246961015736    -1.342543788568     1.007825032230
         H           -1.512248648773     0.553319015736     1.429906211432     1.007825032230
         H            0.750292351227     1.299459015736     0.805127211432     1.007825032230
         H           -2.460214648773     0.628551015736    -1.478677788568     1.007825032230
         H           -1.403902648773     1.828511015736    -0.695292788568     1.007825032230
         H           -2.278249648773    -1.994550984264    -0.744361788568     1.007825032230
         H            0.703712351227    -2.110678984264    -1.365953788568     1.007825032230
         H           -3.790096648773    -0.051739984264     0.718182211432     1.007825032230
         H            2.100662351227    -0.994311984264     1.649055211432     1.007825032230
         H           -3.193393648773     2.417318015736     0.578795211432     1.007825032230
         H            3.489050351227     1.631158015736    -1.335735788568     1.007825032230

  Basis Set: AUG-CC-PVTZ
    Blend: AUG-CC-PVTZ
  Basis Set: (AUG-CC-PVTZ AUX)
    Blend: AUG-CC-PVTZ-JKFIT
	 Reference Energy          =    -758.5126577374065846 [Eh]
	 Singles Energy            =      -0.0000000000000000 [Eh]
	 Same-Spin Energy          =      -0.7350811125963650 [Eh]
	 Opposite-Spin Energy      =      -2.2335662586713441 [Eh]
	 Correlation Energy        =      -2.9686473712677088 [Eh]
	 Total Energy              =    -761.4813051086742917 [Eh]

	 ================> DF-SCS-MP2 Energies <==================
	-----------------------------------------------------------
	 SCS Same-Spin Scale       =       0.3333333333333333 [-]
	 SCS Opposite-Spin Scale   =       1.2000000000000000 [-]
	 SCS Same-Spin Energy      =      -0.2450270375321217 [Eh]
	 SCS Opposite-Spin Energy  =      -2.6802795104056130 [Eh]
	 SCS Correlation Energy    =      -2.9253065479377347 [Eh]
	 SCS Total Energy          =    -761.4379642853442647 [Eh]
	-----------------------------------------------------------

  Dipole Moment: [D]
     X:    -1.3573      Y:     2.8994      Z:    -0.7057     Total:     3.2782

*** Psi4 exiting successfully. Buy a developer a beer!
