                               Psi4 1.4a3.dev225

  ==> Input File <==

--------------------------------------------------------------------------
#psi4
#
memory 32 gb

molecule  {
0 1
  O       -1.3621950    -1.7118670    -1.0487160
  O        1.3250660    -1.5098260    -0.8661080
  O       -3.0202870    -0.6972320     0.8011600
  O        1.4000820    -0.3698310     1.7931610
  O       -3.3935320     1.8007080    -0.1346550
  O        2.6070010     1.5395500    -0.9938350
  O        3.6924620     0.1319130     0.4259740
  C       -0.8211920    -0.9649900     0.0477000
  C        0.4956150    -0.4174700    -0.4760140
  C       -1.8427190     0.0633310     0.5156670
  C        1.2861160     0.3473610     0.5837090
  C       -2.2759598     1.1645782    -0.5002962
  C        2.6663270     0.6479390     0.0251960
  H       -0.6001840    -1.6333830     0.8895000
  H        0.3094840     0.2426950    -1.3366810
  H       -1.4776870     0.5490530     1.4357690
  H        0.7848540     1.2951930     0.8109900
  H       -2.4256530     0.6242850    -1.4728150
  H       -1.3693410     1.8242450    -0.6894300
  H       -2.2436880    -1.9988170    -0.7384990
  H        0.7382740    -2.1149450    -1.3600910
  H       -3.7555350    -0.0560060     0.7240450
  H        2.1352240    -0.9985780     1.6549180
  H       -3.1588320     2.4130520     0.5846580
  H        3.5236120     1.6268920    -1.3298730
units angstrom
no_reorient  #important for SAPT in psi4, default
symmetry c1  #important for SAPT in psi4, default
}

set PROPERTIES_ORIGIN ["COM"]
properties('MP2/aug-cc-pvtz', properties = ['dipole'])
--------------------------------------------------------------------------

    Molecular point group: c1
  Charge       = 0
  Multiplicity = 1
  Basis Set: AUG-CC-PVTZ
    Blend: AUG-CC-PVTZ
  Basis Set: (AUG-CC-PVTZ AUX)
    Blend: AUG-CC-PVTZ-JKFIT

    Orbital Energies [Eh]
    ---------------------

    Doubly Occupied:

       1A    -20.630232     2A    -20.602913     3A    -20.573474
       4A    -20.573338     5A    -20.571331     6A    -20.568927
       7A    -20.563906     8A    -11.400637     9A    -11.316604
      10A    -11.302771    11A    -11.302540    12A    -11.299366
      13A    -11.295118    14A     -1.475077    15A     -1.435984
      16A     -1.400517    17A     -1.387029    18A     -1.371767
      19A     -1.362293    20A     -1.349950    21A     -1.075636
      22A     -1.021000    23A     -0.956620    24A     -0.887432
      25A     -0.829996    26A     -0.803301    27A     -0.761489
      28A     -0.736811    29A     -0.725495    30A     -0.724869
      31A     -0.711589    32A     -0.687848    33A     -0.675864
      34A     -0.648778    35A     -0.642406    36A     -0.638963
      37A     -0.634473    38A     -0.614878    39A     -0.605635
      40A     -0.579856    41A     -0.557293    42A     -0.551517
      43A     -0.538025    44A     -0.531314    45A     -0.523005
      46A     -0.494630    47A     -0.492370    48A     -0.482883
      49A     -0.462003    50A     -0.458368    51A     -0.451909
      52A     -0.433330

  @DF-RHF Final Energy:  -758.51550292338413

   => Energetics <=

    Nuclear Repulsion Energy =            915.2942297000817007
    One-Electron Energy =               -2862.1727450975290594
    Two-Electron Energy =                1188.3630124740632255
    Total Energy =                       -758.5155029233840196
  Basis Set: (AUG-CC-PVTZ AUX)
    Blend: AUG-CC-PVTZ-RI
    Molecular point group: c1

    Geometry (in Angstrom), charge = 0, multiplicity = 1:

       Center              X                  Y                   Z               Mass
    ------------   -----------------  -----------------  -----------------  -----------------
         O           -1.395200387214    -1.705824655513    -1.054578390727    15.994914619570
         O            1.292060612786    -1.503783655513    -0.871970390727    15.994914619570
         O           -3.053292387214    -0.691189655513     0.795297609273    15.994914619570
         O            1.367076612786    -0.363788655513     1.787298609273    15.994914619570
         O           -3.426537387214     1.806750344487    -0.140517390727    15.994914619570
         O            2.573995612786     1.545592344487    -0.999697390727    15.994914619570
         O            3.659456612786     0.137955344487     0.420111609273    15.994914619570
         C           -0.854197387214    -0.958947655513     0.041837609273    12.000000000000
         C            0.462609612786    -0.411427655513    -0.481876390727    12.000000000000
         C           -1.875724387214     0.069373344487     0.509804609273    12.000000000000
         C            1.253110612786     0.353403344487     0.577846609273    12.000000000000
         C           -2.308965187214     1.170620544487    -0.506158590727    12.000000000000
         C            2.633321612786     0.653981344487     0.019333609273    12.000000000000
         H           -0.633189387214    -1.627340655513     0.883637609273     1.007825032230
         H            0.276478612786     0.248737344487    -1.342543390727     1.007825032230
         H           -1.510692387214     0.555095344487     1.429906609273     1.007825032230
         H            0.751848612786     1.301235344487     0.805127609273     1.007825032230
         H           -2.458658387214     0.630327344487    -1.478677390727     1.007825032230
         H           -1.402346387214     1.830287344487    -0.695292390727     1.007825032230
         H           -2.276693387214    -1.992774655513    -0.744361390727     1.007825032230
         H            0.705268612786    -2.108902655513    -1.365953390727     1.007825032230
         H           -3.788540387214    -0.049963655513     0.718182609273     1.007825032230
         H            2.102218612786    -0.992535655513     1.649055609273     1.007825032230
         H           -3.191837387214     2.419094344487     0.578795609273     1.007825032230
         H            3.490606612786     1.632934344487    -1.335735390727     1.007825032230

  Basis Set: AUG-CC-PVTZ
    Blend: AUG-CC-PVTZ
  Basis Set: (AUG-CC-PVTZ AUX)
    Blend: AUG-CC-PVTZ-JKFIT
	 Reference Energy          =    -758.5155029233841333 [Eh]
	 Singles Energy            =      -0.0000000000000000 [Eh]
	 Same-Spin Energy          =      -0.7342571734147442 [Eh]
	 Opposite-Spin Energy      =      -2.2297789774911148 [Eh]
	 Correlation Energy        =      -2.9640361509058590 [Eh]
	 Total Energy              =    -761.4795390742899599 [Eh]

	 ================> DF-SCS-MP2 Energies <==================
	-----------------------------------------------------------
	 SCS Same-Spin Scale       =       0.3333333333333333 [-]
	 SCS Opposite-Spin Scale   =       1.2000000000000000 [-]
	 SCS Same-Spin Energy      =      -0.2447523911382480 [Eh]
	 SCS Opposite-Spin Energy  =      -2.6757347729893377 [Eh]
	 SCS Correlation Energy    =      -2.9204871641275858 [Eh]
	 SCS Total Energy          =    -761.4359900875117546 [Eh]
	-----------------------------------------------------------

  Dipole Moment: [D]
     X:    -1.5417      Y:     2.8870      Z:    -0.7168     Total:     3.3504

*** Psi4 exiting successfully. Buy a developer a beer!
