                               Psi4 1.4a3.dev225

  ==> Input File <==

--------------------------------------------------------------------------
#psi4
#
memory 32 gb

molecule  {
0 1
  O       -1.3621950    -1.7118670    -1.0487160
  O        1.3250660    -1.5098260    -0.8661080
  O       -3.0202870    -0.6972320     0.8011600
  O        1.4000820    -0.3698310     1.7931610
  O       -3.3935320     1.8007080    -0.1346550
  O        2.6070010     1.5395500    -0.9938350
  O        3.6924620     0.1319130     0.4259740
  C       -0.8211920    -0.9649900     0.0477000
  C        0.4665313    -0.3791679    -0.4623358
  C       -1.8427190     0.0633310     0.5156670
  C        1.2861160     0.3473610     0.5837090
  C       -2.1923660     1.1169960    -0.5276460
  C        2.6663270     0.6479390     0.0251960
  H       -0.6001840    -1.6333830     0.8895000
  H        0.3094840     0.2426950    -1.3366810
  H       -1.4776870     0.5490530     1.4357690
  H        0.7848540     1.2951930     0.8109900
  H       -2.4256530     0.6242850    -1.4728150
  H       -1.3693410     1.8242450    -0.6894300
  H       -2.2436880    -1.9988170    -0.7384990
  H        0.7382740    -2.1149450    -1.3600910
  H       -3.7555350    -0.0560060     0.7240450
  H        2.1352240    -0.9985780     1.6549180
  H       -3.1588320     2.4130520     0.5846580
  H        3.5236120     1.6268920    -1.3298730
units angstrom
no_reorient  #important for SAPT in psi4, default
symmetry c1  #important for SAPT in psi4, default
}

set PROPERTIES_ORIGIN ["COM"]
properties('MP2/aug-cc-pvtz', properties = ['dipole'])
--------------------------------------------------------------------------

    Molecular point group: c1
  Charge       = 0
  Multiplicity = 1
  Basis Set: AUG-CC-PVTZ
    Blend: AUG-CC-PVTZ
  Basis Set: (AUG-CC-PVTZ AUX)
    Blend: AUG-CC-PVTZ-JKFIT

    Orbital Energies [Eh]
    ---------------------

    Doubly Occupied:

       1A    -20.632009     2A    -20.592807     3A    -20.575710
       4A    -20.575608     5A    -20.573881     6A    -20.565646
       7A    -20.564851     8A    -11.403157     9A    -11.319651
      10A    -11.304447    11A    -11.302553    12A    -11.301346
      13A    -11.297110    14A     -1.476772    15A     -1.407135
      16A     -1.394130    17A     -1.383218    18A     -1.367405
      19A     -1.360297    20A     -1.342396    21A     -1.085760
      22A     -1.030041    23A     -0.963635    24A     -0.889528
      25A     -0.832384    26A     -0.801498    27A     -0.756443
      28A     -0.737793    29A     -0.726040    30A     -0.716043
      31A     -0.713537    32A     -0.682959    33A     -0.674309
      34A     -0.646718    35A     -0.640969    36A     -0.635034
      37A     -0.628367    38A     -0.607311    39A     -0.601883
      40A     -0.579735    41A     -0.551180    42A     -0.550754
      43A     -0.539838    44A     -0.534521    45A     -0.526211
      46A     -0.503229    47A     -0.495869    48A     -0.484801
      49A     -0.468993    50A     -0.461973    51A     -0.456907
      52A     -0.446161

  @DF-RHF Final Energy:  -758.52007472691639

   => Energetics <=

    Nuclear Repulsion Energy =            915.5509326268229415
    One-Electron Energy =               -2862.7209089986486106
    Two-Electron Energy =                1188.6499016449092778
    Total Energy =                       -758.5200747269163912
  Basis Set: (AUG-CC-PVTZ AUX)
    Blend: AUG-CC-PVTZ-RI
    Molecular point group: c1

    Geometry (in Angstrom), charge = 0, multiplicity = 1:

       Center              X                  Y                   Z               Mass
    ------------   -----------------  -----------------  -----------------  -----------------
         O           -1.398536747831    -1.705256655085    -1.053741602905    15.994914619570
         O            1.288724252169    -1.503215655085    -0.871133602905    15.994914619570
         O           -3.056628747831    -0.690621655085     0.796134397095    15.994914619570
         O            1.363740252169    -0.363220655085     1.788135397095    15.994914619570
         O           -3.429873747831     1.807318344915    -0.139680602905    15.994914619570
         O            2.570659252169     1.546160344915    -0.998860602905    15.994914619570
         O            3.656120252169     0.138523344915     0.420948397095    15.994914619570
         C           -0.857533747831    -0.958379655085     0.042674397095    12.000000000000
         C            0.430189552169    -0.372557555085    -0.467361402905    12.000000000000
         C           -1.879060747831     0.069941344915     0.510641397095    12.000000000000
         C            1.249774252169     0.353971344915     0.578683397095    12.000000000000
         C           -2.228707747831     1.123606344915    -0.532671602905    12.000000000000
         C            2.629985252169     0.654549344915     0.020170397095    12.000000000000
         H           -0.636525747831    -1.626772655085     0.884474397095     1.007825032230
         H            0.273142252169     0.249305344915    -1.341706602905     1.007825032230
         H           -1.514028747831     0.555663344915     1.430743397095     1.007825032230
         H            0.748512252169     1.301803344915     0.805964397095     1.007825032230
         H           -2.461994747831     0.630895344915    -1.477840602905     1.007825032230
         H           -1.405682747831     1.830855344915    -0.694455602905     1.007825032230
         H           -2.280029747831    -1.992206655085    -0.743524602905     1.007825032230
         H            0.701932252169    -2.108334655085    -1.365116602905     1.007825032230
         H           -3.791876747831    -0.049395655085     0.719019397095     1.007825032230
         H            2.098882252169    -0.991967655085     1.649892397095     1.007825032230
         H           -3.195173747831     2.419662344915     0.579632397095     1.007825032230
         H            3.487270252169     1.633502344915    -1.334898602905     1.007825032230

  Basis Set: AUG-CC-PVTZ
    Blend: AUG-CC-PVTZ
  Basis Set: (AUG-CC-PVTZ AUX)
    Blend: AUG-CC-PVTZ-JKFIT
	 Reference Energy          =    -758.5200747269163912 [Eh]
	 Singles Energy            =      -0.0000000000000000 [Eh]
	 Same-Spin Energy          =      -0.7346031335980113 [Eh]
	 Opposite-Spin Energy      =      -2.2321220930419141 [Eh]
	 Correlation Energy        =      -2.9667252266399253 [Eh]
	 Total Energy              =    -761.4867999535563285 [Eh]

	 ================> DF-SCS-MP2 Energies <==================
	-----------------------------------------------------------
	 SCS Same-Spin Scale       =       0.3333333333333333 [-]
	 SCS Opposite-Spin Scale   =       1.2000000000000000 [-]
	 SCS Same-Spin Energy      =      -0.2448677111993371 [Eh]
	 SCS Opposite-Spin Energy  =      -2.6785465116502967 [Eh]
	 SCS Correlation Energy    =      -2.9234142228496336 [Eh]
	 SCS Total Energy          =    -761.4434889497659924 [Eh]
	-----------------------------------------------------------

  Dipole Moment: [D]
     X:    -1.2871      Y:     2.7925      Z:    -0.7545     Total:     3.1661

*** Psi4 exiting successfully. Buy a developer a beer!
