                               Psi4 1.4a3.dev225

  ==> Input File <==

--------------------------------------------------------------------------
#psi4
#
memory 32 gb

molecule  {
0 1
  O       -1.3621950    -1.7118670    -1.0487160
  O        1.3250660    -1.5098260    -0.8661080
  O       -3.0202870    -0.6972320     0.8011600
  O        1.4000820    -0.3698310     1.7931610
  O       -3.3935320     1.8007080    -0.1346550
  O        2.6070010     1.5395500    -0.9938350
  O        3.6924620     0.1319130     0.4259740
  C       -0.8211920    -0.9649900     0.0477000
  C        0.4956150    -0.4174700    -0.4760140
  C       -1.8427190     0.0633310     0.5156670
  C        1.2861160     0.3473610     0.5837090
  C       -2.1923660     1.1169960    -0.5276460
  C        2.6663270     0.6479390     0.0251960
  H       -0.6001840    -1.6333830     0.8895000
  H        0.3094840     0.2426950    -1.3366810
  H       -1.4776870     0.5490530     1.4357690
  H        0.7848540     1.2951930     0.8109900
  H       -2.4256530     0.6242850    -1.4728150
  H       -1.3693410     1.8242450    -0.6894300
  H       -2.2436880    -1.9988170    -0.7384990
  H        0.7382740    -2.1149450    -1.3600910
  H       -3.7555350    -0.0560060     0.7240450
  H        2.1352240    -0.9985780     1.6549180
  H       -3.1636544     2.4004701     0.5698782
  H        3.5236120     1.6268920    -1.3298730
units angstrom
no_reorient  #important for SAPT in psi4, default
symmetry c1  #important for SAPT in psi4, default
}

set PROPERTIES_ORIGIN ["COM"]
properties('MP2/aug-cc-pvtz', properties = ['dipole'])
--------------------------------------------------------------------------

    Molecular point group: c1
  Charge       = 0
  Multiplicity = 1
  Basis Set: AUG-CC-PVTZ
    Blend: AUG-CC-PVTZ
  Basis Set: (AUG-CC-PVTZ AUX)
    Blend: AUG-CC-PVTZ-JKFIT

    Orbital Energies [Eh]
    ---------------------

    Doubly Occupied:

       1A    -20.631476     2A    -20.590218     3A    -20.575415
       4A    -20.574821     5A    -20.573186     6A    -20.570476
       7A    -20.565125     8A    -11.401928     9A    -11.318298
      10A    -11.304410    11A    -11.302375    12A    -11.300643
      13A    -11.295932    14A     -1.476321    15A     -1.408987
      16A     -1.397459    17A     -1.384799    18A     -1.370455
      19A     -1.362909    20A     -1.350921    21A     -1.080589
      22A     -1.028580    23A     -0.962131    24A     -0.888901
      25A     -0.830860    26A     -0.803019    27A     -0.758498
      28A     -0.736761    29A     -0.725736    30A     -0.717633
      31A     -0.712722    32A     -0.683834    33A     -0.676593
      34A     -0.650034    35A     -0.640538    36A     -0.636992
      37A     -0.628929    38A     -0.607162    39A     -0.602377
      40A     -0.581132    41A     -0.553599    42A     -0.550386
      43A     -0.539742    44A     -0.534761    45A     -0.531373
      46A     -0.503740    47A     -0.495753    48A     -0.484598
      49A     -0.466550    50A     -0.460152    51A     -0.455587
      52A     -0.443031

  @DF-RHF Final Energy:  -758.52443755993545

   => Energetics <=

    Nuclear Repulsion Energy =            915.7076511892585131
    One-Electron Energy =               -2863.0072830889935176
    Two-Electron Energy =                1188.7751943397995547
    Total Energy =                       -758.5244375599354498
  Basis Set: (AUG-CC-PVTZ AUX)
    Blend: AUG-CC-PVTZ-RI
    Molecular point group: c1

    Geometry (in Angstrom), charge = 0, multiplicity = 1:

       Center              X                  Y                   Z               Mass
    ------------   -----------------  -----------------  -----------------  -----------------
         O           -1.400292063775    -1.702847649461    -1.052828436516    15.994914619570
         O            1.286968936225    -1.500806649461    -0.870220436516    15.994914619570
         O           -3.058384063775    -0.688212649461     0.797047563484    15.994914619570
         O            1.361984936225    -0.360811649461     1.789048563484    15.994914619570
         O           -3.431629063775     1.809727350539    -0.138767436516    15.994914619570
         O            2.568903936225     1.548569350539    -0.997947436516    15.994914619570
         O            3.654364936225     0.140932350539     0.421861563484    15.994914619570
         C           -0.859289063775    -0.955970649461     0.043587563484    12.000000000000
         C            0.457517936225    -0.408450649461    -0.480126436516    12.000000000000
         C           -1.880816063775     0.072350350539     0.511554563484    12.000000000000
         C            1.248018936225     0.356380350539     0.579596563484    12.000000000000
         C           -2.230463063775     1.126015350539    -0.531758436516    12.000000000000
         C            2.628229936225     0.656958350539     0.021083563484    12.000000000000
         H           -0.638281063775    -1.624363649461     0.885387563484     1.007825032230
         H            0.271386936225     0.251714350539    -1.340793436516     1.007825032230
         H           -1.515784063775     0.558072350539     1.431656563484     1.007825032230
         H            0.746756936225     1.304212350539     0.806877563484     1.007825032230
         H           -2.463750063775     0.633304350539    -1.476927436516     1.007825032230
         H           -1.407438063775     1.833264350539    -0.693542436516     1.007825032230
         H           -2.281785063775    -1.989797649461    -0.742611436516     1.007825032230
         H            0.700176936225    -2.105925649461    -1.364203436516     1.007825032230
         H           -3.793632063775    -0.046986649461     0.719932563484     1.007825032230
         H            2.097126936225    -0.989558649461     1.650805563484     1.007825032230
         H           -3.201751463775     2.409489450539     0.565765763484     1.007825032230
         H            3.485514936225     1.635911350539    -1.333985436516     1.007825032230

  Basis Set: AUG-CC-PVTZ
    Blend: AUG-CC-PVTZ
  Basis Set: (AUG-CC-PVTZ AUX)
    Blend: AUG-CC-PVTZ-JKFIT
	 Reference Energy          =    -758.5244375599354498 [Eh]
	 Singles Energy            =      -0.0000000000000000 [Eh]
	 Same-Spin Energy          =      -0.7340890343385615 [Eh]
	 Opposite-Spin Energy      =      -2.2303970520721657 [Eh]
	 Correlation Energy        =      -2.9644860864107274 [Eh]
	 Total Energy              =    -761.4889236463461657 [Eh]

	 ================> DF-SCS-MP2 Energies <==================
	-----------------------------------------------------------
	 SCS Same-Spin Scale       =       0.3333333333333333 [-]
	 SCS Opposite-Spin Scale   =       1.2000000000000000 [-]
	 SCS Same-Spin Energy      =      -0.2446963447795205 [Eh]
	 SCS Opposite-Spin Energy  =      -2.6764764624865989 [Eh]
	 SCS Correlation Energy    =      -2.9211728072661192 [Eh]
	 SCS Total Energy          =    -761.4456103672015388 [Eh]
	-----------------------------------------------------------

  Dipole Moment: [D]
     X:    -1.2107      Y:     2.6607      Z:    -0.8147     Total:     3.0346

*** Psi4 exiting successfully. Buy a developer a beer!
