                               Psi4 1.4a3.dev225

  ==> Input File <==

--------------------------------------------------------------------------
#psi4
#
memory 32 gb

molecule  {
0 1
  O       -1.3621950    -1.7118670    -1.0487160
  O        1.3250660    -1.5098260    -0.8661080
  O       -3.0202870    -0.6972320     0.8011600
  O        1.4000820    -0.3698310     1.7931610
  O       -3.3935320     1.8007080    -0.1346550
  O        2.6070010     1.5395500    -0.9938350
  O        3.6924620     0.1319130     0.4259740
  C       -0.8211920    -0.9649900     0.0477000
  C        0.4956150    -0.4174700    -0.4760140
  C       -1.8427190     0.0633310     0.5156670
  C        1.2861160     0.3473610     0.5837090
  C       -2.1923660     1.1169960    -0.5276460
  C        2.6663270     0.6479390     0.0251960
  H       -0.6001840    -1.6333830     0.8895000
  H        0.3094840     0.2426950    -1.3366810
  H       -1.4776870     0.5490530     1.4357690
  H        0.7848540     1.2951930     0.8109900
  H       -2.4256530     0.6242850    -1.4728150
  H       -1.3693410     1.8242450    -0.6894300
  H       -2.2436880    -1.9988170    -0.7384990
  H        0.7382740    -2.1149450    -1.3600910
  H       -3.6804043    -0.1215291     0.7319249
  H        2.1352240    -0.9985780     1.6549180
  H       -3.1588320     2.4130520     0.5846580
  H        3.5236120     1.6268920    -1.3298730
units angstrom
no_reorient  #important for SAPT in psi4, default
symmetry c1  #important for SAPT in psi4, default
}

set PROPERTIES_ORIGIN ["COM"]
properties('MP2/aug-cc-pvtz', properties = ['dipole'])
--------------------------------------------------------------------------

    Molecular point group: c1
  Charge       = 0
  Multiplicity = 1
  Basis Set: AUG-CC-PVTZ
    Blend: AUG-CC-PVTZ
  Basis Set: (AUG-CC-PVTZ AUX)
    Blend: AUG-CC-PVTZ-JKFIT

    Orbital Energies [Eh]
    ---------------------

    Doubly Occupied:

       1A    -20.631722     2A    -20.590310     3A    -20.575220
       4A    -20.573986     5A    -20.570896     6A    -20.568520
       7A    -20.565408     8A    -11.402226     9A    -11.318694
      10A    -11.304870    11A    -11.303818    12A    -11.300731
      13A    -11.296682    14A     -1.476586    15A     -1.419943
      16A     -1.398499    17A     -1.383723    18A     -1.375225
      19A     -1.365422    20A     -1.355096    21A     -1.082981
      22A     -1.031274    23A     -0.961788    24A     -0.893191
      25A     -0.832363    26A     -0.804504    27A     -0.761467
      28A     -0.737725    29A     -0.729785    30A     -0.716467
      31A     -0.714221    32A     -0.688830    33A     -0.678943
      34A     -0.650584    35A     -0.642542    36A     -0.637992
      37A     -0.629383    38A     -0.607659    39A     -0.602073
      40A     -0.582488    41A     -0.556847    42A     -0.553581
      43A     -0.540467    44A     -0.536169    45A     -0.532400
      46A     -0.503226    47A     -0.496025    48A     -0.485117
      49A     -0.468680    50A     -0.460709    51A     -0.456754
      52A     -0.443518

  @DF-RHF Final Energy:  -758.51944642127137

   => Energetics <=

    Nuclear Repulsion Energy =            916.2334893985481585
    One-Electron Energy =               -2863.9112160443100947
    Two-Electron Energy =                1189.1582802244906816
    Total Energy =                       -758.5194464212713683
  Basis Set: (AUG-CC-PVTZ AUX)
    Blend: AUG-CC-PVTZ-RI
    Molecular point group: c1

    Geometry (in Angstrom), charge = 0, multiplicity = 1:

       Center              X                  Y                   Z               Mass
    ------------   -----------------  -----------------  -----------------  -----------------
         O           -1.400703057517    -1.702575508645    -1.052944917239    15.994914619570
         O            1.286557942483    -1.500534508645    -0.870336917239    15.994914619570
         O           -3.058795057517    -0.687940508645     0.796931082761    15.994914619570
         O            1.361573942483    -0.360539508645     1.788932082761    15.994914619570
         O           -3.432040057517     1.809999491355    -0.138883917239    15.994914619570
         O            2.568492942483     1.548841491355    -0.998063917239    15.994914619570
         O            3.653953942483     0.141204491355     0.421745082761    15.994914619570
         C           -0.859700057517    -0.955698508645     0.043471082761    12.000000000000
         C            0.457106942483    -0.408178508645    -0.480242917239    12.000000000000
         C           -1.881227057517     0.072622491355     0.511438082761    12.000000000000
         C            1.247607942483     0.356652491355     0.579480082761    12.000000000000
         C           -2.230874057517     1.126287491355    -0.531874917239    12.000000000000
         C            2.627818942483     0.657230491355     0.020967082761    12.000000000000
         H           -0.638692057517    -1.624091508645     0.885271082761     1.007825032230
         H            0.270975942483     0.251986491355    -1.340909917239     1.007825032230
         H           -1.516195057517     0.558344491355     1.431540082761     1.007825032230
         H            0.746345942483     1.304484491355     0.806761082761     1.007825032230
         H           -2.464161057517     0.633576491355    -1.477043917239     1.007825032230
         H           -1.407849057517     1.833536491355    -0.693658917239     1.007825032230
         H           -2.282196057517    -1.989525508645    -0.742727917239     1.007825032230
         H            0.699765942483    -2.105653508645    -1.364319917239     1.007825032230
         H           -3.718912357517    -0.112237608645     0.727695982761     1.007825032230
         H            2.096715942483    -0.989286508645     1.650689082761     1.007825032230
         H           -3.197340057517     2.422343491355     0.580429082761     1.007825032230
         H            3.485103942483     1.636183491355    -1.334101917239     1.007825032230

  Basis Set: AUG-CC-PVTZ
    Blend: AUG-CC-PVTZ
  Basis Set: (AUG-CC-PVTZ AUX)
    Blend: AUG-CC-PVTZ-JKFIT
	 Reference Energy          =    -758.5194464212713683 [Eh]
	 Singles Energy            =      -0.0000000000000000 [Eh]
	 Same-Spin Energy          =      -0.7328434259878728 [Eh]
	 Opposite-Spin Energy      =      -2.2278623911938835 [Eh]
	 Correlation Energy        =      -2.9607058171817564 [Eh]
	 Total Energy              =    -761.4801522384531154 [Eh]

	 ================> DF-SCS-MP2 Energies <==================
	-----------------------------------------------------------
	 SCS Same-Spin Scale       =       0.3333333333333333 [-]
	 SCS Opposite-Spin Scale   =       1.2000000000000000 [-]
	 SCS Same-Spin Energy      =      -0.2442811419959576 [Eh]
	 SCS Opposite-Spin Energy  =      -2.6734348694326600 [Eh]
	 SCS Correlation Energy    =      -2.9177160114286176 [Eh]
	 SCS Total Energy          =    -761.4371624327000063 [Eh]
	-----------------------------------------------------------

  Dipole Moment: [D]
     X:    -1.1063      Y:     2.5864      Z:    -0.7891     Total:     2.9216

*** Psi4 exiting successfully. Buy a developer a beer!
