                               Psi4 1.4a3.dev225

  ==> Input File <==

--------------------------------------------------------------------------
#psi4
#
memory 32 gb

molecule  {
0 1
  O       -1.3621950    -1.7118670    -1.0487160
  O        1.3250660    -1.5098260    -0.8661080
  O       -3.0202870    -0.6972320     0.8011600
  O        1.4000820    -0.3698310     1.7931610
  O       -3.3935320     1.8007080    -0.1346550
  O        2.6070010     1.5395500    -0.9938350
  O        3.6924620     0.1319130     0.4259740
  C       -0.8211920    -0.9649900     0.0477000
  C        0.4956150    -0.4174700    -0.4760140
  C       -1.8427190     0.0633310     0.5156670
  C        1.2861160     0.3473610     0.5837090
  C       -2.1923660     1.1169960    -0.5276460
  C        2.6663270     0.6479390     0.0251960
  H       -0.6001840    -1.6333830     0.8895000
  H        0.3094840     0.2426950    -1.3366810
  H       -1.4776870     0.5490530     1.4357690
  H        0.7757072     1.3124886     0.8151373
  H       -2.4256530     0.6242850    -1.4728150
  H       -1.3693410     1.8242450    -0.6894300
  H       -2.2436880    -1.9988170    -0.7384990
  H        0.7382740    -2.1149450    -1.3600910
  H       -3.7555350    -0.0560060     0.7240450
  H        2.1352240    -0.9985780     1.6549180
  H       -3.1588320     2.4130520     0.5846580
  H        3.5236120     1.6268920    -1.3298730
units angstrom
no_reorient  #important for SAPT in psi4, default
symmetry c1  #important for SAPT in psi4, default
}

set PROPERTIES_ORIGIN ["COM"]
properties('MP2/aug-cc-pvtz', properties = ['dipole'])
--------------------------------------------------------------------------

    Molecular point group: c1
  Charge       = 0
  Multiplicity = 1
  Basis Set: AUG-CC-PVTZ
    Blend: AUG-CC-PVTZ
  Basis Set: (AUG-CC-PVTZ AUX)
    Blend: AUG-CC-PVTZ-JKFIT

    Orbital Energies [Eh]
    ---------------------

    Doubly Occupied:

       1A    -20.631408     2A    -20.591992     3A    -20.575229
       4A    -20.575090     5A    -20.573110     6A    -20.570546
       7A    -20.565204     8A    -11.402063     9A    -11.320601
      10A    -11.304505    11A    -11.302154    12A    -11.300356
      13A    -11.295843    14A     -1.476300    15A     -1.407792
      16A     -1.396438    17A     -1.383756    18A     -1.369594
      19A     -1.362621    20A     -1.350637    21A     -1.080044
      22A     -1.027555    23A     -0.961105    24A     -0.888198
      25A     -0.830054    26A     -0.801805    27A     -0.757647
      28A     -0.736660    29A     -0.725433    30A     -0.715202
      31A     -0.712558    32A     -0.683066    33A     -0.676336
      34A     -0.650052    35A     -0.640215    36A     -0.636001
      37A     -0.628523    38A     -0.606910    39A     -0.601657
      40A     -0.580554    41A     -0.553052    42A     -0.550077
      43A     -0.539396    44A     -0.534237    45A     -0.530867
      46A     -0.503222    47A     -0.495748    48A     -0.484269
      49A     -0.466436    50A     -0.460076    51A     -0.455491
      52A     -0.442891

  @DF-RHF Final Energy:  -758.52293910349795

   => Energetics <=

    Nuclear Repulsion Energy =            915.4753736180628039
    One-Electron Energy =               -2862.5754776443418450
    Two-Electron Energy =                1188.5771649227810940
    Total Energy =                       -758.5229391034979471
  Basis Set: (AUG-CC-PVTZ AUX)
    Blend: AUG-CC-PVTZ-RI
    Molecular point group: c1

    Geometry (in Angstrom), charge = 0, multiplicity = 1:

       Center              X                  Y                   Z               Mass
    ------------   -----------------  -----------------  -----------------  -----------------
         O           -1.400269834476    -1.703001232819    -1.052925730050    15.994914619570
         O            1.286991165524    -1.500960232819    -0.870317730050    15.994914619570
         O           -3.058361834476    -0.688366232819     0.796950269950    15.994914619570
         O            1.362007165524    -0.360965232819     1.788951269950    15.994914619570
         O           -3.431606834476     1.809573767181    -0.138864730050    15.994914619570
         O            2.568926165524     1.548415767181    -0.998044730050    15.994914619570
         O            3.654387165524     0.140778767181     0.421764269950    15.994914619570
         C           -0.859266834476    -0.956124232819     0.043490269950    12.000000000000
         C            0.457540165524    -0.408604232819    -0.480223730050    12.000000000000
         C           -1.880793834476     0.072196767181     0.511457269950    12.000000000000
         C            1.248041165524     0.356226767181     0.579499269950    12.000000000000
         C           -2.230440834476     1.125861767181    -0.531855730050    12.000000000000
         C            2.628252165524     0.656804767181     0.020986269950    12.000000000000
         H           -0.638258834476    -1.624517232819     0.885290269950     1.007825032230
         H            0.271409165524     0.251560767181    -1.340890730050     1.007825032230
         H           -1.515761834476     0.557918767181     1.431559269950     1.007825032230
         H            0.737632365524     1.321354367181     0.810927569950     1.007825032230
         H           -2.463727834476     0.633150767181    -1.477024730050     1.007825032230
         H           -1.407415834476     1.833110767181    -0.693639730050     1.007825032230
         H           -2.281762834476    -1.989951232819    -0.742708730050     1.007825032230
         H            0.700199165524    -2.106079232819    -1.364300730050     1.007825032230
         H           -3.793609834476    -0.047140232819     0.719835269950     1.007825032230
         H            2.097149165524    -0.989712232819     1.650708269950     1.007825032230
         H           -3.196906834476     2.421917767181     0.580448269950     1.007825032230
         H            3.485537165524     1.635757767181    -1.334082730050     1.007825032230

  Basis Set: AUG-CC-PVTZ
    Blend: AUG-CC-PVTZ
  Basis Set: (AUG-CC-PVTZ AUX)
    Blend: AUG-CC-PVTZ-JKFIT
	 Reference Energy          =    -758.5229391034979471 [Eh]
	 Singles Energy            =      -0.0000000000000000 [Eh]
	 Same-Spin Energy          =      -0.7343619811939402 [Eh]
	 Opposite-Spin Energy      =      -2.2311727040235159 [Eh]
	 Correlation Energy        =      -2.9655346852174560 [Eh]
	 Total Energy              =    -761.4884737887153960 [Eh]

	 ================> DF-SCS-MP2 Energies <==================
	-----------------------------------------------------------
	 SCS Same-Spin Scale       =       0.3333333333333333 [-]
	 SCS Opposite-Spin Scale   =       1.2000000000000000 [-]
	 SCS Same-Spin Energy      =      -0.2447873270646467 [Eh]
	 SCS Opposite-Spin Energy  =      -2.6774072448282191 [Eh]
	 SCS Correlation Energy    =      -2.9221945718928657 [Eh]
	 SCS Total Energy          =    -761.4451336753908208 [Eh]
	-----------------------------------------------------------

  Dipole Moment: [D]
     X:    -1.2081      Y:     2.6693      Z:    -0.8010     Total:     3.0375

*** Psi4 exiting successfully. Buy a developer a beer!
