                               Psi4 1.4a3.dev225

  ==> Input File <==

--------------------------------------------------------------------------
#psi4
#
memory 32 gb

molecule  {
0 1
  O       -1.3621950    -1.7118670    -1.0487160
  O        1.3944206    -1.4433418    -0.8921143
  O       -3.0202870    -0.6972320     0.8011600
  O        1.4000820    -0.3698310     1.7931610
  O       -3.3935320     1.8007080    -0.1346550
  O        2.6070010     1.5395500    -0.9938350
  O        3.6924620     0.1319130     0.4259740
  C       -0.8211920    -0.9649900     0.0477000
  C        0.4956150    -0.4174700    -0.4760140
  C       -1.8427190     0.0633310     0.5156670
  C        1.2861160     0.3473610     0.5837090
  C       -2.1923660     1.1169960    -0.5276460
  C        2.6663270     0.6479390     0.0251960
  H       -0.6001840    -1.6333830     0.8895000
  H        0.3094840     0.2426950    -1.3366810
  H       -1.4776870     0.5490530     1.4357690
  H        0.7848540     1.2951930     0.8109900
  H       -2.4256530     0.6242850    -1.4728150
  H       -1.3693410     1.8242450    -0.6894300
  H       -2.2436880    -1.9988170    -0.7384990
  H        0.7382740    -2.1149450    -1.3600910
  H       -3.7555350    -0.0560060     0.7240450
  H        2.1352240    -0.9985780     1.6549180
  H       -3.1588320     2.4130520     0.5846580
  H        3.5236120     1.6268920    -1.3298730
units angstrom
no_reorient  #important for SAPT in psi4, default
symmetry c1  #important for SAPT in psi4, default
}

set PROPERTIES_ORIGIN ["COM"]
properties('MP2/aug-cc-pvtz', properties = ['dipole'])
--------------------------------------------------------------------------

    Molecular point group: c1
  Charge       = 0
  Multiplicity = 1
  Basis Set: AUG-CC-PVTZ
    Blend: AUG-CC-PVTZ
  Basis Set: (AUG-CC-PVTZ AUX)
    Blend: AUG-CC-PVTZ-JKFIT

    Orbital Energies [Eh]
    ---------------------

    Doubly Occupied:

       1A    -20.629615     2A    -20.592593     3A    -20.578004
       4A    -20.576719     5A    -20.575561     6A    -20.573982
       7A    -20.563059     8A    -11.400216     9A    -11.315774
      10A    -11.304155    11A    -11.302997    12A    -11.301051
      13A    -11.298590    14A     -1.474517    15A     -1.407924
      16A     -1.394421    17A     -1.383116    18A     -1.367113
      19A     -1.360795    20A     -1.348655    21A     -1.078793
      22A     -1.026732    23A     -0.961847    24A     -0.886804
      25A     -0.830068    26A     -0.799555    27A     -0.756232
      28A     -0.735579    29A     -0.723711    30A     -0.715871
      31A     -0.711792    32A     -0.684075    33A     -0.672210
      34A     -0.646279    35A     -0.640366    36A     -0.635727
      37A     -0.626694    38A     -0.605874    39A     -0.602502
      40A     -0.576744    41A     -0.555024    42A     -0.551312
      43A     -0.538265    44A     -0.535166    45A     -0.532014
      46A     -0.504175    47A     -0.493627    48A     -0.483663
      49A     -0.466316    50A     -0.461811    51A     -0.453188
      52A     -0.443355

  @DF-RHF Final Energy:  -758.51274754346525

   => Energetics <=

    Nuclear Repulsion Energy =            915.4663275938048628
    One-Electron Energy =               -2862.5896970163985316
    Two-Electron Energy =                1188.6106218791283027
    Total Energy =                       -758.5127475434653661
  Basis Set: (AUG-CC-PVTZ AUX)
    Blend: AUG-CC-PVTZ-RI
    Molecular point group: c1

    Geometry (in Angstrom), charge = 0, multiplicity = 1:

       Center              X                  Y                   Z               Mass
    ------------   -----------------  -----------------  -----------------  -----------------
         O           -1.405974970468    -1.708336269129    -1.050782753726    15.994914619570
         O            1.350640629532    -1.439811069129    -0.894181053726    15.994914619570
         O           -3.064066970468    -0.693701269129     0.799093246274    15.994914619570
         O            1.356302029532    -0.366300269129     1.791094246274    15.994914619570
         O           -3.437311970468     1.804238730871    -0.136721753726    15.994914619570
         O            2.563221029532     1.543080730871    -0.995901753726    15.994914619570
         O            3.648682029532     0.135443730871     0.423907246274    15.994914619570
         C           -0.864971970468    -0.961459269129     0.045633246274    12.000000000000
         C            0.451835029532    -0.413939269129    -0.478080753726    12.000000000000
         C           -1.886498970468     0.066861730871     0.513600246274    12.000000000000
         C            1.242336029532     0.350891730871     0.581642246274    12.000000000000
         C           -2.236145970468     1.120526730871    -0.529712753726    12.000000000000
         C            2.622547029532     0.651469730871     0.023129246274    12.000000000000
         H           -0.643963970468    -1.629852269129     0.887433246274     1.007825032230
         H            0.265704029532     0.246225730871    -1.338747753726     1.007825032230
         H           -1.521466970468     0.552583730871     1.433702246274     1.007825032230
         H            0.741074029532     1.298723730871     0.808923246274     1.007825032230
         H           -2.469432970468     0.627815730871    -1.474881753726     1.007825032230
         H           -1.413120970468     1.827775730871    -0.691496753726     1.007825032230
         H           -2.287467970468    -1.995286269129    -0.740565753726     1.007825032230
         H            0.694494029532    -2.111414269129    -1.362157753726     1.007825032230
         H           -3.799314970468    -0.052475269129     0.721978246274     1.007825032230
         H            2.091444029532    -0.995047269129     1.652851246274     1.007825032230
         H           -3.202611970468     2.416582730871     0.582591246274     1.007825032230
         H            3.479832029532     1.630422730871    -1.331939753726     1.007825032230

  Basis Set: AUG-CC-PVTZ
    Blend: AUG-CC-PVTZ
  Basis Set: (AUG-CC-PVTZ AUX)
    Blend: AUG-CC-PVTZ-JKFIT
	 Reference Energy          =    -758.5127475434652524 [Eh]
	 Singles Energy            =      -0.0000000000000000 [Eh]
	 Same-Spin Energy          =      -0.7356106156021489 [Eh]
	 Opposite-Spin Energy      =      -2.2340525926042742 [Eh]
	 Correlation Energy        =      -2.9696632082064234 [Eh]
	 Total Energy              =    -761.4824107516716367 [Eh]

	 ================> DF-SCS-MP2 Energies <==================
	-----------------------------------------------------------
	 SCS Same-Spin Scale       =       0.3333333333333333 [-]
	 SCS Opposite-Spin Scale   =       1.2000000000000000 [-]
	 SCS Same-Spin Energy      =      -0.2452035385340496 [Eh]
	 SCS Opposite-Spin Energy  =      -2.6808631111251291 [Eh]
	 SCS Correlation Energy    =      -2.9260666496591785 [Eh]
	 SCS Total Energy          =    -761.4388141931244718 [Eh]
	-----------------------------------------------------------

  Dipole Moment: [D]
     X:    -1.3874      Y:     2.5282      Z:    -0.7511     Total:     2.9800

*** Psi4 exiting successfully. Buy a developer a beer!
