                               Psi4 1.4a3.dev225

  ==> Input File <==

--------------------------------------------------------------------------
#psi4
#
memory 32 gb

molecule  {
0 1
  O       -1.3621950    -1.7118670    -1.0487160
  O        1.3250660    -1.5098260    -0.8661080
  O       -3.0202870    -0.6972320     0.8011600
  O        1.4000820    -0.3698310     1.7931610
  O       -3.3935320     1.8007080    -0.1346550
  O        2.6070010     1.5395500    -0.9938350
  O        3.6924620     0.1319130     0.4259740
  C       -0.8211920    -0.9649900     0.0477000
  C        0.3222622    -0.4895490    -0.4070690
  C       -1.8427190     0.0633310     0.5156670
  C        1.2861160     0.3473610     0.5837090
  C       -2.1923660     1.1169960    -0.5276460
  C        2.6663270     0.6479390     0.0251960
  H       -0.6001840    -1.6333830     0.8895000
  H        0.3094840     0.2426950    -1.3366810
  H       -1.4776870     0.5490530     1.4357690
  H        0.7848540     1.2951930     0.8109900
  H       -2.4256530     0.6242850    -1.4728150
  H       -1.3693410     1.8242450    -0.6894300
  H       -2.2436880    -1.9988170    -0.7384990
  H        0.7382740    -2.1149450    -1.3600910
  H       -3.7555350    -0.0560060     0.7240450
  H        2.1352240    -0.9985780     1.6549180
  H       -3.1588320     2.4130520     0.5846580
  H        3.5236120     1.6268920    -1.3298730
units angstrom
no_reorient  #important for SAPT in psi4, default
symmetry c1  #important for SAPT in psi4, default
}

set PROPERTIES_ORIGIN ["COM"]
properties('MP2/aug-cc-pvtz', properties = ['dipole'])
--------------------------------------------------------------------------

    Molecular point group: c1
  Charge       = 0
  Multiplicity = 1
  Basis Set: AUG-CC-PVTZ
    Blend: AUG-CC-PVTZ
  Basis Set: (AUG-CC-PVTZ AUX)
    Blend: AUG-CC-PVTZ-JKFIT

    Orbital Energies [Eh]
    ---------------------

    Doubly Occupied:

       1A    -20.631274     2A    -20.594016     3A    -20.579149
       4A    -20.576903     5A    -20.571718     6A    -20.566683
       7A    -20.566072     8A    -11.404731     9A    -11.322676
      10A    -11.308751    11A    -11.307634    12A    -11.302538
      13A    -11.289390    14A     -1.475780    15A     -1.412208
      16A     -1.393877    17A     -1.385938    18A     -1.366863
      19A     -1.362686    20A     -1.338874    21A     -1.107795
      22A     -1.018088    23A     -0.985958    24A     -0.888892
      25A     -0.836784    26A     -0.790949    27A     -0.757097
      28A     -0.740844    29A     -0.724790    30A     -0.717624
      31A     -0.715787    32A     -0.687042    33A     -0.674463
      34A     -0.646033    35A     -0.640272    36A     -0.631198
      37A     -0.624714    38A     -0.608143    39A     -0.597172
      40A     -0.584989    41A     -0.555988    42A     -0.551721
      43A     -0.539141    44A     -0.534314    45A     -0.530494
      46A     -0.505097    47A     -0.494858    48A     -0.482286
      49A     -0.471817    50A     -0.463572    51A     -0.449028
      52A     -0.436186

  @DF-RHF Final Energy:  -758.46834809132963

   => Energetics <=

    Nuclear Repulsion Energy =            916.5733971948038743
    One-Electron Energy =               -2864.5816960732236112
    Two-Electron Energy =                1189.5399507870902198
    Total Energy =                       -758.4683480913295170
  Basis Set: (AUG-CC-PVTZ AUX)
    Blend: AUG-CC-PVTZ-RI
    Molecular point group: c1

    Geometry (in Angstrom), charge = 0, multiplicity = 1:

       Center              X                  Y                   Z               Mass
    ------------   -----------------  -----------------  -----------------  -----------------
         O           -1.389706572440    -1.698500638218    -1.057124278318    15.994914619570
         O            1.297554427560    -1.496459638218    -0.874516278318    15.994914619570
         O           -3.047798572440    -0.683865638218     0.792751721682    15.994914619570
         O            1.372570427560    -0.356464638218     1.784752721682    15.994914619570
         O           -3.421043572440     1.814074361782    -0.143063278318    15.994914619570
         O            2.579489427560     1.552916361782    -1.002243278318    15.994914619570
         O            3.664950427560     0.145279361782     0.417565721682    15.994914619570
         C           -0.848703572440    -0.951623638218     0.039291721682    12.000000000000
         C            0.294750627560    -0.476182638218    -0.415477278318    12.000000000000
         C           -1.870230572440     0.076697361782     0.507258721682    12.000000000000
         C            1.258604427560     0.360727361782     0.575300721682    12.000000000000
         C           -2.219877572440     1.130362361782    -0.536054278318    12.000000000000
         C            2.638815427560     0.661305361782     0.016787721682    12.000000000000
         H           -0.627695572440    -1.620016638218     0.881091721682     1.007825032230
         H            0.281972427560     0.256061361782    -1.345089278318     1.007825032230
         H           -1.505198572440     0.562419361782     1.427360721682     1.007825032230
         H            0.757342427560     1.308559361782     0.802581721682     1.007825032230
         H           -2.453164572440     0.637651361782    -1.481223278318     1.007825032230
         H           -1.396852572440     1.837611361782    -0.697838278318     1.007825032230
         H           -2.271199572440    -1.985450638218    -0.746907278318     1.007825032230
         H            0.710762427560    -2.101578638218    -1.368499278318     1.007825032230
         H           -3.783046572440    -0.042639638218     0.715636721682     1.007825032230
         H            2.107712427560    -0.985211638218     1.646509721682     1.007825032230
         H           -3.186343572440     2.426418361782     0.576249721682     1.007825032230
         H            3.496100427560     1.640258361782    -1.338281278318     1.007825032230

  Basis Set: AUG-CC-PVTZ
    Blend: AUG-CC-PVTZ
  Basis Set: (AUG-CC-PVTZ AUX)
    Blend: AUG-CC-PVTZ-JKFIT
	 Reference Energy          =    -758.4683480913296307 [Eh]
	 Singles Energy            =      -0.0000000000000000 [Eh]
	 Same-Spin Energy          =      -0.7377527702212352 [Eh]
	 Opposite-Spin Energy      =      -2.2375443989841326 [Eh]
	 Correlation Energy        =      -2.9752971692053678 [Eh]
	 Total Energy              =    -761.4436452605350496 [Eh]

	 ================> DF-SCS-MP2 Energies <==================
	-----------------------------------------------------------
	 SCS Same-Spin Scale       =       0.3333333333333333 [-]
	 SCS Opposite-Spin Scale   =       1.2000000000000000 [-]
	 SCS Same-Spin Energy      =      -0.2459175900737451 [Eh]
	 SCS Opposite-Spin Energy  =      -2.6850532787809591 [Eh]
	 SCS Correlation Energy    =      -2.9309708688547040 [Eh]
	 SCS Total Energy          =    -761.3993189601843596 [Eh]
	-----------------------------------------------------------

  Dipole Moment: [D]
     X:    -1.4655      Y:     2.7163      Z:    -0.6475     Total:     3.1536

*** Psi4 exiting successfully. Buy a developer a beer!
