                               Psi4 1.4a3.dev225

  ==> Input File <==

--------------------------------------------------------------------------
#psi4
#
memory 32 gb

molecule  {
0 1
  O       -1.3621950    -1.7118670    -1.0487160
  O        1.3250660    -1.5098260    -0.8661080
  O       -3.0202870    -0.6972320     0.8011600
  O        1.4000820    -0.3698310     1.7931610
  O       -3.3935320     1.8007080    -0.1346550
  O        2.6070010     1.5395500    -0.9938350
  O        3.6924620     0.1319130     0.4259740
  C       -0.8211920    -0.9649900     0.0477000
  C        0.4956150    -0.4174700    -0.4760140
  C       -1.8427190     0.0633310     0.5156670
  C        1.2861160     0.3473610     0.5837090
  C       -2.1923660     1.1169960    -0.5276460
  C        2.6663270     0.6479390     0.0251960
  H       -0.6001840    -1.6333830     0.8895000
  H        0.3094840     0.2426950    -1.3366810
  H       -1.4776870     0.5490530     1.4357690
  H        0.7848540     1.2951930     0.8109900
  H       -2.4256530     0.6242850    -1.4728150
  H       -1.3693410     1.8242450    -0.6894300
  H       -2.2436880    -1.9988170    -0.7384990
  H        0.7382740    -2.1149450    -1.3600910
  H       -3.7555350    -0.0560060     0.7240450
  H        2.1352240    -0.9985780     1.6549180
  H       -3.1347200     2.4759613     0.6585568
  H        3.5236120     1.6268920    -1.3298730
units angstrom
no_reorient  #important for SAPT in psi4, default
symmetry c1  #important for SAPT in psi4, default
}

set PROPERTIES_ORIGIN ["COM"]
properties('MP2/aug-cc-pvtz', properties = ['dipole'])
--------------------------------------------------------------------------

    Molecular point group: c1
  Charge       = 0
  Multiplicity = 1
  Basis Set: AUG-CC-PVTZ
    Blend: AUG-CC-PVTZ
  Basis Set: (AUG-CC-PVTZ AUX)
    Blend: AUG-CC-PVTZ-JKFIT

    Orbital Energies [Eh]
    ---------------------

    Doubly Occupied:

       1A    -20.631332     2A    -20.600165     3A    -20.574688
       4A    -20.574633     5A    -20.572733     6A    -20.570167
       7A    -20.564976     8A    -11.401768     9A    -11.318083
      10A    -11.304045    11A    -11.301572    12A    -11.299524
      13A    -11.295392    14A     -1.476174    15A     -1.405295
      16A     -1.393190    17A     -1.379423    18A     -1.365836
      19A     -1.358596    20A     -1.347791    21A     -1.079605
      22A     -1.026488    23A     -0.957962    24A     -0.885399
      25A     -0.829842    26A     -0.801288    27A     -0.756116
      28A     -0.736028    29A     -0.725295    30A     -0.712332
      31A     -0.704386    32A     -0.679226    33A     -0.674015
      34A     -0.649793    35A     -0.639411    36A     -0.635897
      37A     -0.626627    38A     -0.606892    39A     -0.599674
      40A     -0.580683    41A     -0.551869    42A     -0.548901
      43A     -0.538927    44A     -0.532048    45A     -0.529014
      46A     -0.501041    47A     -0.495601    48A     -0.484313
      49A     -0.465869    50A     -0.459483    51A     -0.455125
      52A     -0.442119

  @DF-RHF Final Energy:  -758.51024982191939

   => Energetics <=

    Nuclear Repulsion Energy =            915.0257507028750297
    One-Electron Energy =               -2861.7787058241124214
    Two-Electron Energy =                1188.2427052993180041
    Total Energy =                       -758.5102498219193876
  Basis Set: (AUG-CC-PVTZ AUX)
    Blend: AUG-CC-PVTZ-RI
    Molecular point group: c1

    Geometry (in Angstrom), charge = 0, multiplicity = 1:

       Center              X                  Y                   Z               Mass
    ------------   -----------------  -----------------  -----------------  -----------------
         O           -1.400440799188    -1.703235707095    -1.053284283127    15.994914619570
         O            1.286820200812    -1.501194707095    -0.870676283127    15.994914619570
         O           -3.058532799188    -0.688600707095     0.796591716873    15.994914619570
         O            1.361836200812    -0.361199707095     1.788592716873    15.994914619570
         O           -3.431777799188     1.809339292905    -0.139223283127    15.994914619570
         O            2.568755200812     1.548181292905    -0.998403283127    15.994914619570
         O            3.654216200812     0.140544292905     0.421405716873    15.994914619570
         C           -0.859437799188    -0.956358707095     0.043131716873    12.000000000000
         C            0.457369200812    -0.408838707095    -0.480582283127    12.000000000000
         C           -1.880964799188     0.071962292905     0.511098716873    12.000000000000
         C            1.247870200812     0.355992292905     0.579140716873    12.000000000000
         C           -2.230611799188     1.125627292905    -0.532214283127    12.000000000000
         C            2.628081200812     0.656570292905     0.020627716873    12.000000000000
         H           -0.638429799188    -1.624751707095     0.884931716873     1.007825032230
         H            0.271238200812     0.251326292905    -1.341249283127     1.007825032230
         H           -1.515932799188     0.557684292905     1.431200716873     1.007825032230
         H            0.746608200812     1.303824292905     0.806421716873     1.007825032230
         H           -2.463898799188     0.632916292905    -1.477383283127     1.007825032230
         H           -1.407586799188     1.832876292905    -0.693998283127     1.007825032230
         H           -2.281933799188    -1.990185707095    -0.743067283127     1.007825032230
         H            0.700028200812    -2.106313707095    -1.364659283127     1.007825032230
         H           -3.793780799188    -0.047374707095     0.719476716873     1.007825032230
         H            2.096978200812    -0.989946707095     1.650349716873     1.007825032230
         H           -3.172965799188     2.484592592905     0.653988516873     1.007825032230
         H            3.485366200812     1.635523292905    -1.334441283127     1.007825032230

  Basis Set: AUG-CC-PVTZ
    Blend: AUG-CC-PVTZ
  Basis Set: (AUG-CC-PVTZ AUX)
    Blend: AUG-CC-PVTZ-JKFIT
	 Reference Energy          =    -758.5102498219193876 [Eh]
	 Singles Energy            =      -0.0000000000000000 [Eh]
	 Same-Spin Energy          =      -0.7354100985336779 [Eh]
	 Opposite-Spin Energy      =      -2.2342054152435189 [Eh]
	 Correlation Energy        =      -2.9696155137771969 [Eh]
	 Total Energy              =    -761.4798653356965588 [Eh]

	 ================> DF-SCS-MP2 Energies <==================
	-----------------------------------------------------------
	 SCS Same-Spin Scale       =       0.3333333333333333 [-]
	 SCS Opposite-Spin Scale   =       1.2000000000000000 [-]
	 SCS Same-Spin Energy      =      -0.2451366995112260 [Eh]
	 SCS Opposite-Spin Energy  =      -2.6810464982922224 [Eh]
	 SCS Correlation Energy    =      -2.9261831978034483 [Eh]
	 SCS Total Energy          =    -761.4364330197228128 [Eh]
	-----------------------------------------------------------

  Dipole Moment: [D]
     X:    -1.2217      Y:     2.7440      Z:    -0.7502     Total:     3.0960

*** Psi4 exiting successfully. Buy a developer a beer!
