                               Psi4 1.4a3.dev225

  ==> Input File <==

--------------------------------------------------------------------------
#psi4
#
memory 32 gb

molecule  {
0 1
  O       -1.3621950    -1.7118670    -1.0487160
  O        1.2888514    -1.5410917    -0.8523839
  O       -3.0202870    -0.6972320     0.8011600
  O        1.4000820    -0.3698310     1.7931610
  O       -3.3935320     1.8007080    -0.1346550
  O        2.6070010     1.5395500    -0.9938350
  O        3.6924620     0.1319130     0.4259740
  C       -0.8211920    -0.9649900     0.0477000
  C        0.4956150    -0.4174700    -0.4760140
  C       -1.8427190     0.0633310     0.5156670
  C        1.2861160     0.3473610     0.5837090
  C       -2.1923660     1.1169960    -0.5276460
  C        2.6663270     0.6479390     0.0251960
  H       -0.6001840    -1.6333830     0.8895000
  H        0.3094840     0.2426950    -1.3366810
  H       -1.4776870     0.5490530     1.4357690
  H        0.7848540     1.2951930     0.8109900
  H       -2.4256530     0.6242850    -1.4728150
  H       -1.3693410     1.8242450    -0.6894300
  H       -2.2436880    -1.9988170    -0.7384990
  H        0.7382740    -2.1149450    -1.3600910
  H       -3.7555350    -0.0560060     0.7240450
  H        2.1352240    -0.9985780     1.6549180
  H       -3.1588320     2.4130520     0.5846580
  H        3.5236120     1.6268920    -1.3298730
units angstrom
no_reorient  #important for SAPT in psi4, default
symmetry c1  #important for SAPT in psi4, default
}

set PROPERTIES_ORIGIN ["COM"]
properties('MP2/aug-cc-pvtz', properties = ['dipole'])
--------------------------------------------------------------------------

    Molecular point group: c1
  Charge       = 0
  Multiplicity = 1
  Basis Set: AUG-CC-PVTZ
    Blend: AUG-CC-PVTZ
  Basis Set: (AUG-CC-PVTZ AUX)
    Blend: AUG-CC-PVTZ-JKFIT

    Orbital Energies [Eh]
    ---------------------

    Doubly Occupied:

       1A    -20.632366     2A    -20.591746     3A    -20.575223
       4A    -20.574526     5A    -20.571829     6A    -20.566350
       7A    -20.566105     8A    -11.402748     9A    -11.319528
      10A    -11.305141    11A    -11.301221    12A    -11.300065
      13A    -11.294449    14A     -1.477199    15A     -1.408294
      16A     -1.397475    17A     -1.384529    18A     -1.370649
      19A     -1.363755    20A     -1.350771    21A     -1.081405
      22A     -1.028731    23A     -0.961236    24A     -0.889192
      25A     -0.830983    26A     -0.804248    27A     -0.758999
      28A     -0.737275    29A     -0.726723    30A     -0.714947
      31A     -0.713144    32A     -0.683042    33A     -0.678611
      34A     -0.652256    35A     -0.640552    36A     -0.636559
      37A     -0.628453    38A     -0.607659    39A     -0.601715
      40A     -0.582934    41A     -0.552524    42A     -0.549464
      43A     -0.539769    44A     -0.533569    45A     -0.530783
      46A     -0.502855    47A     -0.496728    48A     -0.484925
      49A     -0.466720    50A     -0.459369    51A     -0.455837
      52A     -0.442444

  @DF-RHF Final Energy:  -758.52459455513792

   => Energetics <=

    Nuclear Repulsion Energy =            915.7109162822808912
    One-Electron Energy =               -2863.0157790563589515
    Two-Electron Energy =                1188.7802682189403640
    Total Energy =                       -758.5245945551378099
  Basis Set: (AUG-CC-PVTZ AUX)
    Blend: AUG-CC-PVTZ-RI
    Molecular point group: c1

    Geometry (in Angstrom), charge = 0, multiplicity = 1:

       Center              X                  Y                   Z               Mass
    ------------   -----------------  -----------------  -----------------  -----------------
         O           -1.397362377597    -1.700361593826    -1.054024056680    15.994914619570
         O            1.253684022403    -1.529586293826    -0.857691956680    15.994914619570
         O           -3.055454377597    -0.685726593826     0.795851943320    15.994914619570
         O            1.364914622403    -0.358325593826     1.787852943320    15.994914619570
         O           -3.428699377597     1.812213406174    -0.139963056680    15.994914619570
         O            2.571833622403     1.551055406174    -0.999143056680    15.994914619570
         O            3.657294622403     0.143418406174     0.420665943320    15.994914619570
         C           -0.856359377597    -0.953484593826     0.042391943320    12.000000000000
         C            0.460447622403    -0.405964593826    -0.481322056680    12.000000000000
         C           -1.877886377597     0.074836406174     0.510358943320    12.000000000000
         C            1.250948622403     0.358866406174     0.578400943320    12.000000000000
         C           -2.227533377597     1.128501406174    -0.532954056680    12.000000000000
         C            2.631159622403     0.659444406174     0.019887943320    12.000000000000
         H           -0.635351377597    -1.621877593826     0.884191943320     1.007825032230
         H            0.274316622403     0.254200406174    -1.341989056680     1.007825032230
         H           -1.512854377597     0.560558406174     1.430460943320     1.007825032230
         H            0.749686622403     1.306698406174     0.805681943320     1.007825032230
         H           -2.460820377597     0.635790406174    -1.478123056680     1.007825032230
         H           -1.404508377597     1.835750406174    -0.694738056680     1.007825032230
         H           -2.278855377597    -1.987311593826    -0.743807056680     1.007825032230
         H            0.703106622403    -2.103439593826    -1.365399056680     1.007825032230
         H           -3.790702377597    -0.044500593826     0.718736943320     1.007825032230
         H            2.100056622403    -0.987072593826     1.649609943320     1.007825032230
         H           -3.193999377597     2.424557406174     0.579349943320     1.007825032230
         H            3.488444622403     1.638397406174    -1.335181056680     1.007825032230

  Basis Set: AUG-CC-PVTZ
    Blend: AUG-CC-PVTZ
  Basis Set: (AUG-CC-PVTZ AUX)
    Blend: AUG-CC-PVTZ-JKFIT
	 Reference Energy          =    -758.5245945551379236 [Eh]
	 Singles Energy            =      -0.0000000000000000 [Eh]
	 Same-Spin Energy          =      -0.7337728760068277 [Eh]
	 Opposite-Spin Energy      =      -2.2297517694484914 [Eh]
	 Correlation Energy        =      -2.9635246454553190 [Eh]
	 Total Energy              =    -761.4881192005932462 [Eh]

	 ================> DF-SCS-MP2 Energies <==================
	-----------------------------------------------------------
	 SCS Same-Spin Scale       =       0.3333333333333333 [-]
	 SCS Opposite-Spin Scale   =       1.2000000000000000 [-]
	 SCS Same-Spin Energy      =      -0.2445909586689426 [Eh]
	 SCS Opposite-Spin Energy  =      -2.6757021233381897 [Eh]
	 SCS Correlation Energy    =      -2.9202930820071322 [Eh]
	 SCS Total Energy          =    -761.4448876371450297 [Eh]
	-----------------------------------------------------------

  Dipole Moment: [D]
     X:    -1.1191      Y:     2.7492      Z:    -0.8323     Total:     3.0828

*** Psi4 exiting successfully. Buy a developer a beer!
