                               Psi4 1.4a3.dev225

  ==> Input File <==

--------------------------------------------------------------------------
#psi4
#
memory 32 gb

molecule  {
0 1
  O       -1.3621950    -1.7118670    -1.0487160
  O        1.3602700    -1.4772295    -0.8793568
  O       -3.0202870    -0.6972320     0.8011600
  O        1.4000820    -0.3698310     1.7931610
  O       -3.3935320     1.8007080    -0.1346550
  O        2.6070010     1.5395500    -0.9938350
  O        3.6924620     0.1319130     0.4259740
  C       -0.8211920    -0.9649900     0.0477000
  C        0.4956150    -0.4174700    -0.4760140
  C       -1.8427190     0.0633310     0.5156670
  C        1.2861160     0.3473610     0.5837090
  C       -2.1923660     1.1169960    -0.5276460
  C        2.6663270     0.6479390     0.0251960
  H       -0.6001840    -1.6333830     0.8895000
  H        0.3094840     0.2426950    -1.3366810
  H       -1.4776870     0.5490530     1.4357690
  H        0.7848540     1.2951930     0.8109900
  H       -2.4256530     0.6242850    -1.4728150
  H       -1.3693410     1.8242450    -0.6894300
  H       -2.2436880    -1.9988170    -0.7384990
  H        0.7382740    -2.1149450    -1.3600910
  H       -3.7555350    -0.0560060     0.7240450
  H        2.1352240    -0.9985780     1.6549180
  H       -3.1588320     2.4130520     0.5846580
  H        3.5236120     1.6268920    -1.3298730
units angstrom
no_reorient  #important for SAPT in psi4, default
symmetry c1  #important for SAPT in psi4, default
}

set PROPERTIES_ORIGIN ["COM"]
properties('MP2/aug-cc-pvtz', properties = ['dipole'])
--------------------------------------------------------------------------

    Molecular point group: c1
  Charge       = 0
  Multiplicity = 1
  Basis Set: AUG-CC-PVTZ
    Blend: AUG-CC-PVTZ
  Basis Set: (AUG-CC-PVTZ AUX)
    Blend: AUG-CC-PVTZ-JKFIT

    Orbital Energies [Eh]
    ---------------------

    Doubly Occupied:

       1A    -20.630532     2A    -20.592329     3A    -20.576016
       4A    -20.574372     5A    -20.574346     6A    -20.574320
       7A    -20.564082     8A    -11.401053     9A    -11.317004
      10A    -11.303625    11A    -11.303213    12A    -11.300756
      13A    -11.297218    14A     -1.475399    15A     -1.407741
      16A     -1.395323    17A     -1.383260    18A     -1.368323
      19A     -1.361506    20A     -1.349916    21A     -1.079529
      22A     -1.027502    23A     -0.961538    24A     -0.887440
      25A     -0.830364    26A     -0.801094    27A     -0.757078
      28A     -0.736044    29A     -0.724642    30A     -0.715579
      31A     -0.712134    32A     -0.683533    33A     -0.674091
      34A     -0.647786    35A     -0.640450    36A     -0.636391
      37A     -0.628135    38A     -0.606521    39A     -0.602191
      40A     -0.578962    41A     -0.554138    42A     -0.550729
      43A     -0.539040    44A     -0.534825    45A     -0.531551
      46A     -0.503729    47A     -0.494690    48A     -0.484129
      49A     -0.466318    50A     -0.460949    51A     -0.454484
      52A     -0.443174

  @DF-RHF Final Energy:  -758.51952649851091

   => Energetics <=

    Nuclear Repulsion Energy =            915.5036475196534411
    One-Electron Energy =               -2862.6481634065903563
    Two-Electron Energy =                1188.6249893884260018
    Total Energy =                       -758.5195264985109134
  Basis Set: (AUG-CC-PVTZ AUX)
    Blend: AUG-CC-PVTZ-RI
    Molecular point group: c1

    Geometry (in Angstrom), charge = 0, multiplicity = 1:

       Center              X                  Y                   Z               Mass
    ------------   -----------------  -----------------  -----------------  -----------------
         O           -1.403188881210    -1.705571627894    -1.051823541698    15.994914619570
         O            1.319276118790    -1.470934127894    -0.882464341698    15.994914619570
         O           -3.061280881210    -0.690936627894     0.798052458302    15.994914619570
         O            1.359088118790    -0.363535627894     1.790053458302    15.994914619570
         O           -3.434525881210     1.807003372106    -0.137762541698    15.994914619570
         O            2.566007118790     1.545845372106    -0.996942541698    15.994914619570
         O            3.651468118790     0.138208372106     0.422866458302    15.994914619570
         C           -0.862185881210    -0.958694627894     0.044592458302    12.000000000000
         C            0.454621118790    -0.411174627894    -0.479121541698    12.000000000000
         C           -1.883712881210     0.069626372106     0.512559458302    12.000000000000
         C            1.245122118790     0.353656372106     0.580601458302    12.000000000000
         C           -2.233359881210     1.123291372106    -0.530753541698    12.000000000000
         C            2.625333118790     0.654234372106     0.022088458302    12.000000000000
         H           -0.641177881210    -1.627087627894     0.886392458302     1.007825032230
         H            0.268490118790     0.248990372106    -1.339788541698     1.007825032230
         H           -1.518680881210     0.555348372106     1.432661458302     1.007825032230
         H            0.743860118790     1.301488372106     0.807882458302     1.007825032230
         H           -2.466646881210     0.630580372106    -1.475922541698     1.007825032230
         H           -1.410334881210     1.830540372106    -0.692537541698     1.007825032230
         H           -2.284681881210    -1.992521627894    -0.741606541698     1.007825032230
         H            0.697280118790    -2.108649627894    -1.363198541698     1.007825032230
         H           -3.796528881210    -0.049710627894     0.720937458302     1.007825032230
         H            2.094230118790    -0.992282627894     1.651810458302     1.007825032230
         H           -3.199825881210     2.419347372106     0.581550458302     1.007825032230
         H            3.482618118790     1.633187372106    -1.332980541698     1.007825032230

  Basis Set: AUG-CC-PVTZ
    Blend: AUG-CC-PVTZ
  Basis Set: (AUG-CC-PVTZ AUX)
    Blend: AUG-CC-PVTZ-JKFIT
	 Reference Energy          =    -758.5195264985109134 [Eh]
	 Singles Energy            =      -0.0000000000000000 [Eh]
	 Same-Spin Energy          =      -0.7349317300035787 [Eh]
	 Opposite-Spin Energy      =      -2.2324424621449257 [Eh]
	 Correlation Energy        =      -2.9673741921485046 [Eh]
	 Total Energy              =    -761.4869006906594677 [Eh]

	 ================> DF-SCS-MP2 Energies <==================
	-----------------------------------------------------------
	 SCS Same-Spin Scale       =       0.3333333333333333 [-]
	 SCS Opposite-Spin Scale   =       1.2000000000000000 [-]
	 SCS Same-Spin Energy      =      -0.2449772433345262 [Eh]
	 SCS Opposite-Spin Energy  =      -2.6789309545739108 [Eh]
	 SCS Correlation Energy    =      -2.9239081979084371 [Eh]
	 SCS Total Energy          =    -761.4434346964193310 [Eh]
	-----------------------------------------------------------

  Dipole Moment: [D]
     X:    -1.3026      Y:     2.6016      Z:    -0.7764     Total:     3.0113

*** Psi4 exiting successfully. Buy a developer a beer!
