                               Psi4 1.4a3.dev225

  ==> Input File <==

--------------------------------------------------------------------------
#psi4
#
memory 32 gb

molecule  {
0 1
  O       -1.3621950    -1.7118670    -1.0487160
  O        1.3250660    -1.5098260    -0.8661080
  O       -3.0202870    -0.6972320     0.8011600
  O        1.4000820    -0.3698310     1.7931610
  O       -3.3935320     1.8007080    -0.1346550
  O        2.6070010     1.5395500    -0.9938350
  O        3.6924620     0.1319130     0.4259740
  C       -0.8211920    -0.9649900     0.0477000
  C        0.4956150    -0.4174700    -0.4760140
  C       -1.8427190     0.0633310     0.5156670
  C        1.2861160     0.3473610     0.5837090
  C       -2.1923660     1.1169960    -0.5276460
  C        2.6663270     0.6479390     0.0251960
  H       -0.6001840    -1.6333830     0.8895000
  H        0.3094840     0.2426950    -1.3366810
  H       -1.4776870     0.5490530     1.4357690
  H        0.7848540     1.2951930     0.8109900
  H       -2.4256530     0.6242850    -1.4728150
  H       -1.3693410     1.8242450    -0.6894300
  H       -2.2436880    -1.9988170    -0.7384990
  H        0.7382740    -2.1149450    -1.3600910
  H       -3.7405089    -0.0691106     0.7256210
  H        2.1352240    -0.9985780     1.6549180
  H       -3.1588320     2.4130520     0.5846580
  H        3.5236120     1.6268920    -1.3298730
units angstrom
no_reorient  #important for SAPT in psi4, default
symmetry c1  #important for SAPT in psi4, default
}

set PROPERTIES_ORIGIN ["COM"]
properties('MP2/aug-cc-pvtz', properties = ['dipole'])
--------------------------------------------------------------------------

    Molecular point group: c1
  Charge       = 0
  Multiplicity = 1
  Basis Set: AUG-CC-PVTZ
    Blend: AUG-CC-PVTZ
  Basis Set: (AUG-CC-PVTZ AUX)
    Blend: AUG-CC-PVTZ-JKFIT

    Orbital Energies [Eh]
    ---------------------

    Doubly Occupied:

       1A    -20.631503     2A    -20.591669     3A    -20.574874
       4A    -20.574146     5A    -20.573282     6A    -20.570514
       7A    -20.565159     8A    -11.401964     9A    -11.318345
      10A    -11.304448    11A    -11.302546    12A    -11.300484
      13A    -11.296002    14A     -1.476352    15A     -1.409270
      16A     -1.396775    17A     -1.383703    18A     -1.370437
      19A     -1.363306    20A     -1.351927    21A     -1.080868
      22A     -1.028749    23A     -0.961413    24A     -0.889123
      25A     -0.830971    26A     -0.803016    27A     -0.758567
      28A     -0.736779    29A     -0.726347    30A     -0.715246
      31A     -0.713211    32A     -0.684106    33A     -0.677141
      34A     -0.650111    35A     -0.640766    36A     -0.637156
      37A     -0.628754    38A     -0.607227    39A     -0.601934
      40A     -0.581319    41A     -0.553345    42A     -0.551543
      43A     -0.539745    44A     -0.534612    45A     -0.531475
      46A     -0.503262    47A     -0.495785    48A     -0.484659
      49A     -0.466861    50A     -0.460169    51A     -0.455783
      52A     -0.443000

  @DF-RHF Final Energy:  -758.52454407764651

   => Energetics <=

    Nuclear Repulsion Energy =            915.7067369406339594
    One-Electron Energy =               -2863.0030640697150375
    Two-Electron Energy =                1188.7717830514345678
    Total Energy =                       -758.5245440776463965
  Basis Set: (AUG-CC-PVTZ AUX)
    Blend: AUG-CC-PVTZ-RI
    Molecular point group: c1

    Geometry (in Angstrom), charge = 0, multiplicity = 1:

       Center              X                  Y                   Z               Mass
    ------------   -----------------  -----------------  -----------------  -----------------
         O           -1.400394093706    -1.702844962556    -1.052912512449    15.994914619570
         O            1.286866906294    -1.500803962556    -0.870304512449    15.994914619570
         O           -3.058486093706    -0.688209962556     0.796963487551    15.994914619570
         O            1.361882906294    -0.360808962556     1.788964487551    15.994914619570
         O           -3.431731093706     1.809730037444    -0.138851512449    15.994914619570
         O            2.568801906294     1.548572037444    -0.998031512449    15.994914619570
         O            3.654262906294     0.140935037444     0.421777487551    15.994914619570
         C           -0.859391093706    -0.955967962556     0.043503487551    12.000000000000
         C            0.457415906294    -0.408447962556    -0.480210512449    12.000000000000
         C           -1.880918093706     0.072353037444     0.511470487551    12.000000000000
         C            1.247916906294     0.356383037444     0.579512487551    12.000000000000
         C           -2.230565093706     1.126018037444    -0.531842512449    12.000000000000
         C            2.628127906294     0.656961037444     0.020999487551    12.000000000000
         H           -0.638383093706    -1.624360962556     0.885303487551     1.007825032230
         H            0.271284906294     0.251717037444    -1.340877512449     1.007825032230
         H           -1.515886093706     0.558075037444     1.431572487551     1.007825032230
         H            0.746654906294     1.304215037444     0.806793487551     1.007825032230
         H           -2.463852093706     0.633307037444    -1.477011512449     1.007825032230
         H           -1.407540093706     1.833267037444    -0.693626512449     1.007825032230
         H           -2.281887093706    -1.989794962556    -0.742695512449     1.007825032230
         H            0.700074906294    -2.105922962556    -1.364287512449     1.007825032230
         H           -3.778707993706    -0.060088562556     0.721424487551     1.007825032230
         H            2.097024906294    -0.989555962556     1.650721487551     1.007825032230
         H           -3.197031093706     2.422074037444     0.580461487551     1.007825032230
         H            3.485412906294     1.635914037444    -1.334069512449     1.007825032230

  Basis Set: AUG-CC-PVTZ
    Blend: AUG-CC-PVTZ
  Basis Set: (AUG-CC-PVTZ AUX)
    Blend: AUG-CC-PVTZ-JKFIT
	 Reference Energy          =    -758.5245440776465102 [Eh]
	 Singles Energy            =      -0.0000000000000000 [Eh]
	 Same-Spin Energy          =      -0.7340182280164623 [Eh]
	 Opposite-Spin Energy      =      -2.2303501214883252 [Eh]
	 Correlation Energy        =      -2.9643683495047877 [Eh]
	 Total Energy              =    -761.4889124271512628 [Eh]

	 ================> DF-SCS-MP2 Energies <==================
	-----------------------------------------------------------
	 SCS Same-Spin Scale       =       0.3333333333333333 [-]
	 SCS Opposite-Spin Scale   =       1.2000000000000000 [-]
	 SCS Same-Spin Energy      =      -0.2446727426721541 [Eh]
	 SCS Opposite-Spin Energy  =      -2.6764201457859902 [Eh]
	 SCS Correlation Energy    =      -2.9210928884581442 [Eh]
	 SCS Total Energy          =    -761.4456369661046438 [Eh]
	-----------------------------------------------------------

  Dipole Moment: [D]
     X:    -1.1922      Y:     2.6563      Z:    -0.7999     Total:     3.0194

*** Psi4 exiting successfully. Buy a developer a beer!
