                               Psi4 1.4a3.dev225

  ==> Input File <==

--------------------------------------------------------------------------
#psi4
#
memory 32 gb

molecule  {
0 1
  O       -1.3621950    -1.7118670    -1.0487160
  O        1.3250660    -1.5098260    -0.8661080
  O       -3.0202870    -0.6972320     0.8011600
  O        1.4000820    -0.3698310     1.7931610
  O       -3.3935320     1.8007080    -0.1346550
  O        2.6070010     1.5395500    -0.9938350
  O        3.6924620     0.1319130     0.4259740
  C       -0.8211920    -0.9649900     0.0477000
  C        0.4956150    -0.4174700    -0.4760140
  C       -1.8427190     0.0633310     0.5156670
  C        1.2861160     0.3473610     0.5837090
  C       -2.1923660     1.1169960    -0.5276460
  C        2.6663270     0.6479390     0.0251960
  H       -0.6001840    -1.6333830     0.8895000
  H        0.3094840     0.2426950    -1.3366810
  H       -1.4776870     0.5490530     1.4357690
  H        0.7848540     1.2951930     0.8109900
  H       -2.4256530     0.6242850    -1.4728150
  H       -1.3693410     1.8242450    -0.6894300
  H       -2.2436880    -1.9988170    -0.7384990
  H        0.7382740    -2.1149450    -1.3600910
  H       -3.7555350    -0.0560060     0.7240450
  H        2.1352240    -0.9985780     1.6549180
  H       -3.1588320     2.4130520     0.5846580
  H        3.4300961     1.6179811    -1.2955892
units angstrom
no_reorient  #important for SAPT in psi4, default
symmetry c1  #important for SAPT in psi4, default
}

set PROPERTIES_ORIGIN ["COM"]
properties('MP2/aug-cc-pvtz', properties = ['dipole'])
--------------------------------------------------------------------------

    Molecular point group: c1
  Charge       = 0
  Multiplicity = 1
  Basis Set: AUG-CC-PVTZ
    Blend: AUG-CC-PVTZ
  Basis Set: (AUG-CC-PVTZ AUX)
    Blend: AUG-CC-PVTZ-JKFIT

    Orbital Energies [Eh]
    ---------------------

    Doubly Occupied:

       1A    -20.624395     2A    -20.592365     3A    -20.575629
       4A    -20.575415     5A    -20.573512     6A    -20.571030
       7A    -20.567195     8A    -11.403956     9A    -11.318860
      10A    -11.304997    11A    -11.302630    12A    -11.300807
      13A    -11.296328    14A     -1.494052    15A     -1.408661
      16A     -1.399525    17A     -1.386735    18A     -1.372689
      19A     -1.364523    20A     -1.351097    21A     -1.081718
      22A     -1.031163    23A     -0.964335    24A     -0.892825
      25A     -0.843429    26A     -0.804084    27A     -0.760358
      28A     -0.740484    29A     -0.730601    30A     -0.715921
      31A     -0.715637    32A     -0.683730    33A     -0.677323
      34A     -0.652712    35A     -0.643843    36A     -0.638755
      37A     -0.629336    38A     -0.609782    39A     -0.602584
      40A     -0.582315    41A     -0.554563    42A     -0.550502
      43A     -0.541066    44A     -0.534679    45A     -0.531898
      46A     -0.503718    47A     -0.498623    48A     -0.485863
      49A     -0.466910    50A     -0.461017    51A     -0.456097
      52A     -0.443518

  @DF-RHF Final Energy:  -758.51903622474902

   => Energetics <=

    Nuclear Repulsion Energy =            916.3221039619264729
    One-Electron Energy =               -2864.0547056138443622
    Two-Electron Energy =                1189.2135654271687599
    Total Energy =                       -758.5190362247490157
  Basis Set: (AUG-CC-PVTZ AUX)
    Blend: AUG-CC-PVTZ-RI
    Molecular point group: c1

    Geometry (in Angstrom), charge = 0, multiplicity = 1:

       Center              X                  Y                   Z               Mass
    ------------   -----------------  -----------------  -----------------  -----------------
         O           -1.399836140571    -1.702866520000    -1.053080644780    15.994914619570
         O            1.287424859429    -1.500825520000    -0.870472644780    15.994914619570
         O           -3.057928140571    -0.688231520000     0.796795355220    15.994914619570
         O            1.362440859429    -0.360830520000     1.788796355220    15.994914619570
         O           -3.431173140571     1.809708480000    -0.139019644780    15.994914619570
         O            2.569359859429     1.548550480000    -0.998199644780    15.994914619570
         O            3.654820859429     0.140913480000     0.421609355220    15.994914619570
         C           -0.858833140571    -0.955989520000     0.043335355220    12.000000000000
         C            0.457973859429    -0.408469520000    -0.480378644780    12.000000000000
         C           -1.880360140571     0.072331480000     0.511302355220    12.000000000000
         C            1.248474859429     0.356361480000     0.579344355220    12.000000000000
         C           -2.230007140571     1.125996480000    -0.532010644780    12.000000000000
         C            2.628685859429     0.656939480000     0.020831355220    12.000000000000
         H           -0.637825140571    -1.624382520000     0.885135355220     1.007825032230
         H            0.271842859429     0.251695480000    -1.341045644780     1.007825032230
         H           -1.515328140571     0.558053480000     1.431404355220     1.007825032230
         H            0.747212859429     1.304193480000     0.806625355220     1.007825032230
         H           -2.463294140571     0.633285480000    -1.477179644780     1.007825032230
         H           -1.406982140571     1.833245480000    -0.693794644780     1.007825032230
         H           -2.281329140571    -1.989816520000    -0.742863644780     1.007825032230
         H            0.700632859429    -2.105944520000    -1.364455644780     1.007825032230
         H           -3.793176140571    -0.047005520000     0.719680355220     1.007825032230
         H            2.097582859429    -0.989577520000     1.650553355220     1.007825032230
         H           -3.196473140571     2.422052480000     0.580293355220     1.007825032230
         H            3.392454959429     1.626981580000    -1.299953844780     1.007825032230

  Basis Set: AUG-CC-PVTZ
    Blend: AUG-CC-PVTZ
  Basis Set: (AUG-CC-PVTZ AUX)
    Blend: AUG-CC-PVTZ-JKFIT
	 Reference Energy          =    -758.5190362247490157 [Eh]
	 Singles Energy            =      -0.0000000000000000 [Eh]
	 Same-Spin Energy          =      -0.7330449162815856 [Eh]
	 Opposite-Spin Energy      =      -2.2282119463958301 [Eh]
	 Correlation Energy        =      -2.9612568626774158 [Eh]
	 Total Energy              =    -761.4802930874263893 [Eh]

	 ================> DF-SCS-MP2 Energies <==================
	-----------------------------------------------------------
	 SCS Same-Spin Scale       =       0.3333333333333333 [-]
	 SCS Opposite-Spin Scale   =       1.2000000000000000 [-]
	 SCS Same-Spin Energy      =      -0.2443483054271952 [Eh]
	 SCS Opposite-Spin Energy  =      -2.6738543356749962 [Eh]
	 SCS Correlation Energy    =      -2.9182026411021913 [Eh]
	 SCS Total Energy          =    -761.4372388658512136 [Eh]
	-----------------------------------------------------------

  Dipole Moment: [D]
     X:    -1.3272      Y:     2.6353      Z:    -0.7323     Total:     3.0402

*** Psi4 exiting successfully. Buy a developer a beer!
