                               Psi4 1.4a3.dev225

  ==> Input File <==

--------------------------------------------------------------------------
#psi4
#
memory 32 gb

molecule  {
0 1
  O       -1.3621950    -1.7118670    -1.0487160
  O        1.3250660    -1.5098260    -0.8661080
  O       -3.0202870    -0.6972320     0.8011600
  O        1.4000820    -0.3698310     1.7931610
  O       -3.3935320     1.8007080    -0.1346550
  O        2.6070010     1.5395500    -0.9938350
  O        3.6924620     0.1319130     0.4259740
  C       -0.8211920    -0.9649900     0.0477000
  C        0.4956150    -0.4174700    -0.4760140
  C       -1.8427190     0.0633310     0.5156670
  C        1.2861160     0.3473610     0.5837090
  C       -2.1923660     1.1169960    -0.5276460
  C        2.6663270     0.6479390     0.0251960
  H       -0.6001840    -1.6333830     0.8895000
  H        0.3094840     0.2426950    -1.3366810
  H       -1.4776870     0.5490530     1.4357690
  H        0.7848540     1.2951930     0.8109900
  H       -2.4256530     0.6242850    -1.4728150
  H       -1.3693410     1.8242450    -0.6894300
  H       -2.2436880    -1.9988170    -0.7384990
  H        0.8583962    -1.9910711    -1.2589677
  H       -3.7555350    -0.0560060     0.7240450
  H        2.1352240    -0.9985780     1.6549180
  H       -3.1588320     2.4130520     0.5846580
  H        3.5236120     1.6268920    -1.3298730
units angstrom
no_reorient  #important for SAPT in psi4, default
symmetry c1  #important for SAPT in psi4, default
}

set PROPERTIES_ORIGIN ["COM"]
properties('MP2/aug-cc-pvtz', properties = ['dipole'])
--------------------------------------------------------------------------

    Molecular point group: c1
  Charge       = 0
  Multiplicity = 1
  Basis Set: AUG-CC-PVTZ
    Blend: AUG-CC-PVTZ
  Basis Set: (AUG-CC-PVTZ AUX)
    Blend: AUG-CC-PVTZ-JKFIT

    Orbital Energies [Eh]
    ---------------------

    Doubly Occupied:

       1A    -20.632714     2A    -20.592413     3A    -20.576277
       4A    -20.575597     5A    -20.571355     6A    -20.566416
       7A    -20.553357     8A    -11.403205     9A    -11.319951
      10A    -11.307552    11A    -11.302881    12A    -11.300879
      13A    -11.296853    14A     -1.477916    15A     -1.441615
      16A     -1.403996    17A     -1.389268    18A     -1.377698
      19A     -1.366262    20A     -1.354735    21A     -1.089081
      22A     -1.031832    23A     -0.963814    24A     -0.896017
      25A     -0.831704    26A     -0.817660    27A     -0.767223
      28A     -0.738214    29A     -0.729412    30A     -0.715808
      31A     -0.714780    32A     -0.691616    33A     -0.682109
      34A     -0.654502    35A     -0.645141    36A     -0.641047
      37A     -0.630379    38A     -0.610450    39A     -0.602699
      40A     -0.584504    41A     -0.556556    42A     -0.550324
      43A     -0.544653    44A     -0.535096    45A     -0.534226
      46A     -0.503629    47A     -0.497140    48A     -0.487574
      49A     -0.470444    50A     -0.461151    51A     -0.458603
      52A     -0.444022

  @DF-RHF Final Energy:  -758.47936156005642

   => Energetics <=

    Nuclear Repulsion Energy =            917.0640734042858639
    One-Electron Energy =               -2865.3021712017166465
    Two-Electron Energy =                1189.7587362373742508
    Total Energy =                       -758.4793615600565317
  Basis Set: (AUG-CC-PVTZ AUX)
    Blend: AUG-CC-PVTZ-RI
    Molecular point group: c1

    Geometry (in Angstrom), charge = 0, multiplicity = 1:

       Center              X                  Y                   Z               Mass
    ------------   -----------------  -----------------  -----------------  -----------------
         O           -1.400934333415    -1.703549091681    -1.053424228910    15.994914619570
         O            1.286326666585    -1.501508091681    -0.870816228910    15.994914619570
         O           -3.059026333415    -0.688914091681     0.796451771090    15.994914619570
         O            1.361342666585    -0.361513091681     1.788452771090    15.994914619570
         O           -3.432271333415     1.809025908319    -0.139363228910    15.994914619570
         O            2.568261666585     1.547867908319    -0.998543228910    15.994914619570
         O            3.653722666585     0.140230908319     0.421265771090    15.994914619570
         C           -0.859931333415    -0.956672091681     0.042991771090    12.000000000000
         C            0.456875666585    -0.409152091681    -0.480722228910    12.000000000000
         C           -1.881458333415     0.071648908319     0.510958771090    12.000000000000
         C            1.247376666585     0.355678908319     0.579000771090    12.000000000000
         C           -2.231105333415     1.125313908319    -0.532354228910    12.000000000000
         C            2.627587666585     0.656256908319     0.020487771090    12.000000000000
         H           -0.638923333415    -1.625065091681     0.884791771090     1.007825032230
         H            0.270744666585     0.251012908319    -1.341389228910     1.007825032230
         H           -1.516426333415     0.557370908319     1.431060771090     1.007825032230
         H            0.746114666585     1.303510908319     0.806281771090     1.007825032230
         H           -2.464392333415     0.632602908319    -1.477523228910     1.007825032230
         H           -1.408080333415     1.832562908319    -0.694138228910     1.007825032230
         H           -2.282427333415    -1.990499091681    -0.743207228910     1.007825032230
         H            0.819656866585    -1.982753191681    -1.263675928910     1.007825032230
         H           -3.794274333415    -0.047688091681     0.719336771090     1.007825032230
         H            2.096484666585    -0.990260091681     1.650209771090     1.007825032230
         H           -3.197571333415     2.421369908319     0.579949771090     1.007825032230
         H            3.484872666585     1.635209908319    -1.334581228910     1.007825032230

  Basis Set: AUG-CC-PVTZ
    Blend: AUG-CC-PVTZ
  Basis Set: (AUG-CC-PVTZ AUX)
    Blend: AUG-CC-PVTZ-JKFIT
	 Reference Energy          =    -758.4793615600564181 [Eh]
	 Singles Energy            =      -0.0000000000000000 [Eh]
	 Same-Spin Energy          =      -0.7316593116835273 [Eh]
	 Opposite-Spin Energy      =      -2.2253181617623436 [Eh]
	 Correlation Energy        =      -2.9569774734458711 [Eh]
	 Total Energy              =    -761.4363390335022359 [Eh]

	 ================> DF-SCS-MP2 Energies <==================
	-----------------------------------------------------------
	 SCS Same-Spin Scale       =       0.3333333333333333 [-]
	 SCS Opposite-Spin Scale   =       1.2000000000000000 [-]
	 SCS Same-Spin Energy      =      -0.2438864372278424 [Eh]
	 SCS Opposite-Spin Energy  =      -2.6703817941148125 [Eh]
	 SCS Correlation Energy    =      -2.9142682313426547 [Eh]
	 SCS Total Energy          =    -761.3936297913991211 [Eh]
	-----------------------------------------------------------

  Dipole Moment: [D]
     X:    -1.0978      Y:     2.8535      Z:    -0.6845     Total:     3.1331

*** Psi4 exiting successfully. Buy a developer a beer!
