                               Psi4 1.4a3.dev225

  ==> Input File <==

--------------------------------------------------------------------------
#psi4
#
memory 32 gb

molecule  {
0 1
  O       -1.3621950    -1.7118670    -1.0487160
  O        1.3250660    -1.5098260    -0.8661080
  O       -3.0202870    -0.6972320     0.8011600
  O        1.4000820    -0.3698310     1.7931610
  O       -3.3935320     1.8007080    -0.1346550
  O        2.6070010     1.5395500    -0.9938350
  O        3.6924620     0.1319130     0.4259740
  C       -0.8211920    -0.9649900     0.0477000
  C        0.4956150    -0.4174700    -0.4760140
  C       -1.8427190     0.0633310     0.5156670
  C        1.2861160     0.3473610     0.5837090
  C       -2.1923660     1.1169960    -0.5276460
  C        2.6663270     0.6479390     0.0251960
  H       -0.6001840    -1.6333830     0.8895000
  H        0.3094840     0.2426950    -1.3366810
  H       -1.4776870     0.5490530     1.4357690
  H        0.7848540     1.2951930     0.8109900
  H       -2.4256530     0.6242850    -1.4728150
  H       -1.3693410     1.8242450    -0.6894300
  H       -2.2436880    -1.9988170    -0.7384990
  H        0.7382740    -2.1149450    -1.3600910
  H       -3.7555350    -0.0560060     0.7240450
  H        2.1352240    -0.9985780     1.6549180
  H       -3.1588320     2.4130520     0.5846580
  H        3.4768541     1.6224365    -1.3127311
units angstrom
no_reorient  #important for SAPT in psi4, default
symmetry c1  #important for SAPT in psi4, default
}

set PROPERTIES_ORIGIN ["COM"]
properties('MP2/aug-cc-pvtz', properties = ['dipole'])
--------------------------------------------------------------------------

    Molecular point group: c1
  Charge       = 0
  Multiplicity = 1
  Basis Set: AUG-CC-PVTZ
    Blend: AUG-CC-PVTZ
  Basis Set: (AUG-CC-PVTZ AUX)
    Blend: AUG-CC-PVTZ-JKFIT

    Orbital Energies [Eh]
    ---------------------

    Doubly Occupied:

       1A    -20.628211     2A    -20.592207     3A    -20.575457
       4A    -20.575094     5A    -20.573307     6A    -20.570724
       7A    -20.566130     8A    -11.402919     9A    -11.318548
      10A    -11.304668    11A    -11.302430    12A    -11.300620
      13A    -11.296080    14A     -1.484221    15A     -1.408179
      16A     -1.397764    17A     -1.385194    18A     -1.371156
      19A     -1.363718    20A     -1.350855    21A     -1.081020
      22A     -1.029558    23A     -0.962710    24A     -0.890241
      25A     -0.836871    26A     -0.803434    27A     -0.759113
      28A     -0.738532    29A     -0.728101    30A     -0.715458
      31A     -0.714553    32A     -0.683419    33A     -0.676865
      34A     -0.651313    35A     -0.641968    36A     -0.637992
      37A     -0.628962    38A     -0.608509    39A     -0.602258
      40A     -0.581687    41A     -0.553923    42A     -0.550308
      43A     -0.540346    44A     -0.534474    45A     -0.531525
      46A     -0.503498    47A     -0.497158    48A     -0.485201
      49A     -0.466667    50A     -0.460520    51A     -0.455800
      52A     -0.443194

  @DF-RHF Final Energy:  -758.52431838953828

   => Energetics <=

    Nuclear Repulsion Energy =            915.9400206253108081
    One-Electron Energy =               -2863.4033564782826033
    Two-Electron Energy =                1188.9390174634334016
    Total Energy =                       -758.5243183895383936
  Basis Set: (AUG-CC-PVTZ AUX)
    Blend: AUG-CC-PVTZ-RI
    Molecular point group: c1

    Geometry (in Angstrom), charge = 0, multiplicity = 1:

       Center              X                  Y                   Z               Mass
    ------------   -----------------  -----------------  -----------------  -----------------
         O           -1.400076497048    -1.702889422695    -1.052992527951    15.994914619570
         O            1.287184502952    -1.500848422695    -0.870384527951    15.994914619570
         O           -3.058168497048    -0.688254422695     0.796883472049    15.994914619570
         O            1.362200502952    -0.360853422695     1.788884472049    15.994914619570
         O           -3.431413497048     1.809685577305    -0.138931527951    15.994914619570
         O            2.569119502952     1.548527577305    -0.998111527951    15.994914619570
         O            3.654580502952     0.140890577305     0.421697472049    15.994914619570
         C           -0.859073497048    -0.956012422695     0.043423472049    12.000000000000
         C            0.457733502952    -0.408492422695    -0.480290527951    12.000000000000
         C           -1.880600497048     0.072308577305     0.511390472049    12.000000000000
         C            1.248234502952     0.356338577305     0.579432472049    12.000000000000
         C           -2.230247497048     1.125973577305    -0.531922527951    12.000000000000
         C            2.628445502952     0.656916577305     0.020919472049    12.000000000000
         H           -0.638065497048    -1.624405422695     0.885223472049     1.007825032230
         H            0.271602502952     0.251672577305    -1.340957527951     1.007825032230
         H           -1.515568497048     0.558030577305     1.431492472049     1.007825032230
         H            0.746972502952     1.304170577305     0.806713472049     1.007825032230
         H           -2.463534497048     0.633262577305    -1.477091527951     1.007825032230
         H           -1.407222497048     1.833222577305    -0.693706527951     1.007825032230
         H           -2.281569497048    -1.989839422695    -0.742775527951     1.007825032230
         H            0.700392502952    -2.105967422695    -1.364367527951     1.007825032230
         H           -3.793416497048    -0.047028422695     0.719768472049     1.007825032230
         H            2.097342502952    -0.989600422695     1.650641472049     1.007825032230
         H           -3.196713497048     2.422029577305     0.580381472049     1.007825032230
         H            3.438972602952     1.631414077305    -1.317007627951     1.007825032230

  Basis Set: AUG-CC-PVTZ
    Blend: AUG-CC-PVTZ
  Basis Set: (AUG-CC-PVTZ AUX)
    Blend: AUG-CC-PVTZ-JKFIT
	 Reference Energy          =    -758.5243183895382799 [Eh]
	 Singles Energy            =      -0.0000000000000000 [Eh]
	 Same-Spin Energy          =      -0.7336758008313350 [Eh]
	 Opposite-Spin Energy      =      -2.2295680355151437 [Eh]
	 Correlation Energy        =      -2.9632438363464786 [Eh]
	 Total Energy              =    -761.4875622258847443 [Eh]

	 ================> DF-SCS-MP2 Energies <==================
	-----------------------------------------------------------
	 SCS Same-Spin Scale       =       0.3333333333333333 [-]
	 SCS Opposite-Spin Scale   =       1.2000000000000000 [-]
	 SCS Same-Spin Energy      =      -0.2445586002771117 [Eh]
	 SCS Opposite-Spin Energy  =      -2.6754816426181725 [Eh]
	 SCS Correlation Energy    =      -2.9200402428952841 [Eh]
	 SCS Total Energy          =    -761.4443586324335911 [Eh]
	-----------------------------------------------------------

  Dipole Moment: [D]
     X:    -1.2705      Y:     2.6564      Z:    -0.7687     Total:     3.0432

*** Psi4 exiting successfully. Buy a developer a beer!
