                               Psi4 1.4a3.dev225

  ==> Input File <==

--------------------------------------------------------------------------
#psi4
#
memory 32 gb

molecule  {
0 1
  O       -1.3621950    -1.7118670    -1.0487160
  O        1.3250660    -1.5098260    -0.8661080
  O       -3.0202870    -0.6972320     0.8011600
  O        1.4000820    -0.3698310     1.7931610
  O       -3.3935320     1.8007080    -0.1346550
  O        2.6070010     1.5395500    -0.9938350
  O        3.6924620     0.1319130     0.4259740
  C       -0.8211920    -0.9649900     0.0477000
  C        0.4956150    -0.4174700    -0.4760140
  C       -1.8427190     0.0633310     0.5156670
  C        1.2488557     0.3728686     0.6033481
  C       -2.1923660     1.1169960    -0.5276460
  C        2.6663270     0.6479390     0.0251960
  H       -0.6001840    -1.6333830     0.8895000
  H        0.3094840     0.2426950    -1.3366810
  H       -1.4776870     0.5490530     1.4357690
  H        0.7848540     1.2951930     0.8109900
  H       -2.4256530     0.6242850    -1.4728150
  H       -1.3693410     1.8242450    -0.6894300
  H       -2.2436880    -1.9988170    -0.7384990
  H        0.7382740    -2.1149450    -1.3600910
  H       -3.7555350    -0.0560060     0.7240450
  H        2.1352240    -0.9985780     1.6549180
  H       -3.1588320     2.4130520     0.5846580
  H        3.5236120     1.6268920    -1.3298730
units angstrom
no_reorient  #important for SAPT in psi4, default
symmetry c1  #important for SAPT in psi4, default
}

set PROPERTIES_ORIGIN ["COM"]
properties('MP2/aug-cc-pvtz', properties = ['dipole'])
--------------------------------------------------------------------------

    Molecular point group: c1
  Charge       = 0
  Multiplicity = 1
  Basis Set: AUG-CC-PVTZ
    Blend: AUG-CC-PVTZ
  Basis Set: (AUG-CC-PVTZ AUX)
    Blend: AUG-CC-PVTZ-JKFIT

    Orbital Energies [Eh]
    ---------------------

    Doubly Occupied:

       1A    -20.630681     2A    -20.592272     3A    -20.575419
       4A    -20.573214     5A    -20.572540     6A    -20.571132
       7A    -20.564921     8A    -11.401977     9A    -11.318433
      10A    -11.304428    11A    -11.302430    12A    -11.300704
      13A    -11.295118    14A     -1.474787    15A     -1.407599
      16A     -1.395361    17A     -1.382826    18A     -1.369221
      19A     -1.362016    20A     -1.350368    21A     -1.080256
      22A     -1.025672    23A     -0.959365    24A     -0.886575
      25A     -0.832290    26A     -0.804740    27A     -0.757124
      28A     -0.731974    29A     -0.725442    30A     -0.715484
      31A     -0.712123    32A     -0.683135    33A     -0.677629
      34A     -0.648811    35A     -0.643178    36A     -0.639341
      37A     -0.628378    38A     -0.607903    39A     -0.602591
      40A     -0.583382    41A     -0.552713    42A     -0.550080
      43A     -0.536961    44A     -0.533865    45A     -0.531749
      46A     -0.503497    47A     -0.495470    48A     -0.485134
      49A     -0.466510    50A     -0.458071    51A     -0.454704
      52A     -0.440189

  @DF-RHF Final Energy:  -758.52130318922207

   => Energetics <=

    Nuclear Repulsion Energy =            915.1767160783476811
    One-Electron Energy =               -2861.9964782351862596
    Two-Electron Energy =                1188.2984589676163978
    Total Energy =                       -758.5213031892221807
  Basis Set: (AUG-CC-PVTZ AUX)
    Blend: AUG-CC-PVTZ-RI
    Molecular point group: c1

    Geometry (in Angstrom), charge = 0, multiplicity = 1:

       Center              X                  Y                   Z               Mass
    ------------   -----------------  -----------------  -----------------  -----------------
         O           -1.398036288536    -1.704473551294    -1.054106447439    15.994914619570
         O            1.289224711464    -1.502432551294    -0.871498447439    15.994914619570
         O           -3.056128288536    -0.689838551294     0.795769552561    15.994914619570
         O            1.364240711464    -0.362437551294     1.787770552561    15.994914619570
         O           -3.429373288536     1.808101448706    -0.140045447439    15.994914619570
         O            2.571159711464     1.546943448706    -0.999225447439    15.994914619570
         O            3.656620711464     0.139306448706     0.420583552561    15.994914619570
         C           -0.857033288536    -0.957596551294     0.042309552561    12.000000000000
         C            0.459773711464    -0.410076551294    -0.481404447439    12.000000000000
         C           -1.878560288536     0.070724448706     0.510276552561    12.000000000000
         C            1.213014411464     0.380262048706     0.597957652561    12.000000000000
         C           -2.228207288536     1.124389448706    -0.533036447439    12.000000000000
         C            2.630485711464     0.655332448706     0.019805552561    12.000000000000
         H           -0.636025288536    -1.625989551294     0.884109552561     1.007825032230
         H            0.273642711464     0.250088448706    -1.342071447439     1.007825032230
         H           -1.513528288536     0.556446448706     1.430378552561     1.007825032230
         H            0.749012711464     1.302586448706     0.805599552561     1.007825032230
         H           -2.461494288536     0.631678448706    -1.478205447439     1.007825032230
         H           -1.405182288536     1.831638448706    -0.694820447439     1.007825032230
         H           -2.279529288536    -1.991423551294    -0.743889447439     1.007825032230
         H            0.702432711464    -2.107551551294    -1.365481447439     1.007825032230
         H           -3.791376288536    -0.048612551294     0.718654552561     1.007825032230
         H            2.099382711464    -0.991184551294     1.649527552561     1.007825032230
         H           -3.194673288536     2.420445448706     0.579267552561     1.007825032230
         H            3.487770711464     1.634285448706    -1.335263447439     1.007825032230

  Basis Set: AUG-CC-PVTZ
    Blend: AUG-CC-PVTZ
  Basis Set: (AUG-CC-PVTZ AUX)
    Blend: AUG-CC-PVTZ-JKFIT
	 Reference Energy          =    -758.5213031892220670 [Eh]
	 Singles Energy            =      -0.0000000000000000 [Eh]
	 Same-Spin Energy          =      -0.7341516733944353 [Eh]
	 Opposite-Spin Energy      =      -2.2308000149322922 [Eh]
	 Correlation Energy        =      -2.9649516883267273 [Eh]
	 Total Energy              =    -761.4862548775488449 [Eh]

	 ================> DF-SCS-MP2 Energies <==================
	-----------------------------------------------------------
	 SCS Same-Spin Scale       =       0.3333333333333333 [-]
	 SCS Opposite-Spin Scale   =       1.2000000000000000 [-]
	 SCS Same-Spin Energy      =      -0.2447172244648118 [Eh]
	 SCS Opposite-Spin Energy  =      -2.6769600179187507 [Eh]
	 SCS Correlation Energy    =      -2.9216772423835624 [Eh]
	 SCS Total Energy          =    -761.4429804316056334 [Eh]
	-----------------------------------------------------------

  Dipole Moment: [D]
     X:    -1.2166      Y:     2.7140      Z:    -0.7943     Total:     3.0784

*** Psi4 exiting successfully. Buy a developer a beer!
