                               Psi4 1.4a3.dev225

  ==> Input File <==

--------------------------------------------------------------------------
#psi4
#
memory 32 gb

molecule  {
0 1
  O       -1.3621950    -1.7118670    -1.0487160
  O        1.3250660    -1.5098260    -0.8661080
  O       -3.0202870    -0.6972320     0.8011600
  O        1.4000820    -0.3698310     1.7931610
  O       -3.3935320     1.8007080    -0.1346550
  O        2.6070010     1.5395500    -0.9938350
  O        3.6924620     0.1319130     0.4259740
  C       -0.8211920    -0.9649900     0.0477000
  C        0.4956150    -0.4174700    -0.4760140
  C       -1.8427190     0.0633310     0.5156670
  C        1.2861160     0.3473610     0.5837090
  C       -2.1923660     1.1169960    -0.5276460
  C        2.6663270     0.6479390     0.0251960
  H       -0.6001840    -1.6333830     0.8895000
  H        0.3094840     0.2426950    -1.3366810
  H       -1.4776870     0.5490530     1.4357690
  H        0.7848540     1.2951930     0.8109900
  H       -2.4256530     0.6242850    -1.4728150
  H       -1.3693410     1.8242450    -0.6894300
  H       -2.2436880    -1.9988170    -0.7384990
  H        0.7382740    -2.1149450    -1.3600910
  H       -3.7555350    -0.0560060     0.7240450
  H        2.1352240    -0.9985780     1.6549180
  H       -3.1588320     2.4130520     0.5846580
  H        3.5236120     1.6268920    -1.3298730
units angstrom
no_reorient  #important for SAPT in psi4, default
symmetry c1  #important for SAPT in psi4, default
}

set PROPERTIES_ORIGIN ["COM"]
properties('MP2/aug-cc-pvtz', properties = ['dipole'])
--------------------------------------------------------------------------

    Molecular point group: c1
  Charge       = 0
  Multiplicity = 1
  Basis Set: AUG-CC-PVTZ
    Blend: AUG-CC-PVTZ
  Basis Set: (AUG-CC-PVTZ AUX)
    Blend: AUG-CC-PVTZ-JKFIT

    Orbital Energies [Eh]
    ---------------------

    Doubly Occupied:

       1A    -20.631449     2A    -20.592048     3A    -20.575286
       4A    -20.574787     5A    -20.573103     6A    -20.570420
       7A    -20.565098     8A    -11.401899     9A    -11.318259
      10A    -11.304343    11A    -11.302231    12A    -11.300433
      13A    -11.295835    14A     -1.476294    15A     -1.407797
      16A     -1.396367    17A     -1.383703    18A     -1.369559
      19A     -1.362546    20A     -1.350608    21A     -1.080401
      22A     -1.028173    23A     -0.961327    24A     -0.888240
      25A     -0.830664    26A     -0.802685    27A     -0.757995
      28A     -0.736601    29A     -0.725657    30A     -0.715271
      31A     -0.712570    32A     -0.683096    33A     -0.676354
      34A     -0.649990    35A     -0.640337    36A     -0.636843
      37A     -0.628577    38A     -0.607115    39A     -0.601918
      40A     -0.581053    41A     -0.553277    42A     -0.550114
      43A     -0.539572    44A     -0.534263    45A     -0.531132
      46A     -0.503287    47A     -0.495725    48A     -0.484546
      49A     -0.466426    50A     -0.460031    51A     -0.455503
      52A     -0.442868

  @DF-RHF Final Energy:  -758.52355673011380

   => Energetics <=

    Nuclear Repulsion Energy =            915.5854805091471462
    One-Electron Energy =               -2862.7907247055195512
    Two-Electron Energy =                1188.6816874662586088
    Total Energy =                       -758.5235567301137962
  Basis Set: (AUG-CC-PVTZ AUX)
    Blend: AUG-CC-PVTZ-RI
    Molecular point group: c1

    Geometry (in Angstrom), charge = 0, multiplicity = 1:

       Center              X                  Y                   Z               Mass
    ------------   -----------------  -----------------  -----------------  -----------------
         O           -1.400316853010    -1.702912325905    -1.052904411122    15.994914619570
         O            1.286944146990    -1.500871325905    -0.870296411122    15.994914619570
         O           -3.058408853010    -0.688277325905     0.796971588878    15.994914619570
         O            1.361960146990    -0.360876325905     1.788972588878    15.994914619570
         O           -3.431653853010     1.809662674095    -0.138843411122    15.994914619570
         O            2.568879146990     1.548504674095    -0.998023411122    15.994914619570
         O            3.654340146990     0.140867674095     0.421785588878    15.994914619570
         C           -0.859313853010    -0.956035325905     0.043511588878    12.000000000000
         C            0.457493146990    -0.408515325905    -0.480202411122    12.000000000000
         C           -1.880840853010     0.072285674095     0.511478588878    12.000000000000
         C            1.247994146990     0.356315674095     0.579520588878    12.000000000000
         C           -2.230487853010     1.125950674095    -0.531834411122    12.000000000000
         C            2.628205146990     0.656893674095     0.021007588878    12.000000000000
         H           -0.638305853010    -1.624428325905     0.885311588878     1.007825032230
         H            0.271362146990     0.251649674095    -1.340869411122     1.007825032230
         H           -1.515808853010     0.558007674095     1.431580588878     1.007825032230
         H            0.746732146990     1.304147674095     0.806801588878     1.007825032230
         H           -2.463774853010     0.633239674095    -1.477003411122     1.007825032230
         H           -1.407462853010     1.833199674095    -0.693618411122     1.007825032230
         H           -2.281809853010    -1.989862325905    -0.742687411122     1.007825032230
         H            0.700152146990    -2.105990325905    -1.364279411122     1.007825032230
         H           -3.793656853010    -0.047051325905     0.719856588878     1.007825032230
         H            2.097102146990    -0.989623325905     1.650729588878     1.007825032230
         H           -3.196953853010     2.422006674095     0.580469588878     1.007825032230
         H            3.485490146990     1.635846674095    -1.334061411122     1.007825032230

  Basis Set: AUG-CC-PVTZ
    Blend: AUG-CC-PVTZ
  Basis Set: (AUG-CC-PVTZ AUX)
    Blend: AUG-CC-PVTZ-JKFIT
	 Reference Energy          =    -758.5235567301137962 [Eh]
	 Singles Energy            =      -0.0000000000000000 [Eh]
	 Same-Spin Energy          =      -0.7343170952869649 [Eh]
	 Opposite-Spin Energy      =      -2.2310062832668573 [Eh]
	 Correlation Energy        =      -2.9653233785538222 [Eh]
	 Total Energy              =    -761.4888801086676722 [Eh]

	 ================> DF-SCS-MP2 Energies <==================
	-----------------------------------------------------------
	 SCS Same-Spin Scale       =       0.3333333333333333 [-]
	 SCS Opposite-Spin Scale   =       1.2000000000000000 [-]
	 SCS Same-Spin Energy      =      -0.2447723650956549 [Eh]
	 SCS Opposite-Spin Energy  =      -2.6772075399202286 [Eh]
	 SCS Correlation Energy    =      -2.9219799050158834 [Eh]
	 SCS Total Energy          =    -761.4455366351296561 [Eh]
	-----------------------------------------------------------

  Dipole Moment: [D]
     X:    -1.2133      Y:     2.6755      Z:    -0.8034     Total:     3.0456

*** Psi4 exiting successfully. Buy a developer a beer!
