                               Psi4 1.4a3.dev225

  ==> Input File <==

--------------------------------------------------------------------------
#psi4
#
memory 32 gb

molecule  {
0 1
  O       -1.3621950    -1.7118670    -1.0487160
  O        1.3250660    -1.5098260    -0.8661080
  O       -3.0202870    -0.6972320     0.8011600
  O        1.4000820    -0.3698310     1.7931610
  O       -3.3935320     1.8007080    -0.1346550
  O        2.6070010     1.5395500    -0.9938350
  O        3.6924620     0.1319130     0.4259740
  C       -0.8211920    -0.9649900     0.0477000
  C        0.5072485    -0.4327908    -0.4814853
  C       -1.8427190     0.0633310     0.5156670
  C        1.2861160     0.3473610     0.5837090
  C       -2.1923660     1.1169960    -0.5276460
  C        2.6663270     0.6479390     0.0251960
  H       -0.6001840    -1.6333830     0.8895000
  H        0.3094840     0.2426950    -1.3366810
  H       -1.4776870     0.5490530     1.4357690
  H        0.7848540     1.2951930     0.8109900
  H       -2.4256530     0.6242850    -1.4728150
  H       -1.3693410     1.8242450    -0.6894300
  H       -2.2436880    -1.9988170    -0.7384990
  H        0.7382740    -2.1149450    -1.3600910
  H       -3.7555350    -0.0560060     0.7240450
  H        2.1352240    -0.9985780     1.6549180
  H       -3.1588320     2.4130520     0.5846580
  H        3.5236120     1.6268920    -1.3298730
units angstrom
no_reorient  #important for SAPT in psi4, default
symmetry c1  #important for SAPT in psi4, default
}

set PROPERTIES_ORIGIN ["COM"]
properties('MP2/aug-cc-pvtz', properties = ['dipole'])
--------------------------------------------------------------------------

    Molecular point group: c1
  Charge       = 0
  Multiplicity = 1
  Basis Set: AUG-CC-PVTZ
    Blend: AUG-CC-PVTZ
  Basis Set: (AUG-CC-PVTZ AUX)
    Blend: AUG-CC-PVTZ-JKFIT

    Orbital Energies [Eh]
    ---------------------

    Doubly Occupied:

       1A    -20.631211     2A    -20.591747     3A    -20.575158
       4A    -20.574423     5A    -20.572800     6A    -20.572628
       7A    -20.564871     8A    -11.401393     9A    -11.317733
      10A    -11.304555    11A    -11.302121    12A    -11.300066
      13A    -11.295342    14A     -1.476102    15A     -1.408892
      16A     -1.398014    17A     -1.384104    18A     -1.371369
      19A     -1.363160    20A     -1.352096    21A     -1.078283
      22A     -1.027428    23A     -0.960363    24A     -0.887755
      25A     -0.830002    26A     -0.803549    27A     -0.758625
      28A     -0.736164    29A     -0.725498    30A     -0.714974
      31A     -0.712220    32A     -0.683248    33A     -0.677563
      34A     -0.651462    35A     -0.640505    36A     -0.637404
      37A     -0.628451    38A     -0.607496    39A     -0.601855
      40A     -0.581901    41A     -0.553974    42A     -0.549858
      43A     -0.539315    44A     -0.534154    45A     -0.532802
      46A     -0.503208    47A     -0.495612    48A     -0.484344
      49A     -0.465391    50A     -0.459685    51A     -0.453857
      52A     -0.441284

  @DF-RHF Final Energy:  -758.52367698679473

   => Energetics <=

    Nuclear Repulsion Energy =            915.6020213967656218
    One-Electron Energy =               -2862.8193737315250473
    Two-Electron Energy =                1188.6936753479646995
    Total Energy =                       -758.5236769867947260
  Basis Set: (AUG-CC-PVTZ AUX)
    Blend: AUG-CC-PVTZ-RI
    Molecular point group: c1

    Geometry (in Angstrom), charge = 0, multiplicity = 1:

       Center              X                  Y                   Z               Mass
    ------------   -----------------  -----------------  -----------------  -----------------
         O           -1.401028896306    -1.701974596681    -1.052569533185    15.994914619570
         O            1.286232103694    -1.499933596681    -0.869961533185    15.994914619570
         O           -3.059120896306    -0.687339596681     0.797306466815    15.994914619570
         O            1.361248103694    -0.359938596681     1.789307466815    15.994914619570
         O           -3.432365896306     1.810600403319    -0.138508533185    15.994914619570
         O            2.568167103694     1.549442403319    -0.997688533185    15.994914619570
         O            3.653628103694     0.141805403319     0.422120466815    15.994914619570
         C           -0.860025896306    -0.955097596681     0.043846466815    12.000000000000
         C            0.468414603694    -0.422898396681    -0.485338833185    12.000000000000
         C           -1.881552896306     0.073223403319     0.511813466815    12.000000000000
         C            1.247282103694     0.357253403319     0.579855466815    12.000000000000
         C           -2.231199896306     1.126888403319    -0.531499533185    12.000000000000
         C            2.627493103694     0.657831403319     0.021342466815    12.000000000000
         H           -0.639017896306    -1.623490596681     0.885646466815     1.007825032230
         H            0.270650103694     0.252587403319    -1.340534533185     1.007825032230
         H           -1.516520896306     0.558945403319     1.431915466815     1.007825032230
         H            0.746020103694     1.305085403319     0.807136466815     1.007825032230
         H           -2.464486896306     0.634177403319    -1.476668533185     1.007825032230
         H           -1.408174896306     1.834137403319    -0.693283533185     1.007825032230
         H           -2.282521896306    -1.988924596681    -0.742352533185     1.007825032230
         H            0.699440103694    -2.105052596681    -1.363944533185     1.007825032230
         H           -3.794368896306    -0.046113596681     0.720191466815     1.007825032230
         H            2.096390103694    -0.988685596681     1.651064466815     1.007825032230
         H           -3.197665896306     2.422944403319     0.580804466815     1.007825032230
         H            3.484778103694     1.636784403319    -1.333726533185     1.007825032230

  Basis Set: AUG-CC-PVTZ
    Blend: AUG-CC-PVTZ
  Basis Set: (AUG-CC-PVTZ AUX)
    Blend: AUG-CC-PVTZ-JKFIT
	 Reference Energy          =    -758.5236769867947260 [Eh]
	 Singles Energy            =      -0.0000000000000000 [Eh]
	 Same-Spin Energy          =      -0.7342592991833576 [Eh]
	 Opposite-Spin Energy      =      -2.2306585199810645 [Eh]
	 Correlation Energy        =      -2.9649178191644223 [Eh]
	 Total Energy              =    -761.4885948059591101 [Eh]

	 ================> DF-SCS-MP2 Energies <==================
	-----------------------------------------------------------
	 SCS Same-Spin Scale       =       0.3333333333333333 [-]
	 SCS Opposite-Spin Scale   =       1.2000000000000000 [-]
	 SCS Same-Spin Energy      =      -0.2447530997277859 [Eh]
	 SCS Opposite-Spin Energy  =      -2.6767902239772772 [Eh]
	 SCS Correlation Energy    =      -2.9215433237050630 [Eh]
	 SCS Total Energy          =    -761.4452203104997352 [Eh]
	-----------------------------------------------------------

  Dipole Moment: [D]
     X:    -1.1823      Y:     2.6253      Z:    -0.8230     Total:     2.9945

*** Psi4 exiting successfully. Buy a developer a beer!
