                               Psi4 1.4a3.dev225

  ==> Input File <==

--------------------------------------------------------------------------
#psi4
#
memory 32 gb

molecule  {
0 1
  O       -1.3621950    -1.7118670    -1.0487160
  O        1.3250660    -1.5098260    -0.8661080
  O       -3.0202870    -0.6972320     0.8011600
  O        1.4000820    -0.3698310     1.7931610
  O       -3.3935320     1.8007080    -0.1346550
  O        2.6070010     1.5395500    -0.9938350
  O        3.6924620     0.1319130     0.4259740
  C       -0.8211920    -0.9649900     0.0477000
  C        0.4956150    -0.4174700    -0.4760140
  C       -1.8427190     0.0633310     0.5156670
  C        1.2861160     0.3473610     0.5837090
  C       -2.1923660     1.1169960    -0.5276460
  C        2.6663270     0.6479390     0.0251960
  H       -0.6001840    -1.6333830     0.8895000
  H        0.3094840     0.2426950    -1.3366810
  H       -1.4776870     0.5490530     1.4357690
  H        0.7848540     1.2951930     0.8109900
  H       -2.4256530     0.6242850    -1.4728150
  H       -1.3693410     1.8242450    -0.6894300
  H       -2.2436880    -1.9988170    -0.7384990
  H        0.7683045    -2.0839765    -1.3348102
  H       -3.7555350    -0.0560060     0.7240450
  H        2.1352240    -0.9985780     1.6549180
  H       -3.1588320     2.4130520     0.5846580
  H        3.5236120     1.6268920    -1.3298730
units angstrom
no_reorient  #important for SAPT in psi4, default
symmetry c1  #important for SAPT in psi4, default
}

set PROPERTIES_ORIGIN ["COM"]
properties('MP2/aug-cc-pvtz', properties = ['dipole'])
--------------------------------------------------------------------------

    Molecular point group: c1
  Charge       = 0
  Multiplicity = 1
  Basis Set: AUG-CC-PVTZ
    Blend: AUG-CC-PVTZ
  Basis Set: (AUG-CC-PVTZ AUX)
    Blend: AUG-CC-PVTZ-JKFIT

    Orbital Energies [Eh]
    ---------------------

    Doubly Occupied:

       1A    -20.631770     2A    -20.592128     3A    -20.575348
       4A    -20.575156     5A    -20.572608     6A    -20.567053
       7A    -20.565432     8A    -11.402225     9A    -11.318654
      10A    -11.305133    11A    -11.302374    12A    -11.300532
      13A    -11.296064    14A     -1.476651    15A     -1.409793
      16A     -1.399035    17A     -1.384898    18A     -1.372533
      19A     -1.364056    20A     -1.352743    21A     -1.082205
      22A     -1.029030    23A     -0.961852    24A     -0.889764
      25A     -0.830925    26A     -0.805651    27A     -0.760159
      28A     -0.736947    29A     -0.726621    30A     -0.715379
      31A     -0.713124    32A     -0.683974    33A     -0.679054
      34A     -0.651257    35A     -0.641186    36A     -0.638736
      37A     -0.629241    38A     -0.608017    39A     -0.602097
      40A     -0.581935    41A     -0.553983    42A     -0.550141
      43A     -0.541024    44A     -0.534515    45A     -0.532039
      46A     -0.503362    47A     -0.496084    48A     -0.485321
      49A     -0.467239    50A     -0.460301    51A     -0.456436
      52A     -0.443194

  @DF-RHF Final Energy:  -758.52439163493489

   => Energetics <=

    Nuclear Repulsion Energy =            915.9093403303164678
    One-Electron Energy =               -2863.3575099643462636
    Two-Electron Energy =                1188.9237779990949093
    Total Energy =                       -758.5243916349350002
  Basis Set: (AUG-CC-PVTZ AUX)
    Blend: AUG-CC-PVTZ-RI
    Molecular point group: c1

    Geometry (in Angstrom), charge = 0, multiplicity = 1:

       Center              X                  Y                   Z               Mass
    ------------   -----------------  -----------------  -----------------  -----------------
         O           -1.400471222854    -1.703071517478    -1.053034365441    15.994914619570
         O            1.286789777146    -1.501030517478    -0.870426365441    15.994914619570
         O           -3.058563222854    -0.688436517478     0.796841634559    15.994914619570
         O            1.361805777146    -0.361035517478     1.788842634559    15.994914619570
         O           -3.431808222854     1.809503482522    -0.138973365441    15.994914619570
         O            2.568724777146     1.548345482522    -0.998153365441    15.994914619570
         O            3.654185777146     0.140708482522     0.421655634559    15.994914619570
         C           -0.859468222854    -0.956194517478     0.043381634559    12.000000000000
         C            0.457338777146    -0.408674517478    -0.480332365441    12.000000000000
         C           -1.880995222854     0.072126482522     0.511348634559    12.000000000000
         C            1.247839777146     0.356156482522     0.579390634559    12.000000000000
         C           -2.230642222854     1.125791482522    -0.531964365441    12.000000000000
         C            2.628050777146     0.656734482522     0.020877634559    12.000000000000
         H           -0.638460222854    -1.624587517478     0.885181634559     1.007825032230
         H            0.271207777146     0.251490482522    -1.340999365441     1.007825032230
         H           -1.515963222854     0.557848482522     1.431450634559     1.007825032230
         H            0.746577777146     1.303988482522     0.806671634559     1.007825032230
         H           -2.463929222854     0.633080482522    -1.477133365441     1.007825032230
         H           -1.407617222854     1.833040482522    -0.693748365441     1.007825032230
         H           -2.281964222854    -1.990021517478    -0.742817365441     1.007825032230
         H            0.730028277146    -2.075181017478    -1.339128565441     1.007825032230
         H           -3.793811222854    -0.047210517478     0.719726634559     1.007825032230
         H            2.096947777146    -0.989782517478     1.650599634559     1.007825032230
         H           -3.197108222854     2.421847482522     0.580339634559     1.007825032230
         H            3.485335777146     1.635687482522    -1.334191365441     1.007825032230

  Basis Set: AUG-CC-PVTZ
    Blend: AUG-CC-PVTZ
  Basis Set: (AUG-CC-PVTZ AUX)
    Blend: AUG-CC-PVTZ-JKFIT
	 Reference Energy          =    -758.5243916349348865 [Eh]
	 Singles Energy            =      -0.0000000000000000 [Eh]
	 Same-Spin Energy          =      -0.7336272083281871 [Eh]
	 Opposite-Spin Energy      =      -2.2294417796355748 [Eh]
	 Correlation Energy        =      -2.9630689879637617 [Eh]
	 Total Energy              =    -761.4874606228986522 [Eh]

	 ================> DF-SCS-MP2 Energies <==================
	-----------------------------------------------------------
	 SCS Same-Spin Scale       =       0.3333333333333333 [-]
	 SCS Opposite-Spin Scale   =       1.2000000000000000 [-]
	 SCS Same-Spin Energy      =      -0.2445424027760623 [Eh]
	 SCS Opposite-Spin Energy  =      -2.6753301355626897 [Eh]
	 SCS Correlation Energy    =      -2.9198725383387520 [Eh]
	 SCS Total Energy          =    -761.4442641732736092 [Eh]
	-----------------------------------------------------------

  Dipole Moment: [D]
     X:    -1.1796      Y:     2.7188      Z:    -0.7744     Total:     3.0632

*** Psi4 exiting successfully. Buy a developer a beer!
