                               Psi4 1.4a3.dev225

  ==> Input File <==

--------------------------------------------------------------------------
#psi4
#
memory 32 gb

molecule  {
0 1
  O       -1.3621950    -1.7118670    -1.0487160
  O        1.3250660    -1.5098260    -0.8661080
  O       -3.0202870    -0.6972320     0.8011600
  O        1.4000820    -0.3698310     1.7931610
  O       -3.3935320     1.8007080    -0.1346550
  O        2.6070010     1.5395500    -0.9938350
  O        3.6924620     0.1319130     0.4259740
  C       -0.8211920    -0.9649900     0.0477000
  C        0.4956150    -0.4174700    -0.4760140
  C       -1.8427190     0.0633310     0.5156670
  C        1.2861160     0.3473610     0.5837090
  C       -2.1923660     1.1169960    -0.5276460
  C        2.6663270     0.6479390     0.0251960
  H       -0.6001840    -1.6333830     0.8895000
  H        0.3094840     0.2426950    -1.3366810
  H       -1.4776870     0.5490530     1.4357690
  H        0.7848540     1.2951930     0.8109900
  H       -2.4256530     0.6242850    -1.4728150
  H       -1.3693410     1.8242450    -0.6894300
  H       -2.2436880    -1.9988170    -0.7384990
  H        0.7382740    -2.1149450    -1.3600910
  H       -3.8306657     0.0095171     0.7161651
  H        2.1352240    -0.9985780     1.6549180
  H       -3.1588320     2.4130520     0.5846580
  H        3.5236120     1.6268920    -1.3298730
units angstrom
no_reorient  #important for SAPT in psi4, default
symmetry c1  #important for SAPT in psi4, default
}

set PROPERTIES_ORIGIN ["COM"]
properties('MP2/aug-cc-pvtz', properties = ['dipole'])
--------------------------------------------------------------------------

    Molecular point group: c1
  Charge       = 0
  Multiplicity = 1
  Basis Set: AUG-CC-PVTZ
    Blend: AUG-CC-PVTZ
  Basis Set: (AUG-CC-PVTZ AUX)
    Blend: AUG-CC-PVTZ-JKFIT

    Orbital Energies [Eh]
    ---------------------

    Doubly Occupied:

       1A    -20.631185     2A    -20.594200     3A    -20.579416
       4A    -20.574351     5A    -20.572184     6A    -20.569947
       7A    -20.564792     8A    -11.401577     9A    -11.317829
      10A    -11.303820    11A    -11.300794    12A    -11.300127
      13A    -11.295013    14A     -1.476010    15A     -1.403928
      16A     -1.395114    17A     -1.383627    18A     -1.367339
      19A     -1.359402    20A     -1.340795    21A     -1.078369
      22A     -1.025605    23A     -0.960934    24A     -0.884516
      25A     -0.829331    26A     -0.801240    27A     -0.755791
      28A     -0.735875    29A     -0.723208    30A     -0.715855
      31A     -0.709126    32A     -0.680264    33A     -0.670133
      34A     -0.649367    35A     -0.638766    36A     -0.634260
      37A     -0.627337    38A     -0.606520    39A     -0.601921
      40A     -0.579879    41A     -0.553005    42A     -0.542859
      43A     -0.538511    44A     -0.532933    45A     -0.528074
      46A     -0.503506    47A     -0.495431    48A     -0.483964
      49A     -0.464370    50A     -0.459314    51A     -0.453834
      52A     -0.442184

  @DF-RHF Final Energy:  -758.51007818199673

   => Energetics <=

    Nuclear Repulsion Energy =            915.0302510930755489
    One-Electron Energy =               -2861.8051925898494119
    Two-Electron Energy =                1188.2648633147771307
    Total Energy =                       -758.5100781819967324
  Basis Set: (AUG-CC-PVTZ AUX)
    Blend: AUG-CC-PVTZ-RI
    Molecular point group: c1

    Geometry (in Angstrom), charge = 0, multiplicity = 1:

       Center              X                  Y                   Z               Mass
    ------------   -----------------  -----------------  -----------------  -----------------
         O           -1.399930648503    -1.703249143165    -1.052863905006    15.994914619570
         O            1.287330351497    -1.501208143165    -0.870255905006    15.994914619570
         O           -3.058022648503    -0.688614143165     0.797012094994    15.994914619570
         O            1.362346351497    -0.361213143165     1.789013094994    15.994914619570
         O           -3.431267648503     1.809325856835    -0.138802905006    15.994914619570
         O            2.569265351497     1.548167856835    -0.997982905006    15.994914619570
         O            3.654726351497     0.140530856835     0.421826094994    15.994914619570
         C           -0.858927648503    -0.956372143165     0.043552094994    12.000000000000
         C            0.457879351497    -0.408852143165    -0.480161905006    12.000000000000
         C           -1.880454648503     0.071948856835     0.511519094994    12.000000000000
         C            1.248380351497     0.355978856835     0.579561094994    12.000000000000
         C           -2.230101648503     1.125613856835    -0.531793905006    12.000000000000
         C            2.628591351497     0.656556856835     0.021048094994    12.000000000000
         H           -0.637919648503    -1.624765143165     0.885352094994     1.007825032230
         H            0.271748351497     0.251312856835    -1.340828905006     1.007825032230
         H           -1.515422648503     0.557670856835     1.431621094994     1.007825032230
         H            0.747118351497     1.303810856835     0.806842094994     1.007825032230
         H           -2.463388648503     0.632902856835    -1.476962905006     1.007825032230
         H           -1.407076648503     1.832862856835    -0.693577905006     1.007825032230
         H           -2.281423648503    -1.990199143165    -0.742646905006     1.007825032230
         H            0.700538351497    -2.106327143165    -1.364238905006     1.007825032230
         H           -3.868401348503     0.018134956835     0.712017194994     1.007825032230
         H            2.097488351497    -0.989960143165     1.650770094994     1.007825032230
         H           -3.196567648503     2.421669856835     0.580510094994     1.007825032230
         H            3.485876351497     1.635509856835    -1.334020905006     1.007825032230

  Basis Set: AUG-CC-PVTZ
    Blend: AUG-CC-PVTZ
  Basis Set: (AUG-CC-PVTZ AUX)
    Blend: AUG-CC-PVTZ-JKFIT
	 Reference Energy          =    -758.5100781819967324 [Eh]
	 Singles Energy            =      -0.0000000000000000 [Eh]
	 Same-Spin Energy          =      -0.7358232305589270 [Eh]
	 Opposite-Spin Energy      =      -2.2344548960289687 [Eh]
	 Correlation Energy        =      -2.9702781265878957 [Eh]
	 Total Energy              =    -761.4803563085846463 [Eh]

	 ================> DF-SCS-MP2 Energies <==================
	-----------------------------------------------------------
	 SCS Same-Spin Scale       =       0.3333333333333333 [-]
	 SCS Opposite-Spin Scale   =       1.2000000000000000 [-]
	 SCS Same-Spin Energy      =      -0.2452744101863090 [Eh]
	 SCS Opposite-Spin Energy  =      -2.6813458752347623 [Eh]
	 SCS Correlation Energy    =      -2.9266202854210714 [Eh]
	 SCS Total Energy          =    -761.4366984674178411 [Eh]
	-----------------------------------------------------------

  Dipole Moment: [D]
     X:    -1.3158      Y:     2.7821      Z:    -0.8261     Total:     3.1865

*** Psi4 exiting successfully. Buy a developer a beer!
