                               Psi4 1.4a3.dev225

  ==> Input File <==

--------------------------------------------------------------------------
#psi4
#
memory 32 gb

molecule  {
0 1
  O       -1.3621950    -1.7118670    -1.0487160
  O        1.3250660    -1.5098260    -0.8661080
  O       -3.0202870    -0.6972320     0.8011600
  O        1.4000820    -0.3698310     1.7931610
  O       -3.3935320     1.8007080    -0.1346550
  O        2.6070010     1.5395500    -0.9938350
  O        3.6924620     0.1319130     0.4259740
  C       -0.8211920    -0.9649900     0.0477000
  C        0.4956150    -0.4174700    -0.4760140
  C       -1.8427190     0.0633310     0.5156670
  C        1.2861160     0.3473610     0.5837090
  C       -2.1923660     1.1169960    -0.5276460
  C        2.6663270     0.6479390     0.0251960
  H       -0.6001840    -1.6333830     0.8895000
  H        0.3094840     0.2426950    -1.3366810
  H       -1.4776870     0.5490530     1.4357690
  H        0.7848540     1.2951930     0.8109900
  H       -2.4256530     0.6242850    -1.4728150
  H       -1.3693410     1.8242450    -0.6894300
  H       -2.2436880    -1.9988170    -0.7384990
  H        0.7983351    -2.0530080    -1.3095294
  H       -3.7555350    -0.0560060     0.7240450
  H        2.1352240    -0.9985780     1.6549180
  H       -3.1588320     2.4130520     0.5846580
  H        3.5236120     1.6268920    -1.3298730
units angstrom
no_reorient  #important for SAPT in psi4, default
symmetry c1  #important for SAPT in psi4, default
}

set PROPERTIES_ORIGIN ["COM"]
properties('MP2/aug-cc-pvtz', properties = ['dipole'])
--------------------------------------------------------------------------

    Molecular point group: c1
  Charge       = 0
  Multiplicity = 1
  Basis Set: AUG-CC-PVTZ
    Blend: AUG-CC-PVTZ
  Basis Set: (AUG-CC-PVTZ AUX)
    Blend: AUG-CC-PVTZ-JKFIT

    Orbital Energies [Eh]
    ---------------------

    Doubly Occupied:

       1A    -20.632088     2A    -20.592216     3A    -20.575528
       4A    -20.575420     5A    -20.572152     6A    -20.565763
       7A    -20.563071     8A    -11.402552     9A    -11.319067
      10A    -11.305931    11A    -11.302531    12A    -11.300639
      13A    -11.296311    14A     -1.477021    15A     -1.415214
      16A     -1.401729    17A     -1.386509    18A     -1.375216
      19A     -1.365047    20A     -1.353828    21A     -1.084246
      22A     -1.029930    23A     -0.962437    24A     -0.891545
      25A     -0.831186    26A     -0.809155    27A     -0.762488
      28A     -0.737332    29A     -0.727592    30A     -0.715500
      31A     -0.713688    32A     -0.685911    33A     -0.680844
      34A     -0.652463    35A     -0.642452    36A     -0.639863
      37A     -0.629693    38A     -0.608862    39A     -0.602286
      40A     -0.582797    41A     -0.554769    42A     -0.550183
      43A     -0.542385    44A     -0.534673    45A     -0.532858
      46A     -0.503443    47A     -0.496439    48A     -0.486077
      49A     -0.468187    50A     -0.460576    51A     -0.457260
      52A     -0.443491

  @DF-RHF Final Energy:  -758.51909094659186

   => Energetics <=

    Nuclear Repulsion Energy =            916.2602768397697446
    One-Electron Energy =               -2863.9618477084486585
    Two-Electron Energy =                1189.1824799220871682
    Total Energy =                       -758.5190909465918594
  Basis Set: (AUG-CC-PVTZ AUX)
    Blend: AUG-CC-PVTZ-RI
    Molecular point group: c1

    Geometry (in Angstrom), charge = 0, multiplicity = 1:

       Center              X                  Y                   Z               Mass
    ------------   -----------------  -----------------  -----------------  -----------------
         O           -1.400625593212    -1.703230709050    -1.053164319759    15.994914619570
         O            1.286635406788    -1.501189709050    -0.870556319759    15.994914619570
         O           -3.058717593212    -0.688595709050     0.796711680241    15.994914619570
         O            1.361651406788    -0.361194709050     1.788712680241    15.994914619570
         O           -3.431962593212     1.809344290950    -0.139103319759    15.994914619570
         O            2.568570406788     1.548186290950    -0.998283319759    15.994914619570
         O            3.654031406788     0.140549290950     0.421525680241    15.994914619570
         C           -0.859622593212    -0.956353709050     0.043251680241    12.000000000000
         C            0.457184406788    -0.408833709050    -0.480462319759    12.000000000000
         C           -1.881149593212     0.071967290950     0.511218680241    12.000000000000
         C            1.247685406788     0.355997290950     0.579260680241    12.000000000000
         C           -2.230796593212     1.125632290950    -0.532094319759    12.000000000000
         C            2.627896406788     0.656575290950     0.020747680241    12.000000000000
         H           -0.638614593212    -1.624746709050     0.885051680241     1.007825032230
         H            0.271053406788     0.251331290950    -1.341129319759     1.007825032230
         H           -1.516117593212     0.557689290950     1.431320680241     1.007825032230
         H            0.746423406788     1.303829290950     0.806541680241     1.007825032230
         H           -2.464083593212     0.632921290950    -1.477263319759     1.007825032230
         H           -1.407771593212     1.832881290950    -0.693878319759     1.007825032230
         H           -2.282118593212    -1.990180709050    -0.742947319759     1.007825032230
         H            0.759904506788    -2.044371709050    -1.313977719759     1.007825032230
         H           -3.793965593212    -0.047369709050     0.719596680241     1.007825032230
         H            2.096793406788    -0.989941709050     1.650469680241     1.007825032230
         H           -3.197262593212     2.421688290950     0.580209680241     1.007825032230
         H            3.485181406788     1.635528290950    -1.334321319759     1.007825032230

  Basis Set: AUG-CC-PVTZ
    Blend: AUG-CC-PVTZ
  Basis Set: (AUG-CC-PVTZ AUX)
    Blend: AUG-CC-PVTZ-JKFIT
	 Reference Energy          =    -758.5190909465918594 [Eh]
	 Singles Energy            =      -0.0000000000000000 [Eh]
	 Same-Spin Energy          =      -0.7329453742610688 [Eh]
	 Opposite-Spin Energy      =      -2.2279610429620238 [Eh]
	 Correlation Energy        =      -2.9609064172230926 [Eh]
	 Total Energy              =    -761.4799973638149595 [Eh]

	 ================> DF-SCS-MP2 Energies <==================
	-----------------------------------------------------------
	 SCS Same-Spin Scale       =       0.3333333333333333 [-]
	 SCS Opposite-Spin Scale   =       1.2000000000000000 [-]
	 SCS Same-Spin Energy      =      -0.2443151247536896 [Eh]
	 SCS Opposite-Spin Energy  =      -2.6735532515544285 [Eh]
	 SCS Correlation Energy    =      -2.9178683763081179 [Eh]
	 SCS Total Energy          =    -761.4369593228999520 [Eh]
	-----------------------------------------------------------

  Dipole Moment: [D]
     X:    -1.1491      Y:     2.7631      Z:    -0.7448     Total:     3.0838

*** Psi4 exiting successfully. Buy a developer a beer!
