                               Psi4 1.4a3.dev225

  ==> Input File <==

--------------------------------------------------------------------------
#psi4
#
memory 32 gb

molecule  {
0 1
  O       -1.3621950    -1.7118670    -1.0487160
  O        1.3250660    -1.5098260    -0.8661080
  O       -3.0202870    -0.6972320     0.8011600
  O        1.4000820    -0.3698310     1.7931610
  O       -3.3935320     1.8007080    -0.1346550
  O        2.6070010     1.5395500    -0.9938350
  O        3.6924620     0.1319130     0.4259740
  C       -0.8211920    -0.9649900     0.0477000
  C        0.4522768    -0.4354898    -0.4587777
  C       -1.8427190     0.0633310     0.5156670
  C        1.2861160     0.3473610     0.5837090
  C       -2.1923660     1.1169960    -0.5276460
  C        2.6663270     0.6479390     0.0251960
  H       -0.6001840    -1.6333830     0.8895000
  H        0.3094840     0.2426950    -1.3366810
  H       -1.4776870     0.5490530     1.4357690
  H        0.7848540     1.2951930     0.8109900
  H       -2.4256530     0.6242850    -1.4728150
  H       -1.3693410     1.8242450    -0.6894300
  H       -2.2436880    -1.9988170    -0.7384990
  H        0.7382740    -2.1149450    -1.3600910
  H       -3.7555350    -0.0560060     0.7240450
  H        2.1352240    -0.9985780     1.6549180
  H       -3.1588320     2.4130520     0.5846580
  H        3.5236120     1.6268920    -1.3298730
units angstrom
no_reorient  #important for SAPT in psi4, default
symmetry c1  #important for SAPT in psi4, default
}

set PROPERTIES_ORIGIN ["COM"]
properties('MP2/aug-cc-pvtz', properties = ['dipole'])
--------------------------------------------------------------------------

    Molecular point group: c1
  Charge       = 0
  Multiplicity = 1
  Basis Set: AUG-CC-PVTZ
    Blend: AUG-CC-PVTZ
  Basis Set: (AUG-CC-PVTZ AUX)
    Blend: AUG-CC-PVTZ-JKFIT

    Orbital Energies [Eh]
    ---------------------

    Doubly Occupied:

       1A    -20.631365     2A    -20.592531     3A    -20.576240
       4A    -20.573991     5A    -20.573899     6A    -20.569612
       7A    -20.565313     8A    -11.402582     9A    -11.318942
      10A    -11.304783    11A    -11.303681    12A    -11.300974
      13A    -11.294971    14A     -1.476089    15A     -1.408524
      16A     -1.395331    17A     -1.384104    18A     -1.368588
      19A     -1.362089    20A     -1.349296    21A     -1.084446
      22A     -1.025727    23A     -0.967406    24A     -0.888261
      25A     -0.832418    26A     -0.800171    27A     -0.757337
      28A     -0.737548    29A     -0.725086    30A     -0.715812
      31A     -0.713032    32A     -0.683429    33A     -0.675703
      34A     -0.647254    35A     -0.638785    36A     -0.637270
      37A     -0.628125    38A     -0.605509    39A     -0.602954
      40A     -0.581305    41A     -0.553460    42A     -0.551547
      43A     -0.539059    44A     -0.534693    45A     -0.531583
      46A     -0.503586    47A     -0.495599    48A     -0.483638
      49A     -0.467373    50A     -0.462586    51A     -0.452986
      52A     -0.445759

  @DF-RHF Final Energy:  -758.51990565780579

   => Energetics <=

    Nuclear Repulsion Energy =            915.7930417894032189
    One-Electron Energy =               -2863.1811937592219692
    Two-Electron Energy =                1188.8682463120130706
    Total Energy =                       -758.5199056578057935
  Basis Set: (AUG-CC-PVTZ AUX)
    Blend: AUG-CC-PVTZ-RI
    Molecular point group: c1

    Geometry (in Angstrom), charge = 0, multiplicity = 1:

       Center              X                  Y                   Z               Mass
    ------------   -----------------  -----------------  -----------------  -----------------
         O           -1.397664282868    -1.701809400923    -1.053959380982    15.994914619570
         O            1.289596717132    -1.499768400923    -0.871351380982    15.994914619570
         O           -3.055756282868    -0.687174400923     0.795916619018    15.994914619570
         O            1.364612717132    -0.359773400923     1.787917619018    15.994914619570
         O           -3.429001282868     1.810765599077    -0.139898380982    15.994914619570
         O            2.571531717132     1.549607599077    -0.999078380982    15.994914619570
         O            3.656992717132     0.141970599077     0.420730619018    15.994914619570
         C           -0.856661282868    -0.954932400923     0.042456619018    12.000000000000
         C            0.416807517132    -0.425432200923    -0.464021080982    12.000000000000
         C           -1.878188282868     0.073388599077     0.510423619018    12.000000000000
         C            1.250646717132     0.357418599077     0.578465619018    12.000000000000
         C           -2.227835282868     1.127053599077    -0.532889380982    12.000000000000
         C            2.630857717132     0.657996599077     0.019952619018    12.000000000000
         H           -0.635653282868    -1.623325400923     0.884256619018     1.007825032230
         H            0.274014717132     0.252752599077    -1.341924380982     1.007825032230
         H           -1.513156282868     0.559110599077     1.430525619018     1.007825032230
         H            0.749384717132     1.305250599077     0.805746619018     1.007825032230
         H           -2.461122282868     0.634342599077    -1.478058380982     1.007825032230
         H           -1.404810282868     1.834302599077    -0.694673380982     1.007825032230
         H           -2.279157282868    -1.988759400923    -0.743742380982     1.007825032230
         H            0.702804717132    -2.104887400923    -1.365334380982     1.007825032230
         H           -3.791004282868    -0.045948400923     0.718801619018     1.007825032230
         H            2.099754717132    -0.988520400923     1.649674619018     1.007825032230
         H           -3.194301282868     2.423109599077     0.579414619018     1.007825032230
         H            3.488142717132     1.636949599077    -1.335116380982     1.007825032230

  Basis Set: AUG-CC-PVTZ
    Blend: AUG-CC-PVTZ
  Basis Set: (AUG-CC-PVTZ AUX)
    Blend: AUG-CC-PVTZ-JKFIT
	 Reference Energy          =    -758.5199056578057935 [Eh]
	 Singles Energy            =      -0.0000000000000000 [Eh]
	 Same-Spin Energy          =      -0.7347002102489988 [Eh]
	 Opposite-Spin Energy      =      -2.2318371052167838 [Eh]
	 Correlation Energy        =      -2.9665373154657826 [Eh]
	 Total Energy              =    -761.4864429732715507 [Eh]

	 ================> DF-SCS-MP2 Energies <==================
	-----------------------------------------------------------
	 SCS Same-Spin Scale       =       0.3333333333333333 [-]
	 SCS Opposite-Spin Scale   =       1.2000000000000000 [-]
	 SCS Same-Spin Energy      =      -0.2449000700829996 [Eh]
	 SCS Opposite-Spin Energy  =      -2.6782045262601404 [Eh]
	 SCS Correlation Energy    =      -2.9231045963431401 [Eh]
	 SCS Total Energy          =    -761.4430102541489305 [Eh]
	-----------------------------------------------------------

  Dipole Moment: [D]
     X:    -1.2767      Y:     2.6837      Z:    -0.7698     Total:     3.0700

*** Psi4 exiting successfully. Buy a developer a beer!
