                               Psi4 1.4a3.dev225

  ==> Input File <==

--------------------------------------------------------------------------
#psi4
#
memory 32 gb

molecule  {
0 1
  O       -1.3621950    -1.7118670    -1.0487160
  O        1.3250660    -1.5098260    -0.8661080
  O       -3.0202870    -0.6972320     0.8011600
  O        1.4000820    -0.3698310     1.7931610
  O       -3.3935320     1.8007080    -0.1346550
  O        2.6070010     1.5395500    -0.9938350
  O        3.7345792     0.1778797     0.3683292
  C       -0.8211920    -0.9649900     0.0477000
  C        0.4956150    -0.4174700    -0.4760140
  C       -1.8427190     0.0633310     0.5156670
  C        1.2861160     0.3473610     0.5837090
  C       -2.1923660     1.1169960    -0.5276460
  C        2.6663270     0.6479390     0.0251960
  H       -0.6001840    -1.6333830     0.8895000
  H        0.3094840     0.2426950    -1.3366810
  H       -1.4776870     0.5490530     1.4357690
  H        0.7848540     1.2951930     0.8109900
  H       -2.4256530     0.6242850    -1.4728150
  H       -1.3693410     1.8242450    -0.6894300
  H       -2.2436880    -1.9988170    -0.7384990
  H        0.7382740    -2.1149450    -1.3600910
  H       -3.7555350    -0.0560060     0.7240450
  H        2.1352240    -0.9985780     1.6549180
  H       -3.1588320     2.4130520     0.5846580
  H        3.5236120     1.6268920    -1.3298730
units angstrom
no_reorient  #important for SAPT in psi4, default
symmetry c1  #important for SAPT in psi4, default
}

set PROPERTIES_ORIGIN ["COM"]
properties('MP2/aug-cc-pvtz', properties = ['dipole'])
--------------------------------------------------------------------------

    Molecular point group: c1
  Charge       = 0
  Multiplicity = 1
  Basis Set: AUG-CC-PVTZ
    Blend: AUG-CC-PVTZ
  Basis Set: (AUG-CC-PVTZ AUX)
    Blend: AUG-CC-PVTZ-JKFIT

    Orbital Energies [Eh]
    ---------------------

    Doubly Occupied:

       1A    -20.624337     2A    -20.592694     3A    -20.578415
       4A    -20.576181     5A    -20.574220     6A    -20.571726
       7A    -20.563321     8A    -11.401058     9A    -11.322616
      10A    -11.306105    11A    -11.303303    12A    -11.301201
      13A    -11.297245    14A     -1.475778    15A     -1.408838
      16A     -1.397336    17A     -1.383680    18A     -1.368548
      19A     -1.361344    20A     -1.351743    21A     -1.082151
      22A     -1.030000    23A     -0.962638    24A     -0.889093
      25A     -0.830154    26A     -0.804274    27A     -0.758909
      28A     -0.736127    29A     -0.725098    30A     -0.716023
      31A     -0.711251    32A     -0.683910    33A     -0.677653
      34A     -0.649565    35A     -0.640463    36A     -0.637791
      37A     -0.629191    38A     -0.607393    39A     -0.602885
      40A     -0.582222    41A     -0.554532    42A     -0.550985
      43A     -0.542039    44A     -0.535201    45A     -0.532155
      46A     -0.504214    47A     -0.492205    48A     -0.485368
      49A     -0.467503    50A     -0.460875    51A     -0.457139
      52A     -0.444109

  @DF-RHF Final Energy:  -758.52291497627687

   => Energetics <=

    Nuclear Repulsion Energy =            914.9113199927828646
    One-Electron Energy =               -2861.3828660134213351
    Two-Electron Energy =                1187.9486310443614911
    Total Energy =                       -758.5229149762769794
  Basis Set: (AUG-CC-PVTZ AUX)
    Blend: AUG-CC-PVTZ-RI
    Molecular point group: c1

    Geometry (in Angstrom), charge = 0, multiplicity = 1:

       Center              X                  Y                   Z               Mass
    ------------   -----------------  -----------------  -----------------  -----------------
         O           -1.403752876931    -1.706662401427    -1.048201607714    15.994914619570
         O            1.283508123069    -1.504621401427    -0.865593607714    15.994914619570
         O           -3.061844876931    -0.692027401427     0.801674392286    15.994914619570
         O            1.358524123069    -0.364626401427     1.793675392286    15.994914619570
         O           -3.435089876931     1.805912598573    -0.134140607714    15.994914619570
         O            2.565443123069     1.544754598573    -0.993320607714    15.994914619570
         O            3.693021323069     0.183084298573     0.368843592286    15.994914619570
         C           -0.862749876931    -0.959785401427     0.048214392286    12.000000000000
         C            0.454057123069    -0.412265401427    -0.475499607714    12.000000000000
         C           -1.884276876931     0.068535598573     0.516181392286    12.000000000000
         C            1.244558123069     0.352565598573     0.584223392286    12.000000000000
         C           -2.233923876931     1.122200598573    -0.527131607714    12.000000000000
         C            2.624769123069     0.653143598573     0.025710392286    12.000000000000
         H           -0.641741876931    -1.628178401427     0.890014392286     1.007825032230
         H            0.267926123069     0.247899598573    -1.336166607714     1.007825032230
         H           -1.519244876931     0.554257598573     1.436283392286     1.007825032230
         H            0.743296123069     1.300397598573     0.811504392286     1.007825032230
         H           -2.467210876931     0.629489598573    -1.472300607714     1.007825032230
         H           -1.410898876931     1.829449598573    -0.688915607714     1.007825032230
         H           -2.285245876931    -1.993612401427    -0.737984607714     1.007825032230
         H            0.696716123069    -2.109740401427    -1.359576607714     1.007825032230
         H           -3.797092876931    -0.050801401427     0.724559392286     1.007825032230
         H            2.093666123069    -0.993373401427     1.655432392286     1.007825032230
         H           -3.200389876931     2.418256598573     0.585172392286     1.007825032230
         H            3.482054123069     1.632096598573    -1.329358607714     1.007825032230

  Basis Set: AUG-CC-PVTZ
    Blend: AUG-CC-PVTZ
  Basis Set: (AUG-CC-PVTZ AUX)
    Blend: AUG-CC-PVTZ-JKFIT
	 Reference Energy          =    -758.5229149762768657 [Eh]
	 Singles Energy            =      -0.0000000000000000 [Eh]
	 Same-Spin Energy          =      -0.7340599498237271 [Eh]
	 Opposite-Spin Energy      =      -2.2306164642280071 [Eh]
	 Correlation Energy        =      -2.9646764140517341 [Eh]
	 Total Energy              =    -761.4875913903285891 [Eh]

	 ================> DF-SCS-MP2 Energies <==================
	-----------------------------------------------------------
	 SCS Same-Spin Scale       =       0.3333333333333333 [-]
	 SCS Opposite-Spin Scale   =       1.2000000000000000 [-]
	 SCS Same-Spin Energy      =      -0.2446866499412424 [Eh]
	 SCS Opposite-Spin Energy  =      -2.6767397570736082 [Eh]
	 SCS Correlation Energy    =      -2.9214264070148506 [Eh]
	 SCS Total Energy          =    -761.4443413832917713 [Eh]
	-----------------------------------------------------------

  Dipole Moment: [D]
     X:    -1.4078      Y:     2.5427      Z:    -0.6602     Total:     2.9805

*** Psi4 exiting successfully. Buy a developer a beer!
