                               Psi4 1.4a3.dev225

  ==> Input File <==

--------------------------------------------------------------------------
#psi4
#
memory 32 gb

molecule  {
0 1
  O       -1.3621950    -1.7118670    -1.0487160
  O        1.3250660    -1.5098260    -0.8661080
  O       -3.0202870    -0.6972320     0.8011600
  O        1.4000820    -0.3698310     1.7931610
  O       -3.3935320     1.8007080    -0.1346550
  O        2.6070010     1.5395500    -0.9938350
  O        3.6924620     0.1319130     0.4259740
  C       -0.8211920    -0.9649900     0.0477000
  C        0.4839815    -0.4021492    -0.4705427
  C       -1.8427190     0.0633310     0.5156670
  C        1.2861160     0.3473610     0.5837090
  C       -2.1923660     1.1169960    -0.5276460
  C        2.6663270     0.6479390     0.0251960
  H       -0.6001840    -1.6333830     0.8895000
  H        0.3094840     0.2426950    -1.3366810
  H       -1.4776870     0.5490530     1.4357690
  H        0.7848540     1.2951930     0.8109900
  H       -2.4256530     0.6242850    -1.4728150
  H       -1.3693410     1.8242450    -0.6894300
  H       -2.2436880    -1.9988170    -0.7384990
  H        0.7382740    -2.1149450    -1.3600910
  H       -3.7555350    -0.0560060     0.7240450
  H        2.1352240    -0.9985780     1.6549180
  H       -3.1588320     2.4130520     0.5846580
  H        3.5236120     1.6268920    -1.3298730
units angstrom
no_reorient  #important for SAPT in psi4, default
symmetry c1  #important for SAPT in psi4, default
}

set PROPERTIES_ORIGIN ["COM"]
properties('MP2/aug-cc-pvtz', properties = ['dipole'])
--------------------------------------------------------------------------

    Molecular point group: c1
  Charge       = 0
  Multiplicity = 1
  Basis Set: AUG-CC-PVTZ
    Blend: AUG-CC-PVTZ
  Basis Set: (AUG-CC-PVTZ AUX)
    Blend: AUG-CC-PVTZ-JKFIT

    Orbital Energies [Eh]
    ---------------------

    Doubly Occupied:

       1A    -20.631679     2A    -20.592349     3A    -20.575414
       4A    -20.575154     5A    -20.573411     6A    -20.568206
       7A    -20.565320     8A    -11.402403     9A    -11.318801
      10A    -11.304276    11A    -11.302350    12A    -11.300799
      13A    -11.296336    14A     -1.476487    15A     -1.407328
      16A     -1.395166    17A     -1.383418    18A     -1.368254
      19A     -1.361609    20A     -1.348133    21A     -1.082535
      22A     -1.028917    23A     -0.962267    24A     -0.888744
      25A     -0.831342    26A     -0.802058    27A     -0.757366
      28A     -0.737062    29A     -0.725813    30A     -0.715575
      31A     -0.712943    32A     -0.683003    33A     -0.675381
      34A     -0.648569    35A     -0.640496    36A     -0.636087
      37A     -0.628629    38A     -0.607017    39A     -0.601918
      40A     -0.580389    41A     -0.552461    42A     -0.550379
      43A     -0.539743    44A     -0.534383    45A     -0.529274
      46A     -0.503315    47A     -0.495811    48A     -0.484687
      49A     -0.467493    50A     -0.460608    51A     -0.456525
      52A     -0.444291

  @DF-RHF Final Energy:  -758.52268343242633

   => Energetics <=

    Nuclear Repulsion Energy =            915.5707195397492342
    One-Electron Energy =               -2862.7628528736745466
    Two-Electron Energy =                1188.6694499014990924
    Total Energy =                       -758.5226834324262200
  Basis Set: (AUG-CC-PVTZ AUX)
    Blend: AUG-CC-PVTZ-RI
    Molecular point group: c1

    Geometry (in Angstrom), charge = 0, multiplicity = 1:

       Center              X                  Y                   Z               Mass
    ------------   -----------------  -----------------  -----------------  -----------------
         O           -1.399604809715    -1.703850055129    -1.053239289060    15.994914619570
         O            1.287656190285    -1.501809055129    -0.870631289060    15.994914619570
         O           -3.057696809715    -0.689215055129     0.796636710940    15.994914619570
         O            1.362672190285    -0.361814055129     1.788637710940    15.994914619570
         O           -3.430941809715     1.808724944871    -0.139178289060    15.994914619570
         O            2.569591190285     1.547566944871    -0.998358289060    15.994914619570
         O            3.655052190285     0.139929944871     0.421450710940    15.994914619570
         C           -0.858601809715    -0.956973055129     0.043176710940    12.000000000000
         C            0.446571690285    -0.394132255129    -0.475065989060    12.000000000000
         C           -1.880128809715     0.071347944871     0.511143710940    12.000000000000
         C            1.248706190285     0.355377944871     0.579185710940    12.000000000000
         C           -2.229775809715     1.125012944871    -0.532169289060    12.000000000000
         C            2.628917190285     0.655955944871     0.020672710940    12.000000000000
         H           -0.637593809715    -1.625366055129     0.884976710940     1.007825032230
         H            0.272074190285     0.250711944871    -1.341204289060     1.007825032230
         H           -1.515096809715     0.557069944871     1.431245710940     1.007825032230
         H            0.747444190285     1.303209944871     0.806466710940     1.007825032230
         H           -2.463062809715     0.632301944871    -1.477338289060     1.007825032230
         H           -1.406750809715     1.832261944871    -0.693953289060     1.007825032230
         H           -2.281097809715    -1.990800055129    -0.743022289060     1.007825032230
         H            0.700864190285    -2.106928055129    -1.364614289060     1.007825032230
         H           -3.792944809715    -0.047989055129     0.719521710940     1.007825032230
         H            2.097814190285    -0.990561055129     1.650394710940     1.007825032230
         H           -3.196241809715     2.421068944871     0.580134710940     1.007825032230
         H            3.486202190285     1.634908944871    -1.334396289060     1.007825032230

  Basis Set: AUG-CC-PVTZ
    Blend: AUG-CC-PVTZ
  Basis Set: (AUG-CC-PVTZ AUX)
    Blend: AUG-CC-PVTZ-JKFIT
	 Reference Energy          =    -758.5226834324263336 [Eh]
	 Singles Energy            =      -0.0000000000000000 [Eh]
	 Same-Spin Energy          =      -0.7344076222992288 [Eh]
	 Opposite-Spin Energy      =      -2.2314111855908241 [Eh]
	 Correlation Energy        =      -2.9658188078900531 [Eh]
	 Total Energy              =    -761.4885022403163930 [Eh]

	 ================> DF-SCS-MP2 Energies <==================
	-----------------------------------------------------------
	 SCS Same-Spin Scale       =       0.3333333333333333 [-]
	 SCS Opposite-Spin Scale   =       1.2000000000000000 [-]
	 SCS Same-Spin Energy      =      -0.2448025407664096 [Eh]
	 SCS Opposite-Spin Energy  =      -2.6776934227089888 [Eh]
	 SCS Correlation Energy    =      -2.9224959634753982 [Eh]
	 SCS Total Energy          =    -761.4451793959017323 [Eh]
	-----------------------------------------------------------

  Dipole Moment: [D]
     X:    -1.2433      Y:     2.7237      Z:    -0.7838     Total:     3.0950

*** Psi4 exiting successfully. Buy a developer a beer!
