                               Psi4 1.4a3.dev225

  ==> Input File <==

--------------------------------------------------------------------------
#psi4
#
memory 32 gb

molecule  {
0 1
  O       -1.3621950    -1.7118670    -1.0487160
  O        1.3250660    -1.5098260    -0.8661080
  O       -3.0202870    -0.6972320     0.8011600
  O        1.4000820    -0.3698310     1.7931610
  O       -3.3935320     1.8007080    -0.1346550
  O        2.6070010     1.5395500    -0.9938350
  O        3.6924620     0.1319130     0.4259740
  C       -0.8211920    -0.9649900     0.0477000
  C        0.4956150    -0.4174700    -0.4760140
  C       -1.8427190     0.0633310     0.5156670
  C        1.2861160     0.3473610     0.5837090
  C       -2.1923660     1.1169960    -0.5276460
  C        2.6663270     0.6479390     0.0251960
  H       -0.6001840    -1.6333830     0.8895000
  H        0.3263965     0.1827100    -1.2584776
  H       -1.4776870     0.5490530     1.4357690
  H        0.7848540     1.2951930     0.8109900
  H       -2.4256530     0.6242850    -1.4728150
  H       -1.3693410     1.8242450    -0.6894300
  H       -2.2436880    -1.9988170    -0.7384990
  H        0.7382740    -2.1149450    -1.3600910
  H       -3.7555350    -0.0560060     0.7240450
  H        2.1352240    -0.9985780     1.6549180
  H       -3.1588320     2.4130520     0.5846580
  H        3.5236120     1.6268920    -1.3298730
units angstrom
no_reorient  #important for SAPT in psi4, default
symmetry c1  #important for SAPT in psi4, default
}

set PROPERTIES_ORIGIN ["COM"]
properties('MP2/aug-cc-pvtz', properties = ['dipole'])
--------------------------------------------------------------------------

    Molecular point group: c1
  Charge       = 0
  Multiplicity = 1
  Basis Set: AUG-CC-PVTZ
    Blend: AUG-CC-PVTZ
  Basis Set: (AUG-CC-PVTZ AUX)
    Blend: AUG-CC-PVTZ-JKFIT

    Orbital Energies [Eh]
    ---------------------

    Doubly Occupied:

       1A    -20.631837     2A    -20.592467     3A    -20.575329
       4A    -20.574101     5A    -20.573105     6A    -20.568740
       7A    -20.565056     8A    -11.401875     9A    -11.317578
      10A    -11.302297    11A    -11.300960    12A    -11.295037
      13A    -11.292322    14A     -1.476497    15A     -1.407860
      16A     -1.396144    17A     -1.383659    18A     -1.369479
      19A     -1.362292    20A     -1.350334    21A     -1.083228
      22A     -1.028993    23A     -0.962278    24A     -0.893234
      25A     -0.830666    26A     -0.807673    27A     -0.759848
      28A     -0.736740    29A     -0.728793    30A     -0.716487
      31A     -0.714849    32A     -0.684209    33A     -0.676606
      34A     -0.650077    35A     -0.641255    36A     -0.636795
      37A     -0.629842    38A     -0.607420    39A     -0.602071
      40A     -0.583656    41A     -0.553344    42A     -0.550193
      43A     -0.539574    44A     -0.534431    45A     -0.531630
      46A     -0.503851    47A     -0.495770    48A     -0.484211
      49A     -0.469054    50A     -0.459771    51A     -0.457063
      52A     -0.443122

  @DF-RHF Final Energy:  -758.51860919573164

   => Energetics <=

    Nuclear Repulsion Energy =            916.1795221220584153
    One-Electron Energy =               -2863.9288572356854274
    Two-Electron Energy =                1189.2307259178953700
    Total Energy =                       -758.5186091957316421
  Basis Set: (AUG-CC-PVTZ AUX)
    Blend: AUG-CC-PVTZ-RI
    Molecular point group: c1

    Geometry (in Angstrom), charge = 0, multiplicity = 1:

       Center              X                  Y                   Z               Mass
    ------------   -----------------  -----------------  -----------------  -----------------
         O           -1.400403790623    -1.702603976890    -1.053306410645    15.994914619570
         O            1.286857209377    -1.500562976890    -0.870698410645    15.994914619570
         O           -3.058495790623    -0.687968976890     0.796569589355    15.994914619570
         O            1.361873209377    -0.360567976890     1.788570589355    15.994914619570
         O           -3.431740790623     1.809971023110    -0.139245410645    15.994914619570
         O            2.568792209377     1.548813023110    -0.998425410645    15.994914619570
         O            3.654253209377     0.141176023110     0.421383589355    15.994914619570
         C           -0.859400790623    -0.955726976890     0.043109589355    12.000000000000
         C            0.457406209377    -0.408206976890    -0.480604410645    12.000000000000
         C           -1.880927790623     0.072594023110     0.511076589355    12.000000000000
         C            1.247907209377     0.356624023110     0.579118589355    12.000000000000
         C           -2.230574790623     1.126259023110    -0.532236410645    12.000000000000
         C            2.628118209377     0.657202023110     0.020605589355    12.000000000000
         H           -0.638392790623    -1.624119976890     0.884909589355     1.007825032230
         H            0.288187709377     0.191973023110    -1.263068010645     1.007825032230
         H           -1.515895790623     0.558316023110     1.431178589355     1.007825032230
         H            0.746645209377     1.304456023110     0.806399589355     1.007825032230
         H           -2.463861790623     0.633548023110    -1.477405410645     1.007825032230
         H           -1.407549790623     1.833508023110    -0.694020410645     1.007825032230
         H           -2.281896790623    -1.989553976890    -0.743089410645     1.007825032230
         H            0.700065209377    -2.105681976890    -1.364681410645     1.007825032230
         H           -3.793743790623    -0.046742976890     0.719454589355     1.007825032230
         H            2.097015209377    -0.989314976890     1.650327589355     1.007825032230
         H           -3.197040790623     2.422315023110     0.580067589355     1.007825032230
         H            3.485403209377     1.636155023110    -1.334463410645     1.007825032230

  Basis Set: AUG-CC-PVTZ
    Blend: AUG-CC-PVTZ
  Basis Set: (AUG-CC-PVTZ AUX)
    Blend: AUG-CC-PVTZ-JKFIT
	 Reference Energy          =    -758.5186091957316421 [Eh]
	 Singles Energy            =      -0.0000000000000000 [Eh]
	 Same-Spin Energy          =      -0.7340343073707689 [Eh]
	 Opposite-Spin Energy      =      -2.2301828842089648 [Eh]
	 Correlation Energy        =      -2.9642171915797340 [Eh]
	 Total Energy              =    -761.4828263873113201 [Eh]

	 ================> DF-SCS-MP2 Energies <==================
	-----------------------------------------------------------
	 SCS Same-Spin Scale       =       0.3333333333333333 [-]
	 SCS Opposite-Spin Scale   =       1.2000000000000000 [-]
	 SCS Same-Spin Energy      =      -0.2446781024569230 [Eh]
	 SCS Opposite-Spin Energy  =      -2.6762194610507577 [Eh]
	 SCS Correlation Energy    =      -2.9208975635076806 [Eh]
	 SCS Total Energy          =    -761.4395067592392934 [Eh]
	-----------------------------------------------------------

  Dipole Moment: [D]
     X:    -1.2397      Y:     2.7202      Z:    -0.8214     Total:     3.1002

*** Psi4 exiting successfully. Buy a developer a beer!
