                               Psi4 1.4a3.dev225

  ==> Input File <==

--------------------------------------------------------------------------
#psi4
#
memory 32 gb

molecule  {
0 1
  O       -1.3621950    -1.7118670    -1.0487160
  O        1.3250660    -1.5098260    -0.8661080
  O       -3.0202870    -0.6972320     0.8011600
  O        1.4000820    -0.3698310     1.7931610
  O       -3.3935320     1.8007080    -0.1346550
  O        2.6070010     1.5395500    -0.9938350
  O        3.6924620     0.1319130     0.4259740
  C       -0.8211920    -0.9649900     0.0477000
  C        0.4956150    -0.4174700    -0.4760140
  C       -1.8591815     0.0526982     0.5196582
  C        1.2861160     0.3473610     0.5837090
  C       -2.1923660     1.1169960    -0.5276460
  C        2.6663270     0.6479390     0.0251960
  H       -0.6001840    -1.6333830     0.8895000
  H        0.3094840     0.2426950    -1.3366810
  H       -1.4776870     0.5490530     1.4357690
  H        0.7848540     1.2951930     0.8109900
  H       -2.4256530     0.6242850    -1.4728150
  H       -1.3693410     1.8242450    -0.6894300
  H       -2.2436880    -1.9988170    -0.7384990
  H        0.7382740    -2.1149450    -1.3600910
  H       -3.7555350    -0.0560060     0.7240450
  H        2.1352240    -0.9985780     1.6549180
  H       -3.1588320     2.4130520     0.5846580
  H        3.5236120     1.6268920    -1.3298730
units angstrom
no_reorient  #important for SAPT in psi4, default
symmetry c1  #important for SAPT in psi4, default
}

set PROPERTIES_ORIGIN ["COM"]
properties('MP2/aug-cc-pvtz', properties = ['dipole'])
--------------------------------------------------------------------------

    Molecular point group: c1
  Charge       = 0
  Multiplicity = 1
  Basis Set: AUG-CC-PVTZ
    Blend: AUG-CC-PVTZ
  Basis Set: (AUG-CC-PVTZ AUX)
    Blend: AUG-CC-PVTZ-JKFIT

    Orbital Energies [Eh]
    ---------------------

    Doubly Occupied:

       1A    -20.631241     2A    -20.591675     3A    -20.577445
       4A    -20.574450     5A    -20.572751     6A    -20.570371
       7A    -20.564870     8A    -11.401646     9A    -11.317916
      10A    -11.304269    11A    -11.302225    12A    -11.299952
      13A    -11.295281    14A     -1.476076    15A     -1.410646
      16A     -1.396799    17A     -1.383468    18A     -1.371105
      19A     -1.363415    20A     -1.352159    21A     -1.078772
      22A     -1.026727    23A     -0.960264    24A     -0.888270
      25A     -0.830360    26A     -0.802488    27A     -0.757973
      28A     -0.736392    29A     -0.726115    30A     -0.715742
      31A     -0.712977    32A     -0.684220    33A     -0.677081
      34A     -0.649902    35A     -0.640878    36A     -0.636938
      37A     -0.628426    38A     -0.607016    39A     -0.602060
      40A     -0.581133    41A     -0.553374    42A     -0.552269
      43A     -0.539526    44A     -0.535366    45A     -0.530964
      46A     -0.503437    47A     -0.495532    48A     -0.484147
      49A     -0.465003    50A     -0.458917    51A     -0.454315
      52A     -0.441452

  @DF-RHF Final Energy:  -758.52365845260738

   => Energetics <=

    Nuclear Repulsion Energy =            915.5606111772484610
    One-Electron Energy =               -2862.7369517822316993
    Two-Electron Energy =                1188.6526821523757462
    Total Energy =                       -758.5236584526073784
  Basis Set: (AUG-CC-PVTZ AUX)
    Blend: AUG-CC-PVTZ-RI
    Molecular point group: c1

    Geometry (in Angstrom), charge = 0, multiplicity = 1:

       Center              X                  Y                   Z               Mass
    ------------   -----------------  -----------------  -----------------  -----------------
         O           -1.399309244573    -1.702261531737    -1.053148697640    15.994914619570
         O            1.287951755427    -1.500220531737    -0.870540697640    15.994914619570
         O           -3.057401244573    -0.687626531737     0.796727302360    15.994914619570
         O            1.362967755427    -0.360225531737     1.788728302360    15.994914619570
         O           -3.430646244573     1.810313468263    -0.139087697640    15.994914619570
         O            2.569886755427     1.549155468263    -0.998267697640    15.994914619570
         O            3.655347755427     0.141518468263     0.421541302360    15.994914619570
         C           -0.858306244573    -0.955384531737     0.043267302360    12.000000000000
         C            0.458500755427    -0.407864531737    -0.480446697640    12.000000000000
         C           -1.896295744573     0.062303668263     0.515225502360    12.000000000000
         C            1.249001755427     0.356966468263     0.579276302360    12.000000000000
         C           -2.229480244573     1.126601468263    -0.532078697640    12.000000000000
         C            2.629212755427     0.657544468263     0.020763302360    12.000000000000
         H           -0.637298244573    -1.623777531737     0.885067302360     1.007825032230
         H            0.272369755427     0.252300468263    -1.341113697640     1.007825032230
         H           -1.514801244573     0.558658468263     1.431336302360     1.007825032230
         H            0.747739755427     1.304798468263     0.806557302360     1.007825032230
         H           -2.462767244573     0.633890468263    -1.477247697640     1.007825032230
         H           -1.406455244573     1.833850468263    -0.693862697640     1.007825032230
         H           -2.280802244573    -1.989211531737    -0.742931697640     1.007825032230
         H            0.701159755427    -2.105339531737    -1.364523697640     1.007825032230
         H           -3.792649244573    -0.046400531737     0.719612302360     1.007825032230
         H            2.098109755427    -0.988972531737     1.650485302360     1.007825032230
         H           -3.195946244573     2.422657468263     0.580225302360     1.007825032230
         H            3.486497755427     1.636497468263    -1.334305697640     1.007825032230

  Basis Set: AUG-CC-PVTZ
    Blend: AUG-CC-PVTZ
  Basis Set: (AUG-CC-PVTZ AUX)
    Blend: AUG-CC-PVTZ-JKFIT
	 Reference Energy          =    -758.5236584526073784 [Eh]
	 Singles Energy            =      -0.0000000000000000 [Eh]
	 Same-Spin Energy          =      -0.7342318624282577 [Eh]
	 Opposite-Spin Energy      =      -2.2306467560884826 [Eh]
	 Correlation Energy        =      -2.9648786185167402 [Eh]
	 Total Energy              =    -761.4885370711241421 [Eh]

	 ================> DF-SCS-MP2 Energies <==================
	-----------------------------------------------------------
	 SCS Same-Spin Scale       =       0.3333333333333333 [-]
	 SCS Opposite-Spin Scale   =       1.2000000000000000 [-]
	 SCS Same-Spin Energy      =      -0.2447439541427525 [Eh]
	 SCS Opposite-Spin Energy  =      -2.6767761073061789 [Eh]
	 SCS Correlation Energy    =      -2.9215200614489314 [Eh]
	 SCS Total Energy          =    -761.4451785140563516 [Eh]
	-----------------------------------------------------------

  Dipole Moment: [D]
     X:    -1.2696      Y:     2.6473      Z:    -0.7943     Total:     3.0416

*** Psi4 exiting successfully. Buy a developer a beer!
