                               Psi4 1.4a3.dev225

  ==> Input File <==

--------------------------------------------------------------------------
#psi4
#
memory 32 gb

molecule  {
0 1
  O       -1.3621950    -1.7118670    -1.0487160
  O        1.3250660    -1.5098260    -0.8661080
  O       -3.0202870    -0.6972320     0.8011600
  O        1.4000820    -0.3698310     1.7931610
  O       -3.3935320     1.8007080    -0.1346550
  O        2.6070010     1.5395500    -0.9938350
  O        3.6924620     0.1319130     0.4259740
  C       -0.8211920    -0.9649900     0.0477000
  C        0.4956150    -0.4174700    -0.4760140
  C       -1.8427190     0.0633310     0.5156670
  C        1.2861160     0.3473610     0.5837090
  C       -2.1923660     1.1169960    -0.5276460
  C        2.6663270     0.6479390     0.0251960
  H       -0.6001840    -1.6333830     0.8895000
  H        0.3094840     0.2426950    -1.3366810
  H       -1.5438990     0.4609494     1.2688746
  H        0.7848540     1.2951930     0.8109900
  H       -2.4256530     0.6242850    -1.4728150
  H       -1.3693410     1.8242450    -0.6894300
  H       -2.2436880    -1.9988170    -0.7384990
  H        0.7382740    -2.1149450    -1.3600910
  H       -3.7555350    -0.0560060     0.7240450
  H        2.1352240    -0.9985780     1.6549180
  H       -3.1588320     2.4130520     0.5846580
  H        3.5236120     1.6268920    -1.3298730
units angstrom
no_reorient  #important for SAPT in psi4, default
symmetry c1  #important for SAPT in psi4, default
}

set PROPERTIES_ORIGIN ["COM"]
properties('MP2/aug-cc-pvtz', properties = ['dipole'])
--------------------------------------------------------------------------

    Molecular point group: c1
  Charge       = 0
  Multiplicity = 1
  Basis Set: AUG-CC-PVTZ
    Blend: AUG-CC-PVTZ
  Basis Set: (AUG-CC-PVTZ AUX)
    Blend: AUG-CC-PVTZ-JKFIT

    Orbital Energies [Eh]
    ---------------------

    Doubly Occupied:

       1A    -20.631819     2A    -20.592039     3A    -20.575498
       4A    -20.572101     5A    -20.571636     6A    -20.570267
       7A    -20.565571     8A    -11.402443     9A    -11.319120
      10A    -11.304272    11A    -11.298916    12A    -11.294382
      13A    -11.276924    14A     -1.476705    15A     -1.407290
      16A     -1.396549    17A     -1.383524    18A     -1.369321
      19A     -1.362614    20A     -1.349551    21A     -1.085570
      22A     -1.034568    23A     -0.961277    24A     -0.898289
      25A     -0.837721    26A     -0.809053    27A     -0.762146
      28A     -0.736753    29A     -0.730542    30A     -0.716759
      31A     -0.714560    32A     -0.689462    33A     -0.675810
      34A     -0.650098    35A     -0.643417    36A     -0.637411
      37A     -0.631663    38A     -0.607791    39A     -0.601380
      40A     -0.581040    41A     -0.554366    42A     -0.548797
      43A     -0.540114    44A     -0.534457    45A     -0.530867
      46A     -0.506501    47A     -0.496135    48A     -0.484891
      49A     -0.471068    50A     -0.459843    51A     -0.456919
      52A     -0.442695

  @DF-RHF Final Energy:  -758.49278361423740

   => Energetics <=

    Nuclear Repulsion Energy =            916.7845438005895176
    One-Electron Energy =               -2865.0496490292280214
    Two-Electron Energy =                1189.7723216144011076
    Total Energy =                       -758.4927836142373963
  Basis Set: (AUG-CC-PVTZ AUX)
    Blend: AUG-CC-PVTZ-RI
    Molecular point group: c1

    Geometry (in Angstrom), charge = 0, multiplicity = 1:

       Center              X                  Y                   Z               Mass
    ------------   -----------------  -----------------  -----------------  -----------------
         O           -1.399976494504    -1.702459435044    -1.052046501247    15.994914619570
         O            1.287284505496    -1.500418435044    -0.869438501247    15.994914619570
         O           -3.058068494504    -0.687824435044     0.797829498753    15.994914619570
         O            1.362300505496    -0.360423435044     1.789830498753    15.994914619570
         O           -3.431313494504     1.810115564956    -0.137985501247    15.994914619570
         O            2.569219505496     1.548957564956    -0.997165501247    15.994914619570
         O            3.654680505496     0.141320564956     0.422643498753    15.994914619570
         C           -0.858973494504    -0.955582435044     0.044369498753    12.000000000000
         C            0.457833505496    -0.408062435044    -0.479344501247    12.000000000000
         C           -1.880500494504     0.072738564956     0.512336498753    12.000000000000
         C            1.248334505496     0.356768564956     0.580378498753    12.000000000000
         C           -2.230147494504     1.126403564956    -0.530976501247    12.000000000000
         C            2.628545505496     0.657346564956     0.021865498753    12.000000000000
         H           -0.637965494504    -1.623975435044     0.886169498753     1.007825032230
         H            0.271702505496     0.252102564956    -1.340011501247     1.007825032230
         H           -1.581680494504     0.470356964956     1.265544098753     1.007825032230
         H            0.747072505496     1.304600564956     0.807659498753     1.007825032230
         H           -2.463434494504     0.633692564956    -1.476145501247     1.007825032230
         H           -1.407122494504     1.833652564956    -0.692760501247     1.007825032230
         H           -2.281469494504    -1.989409435044    -0.741829501247     1.007825032230
         H            0.700492505496    -2.105537435044    -1.363421501247     1.007825032230
         H           -3.793316494504    -0.046598435044     0.720714498753     1.007825032230
         H            2.097442505496    -0.989170435044     1.651587498753     1.007825032230
         H           -3.196613494504     2.422459564956     0.581327498753     1.007825032230
         H            3.485830505496     1.636299564956    -1.333203501247     1.007825032230

  Basis Set: AUG-CC-PVTZ
    Blend: AUG-CC-PVTZ
  Basis Set: (AUG-CC-PVTZ AUX)
    Blend: AUG-CC-PVTZ-JKFIT
	 Reference Energy          =    -758.4927836142373963 [Eh]
	 Singles Energy            =      -0.0000000000000000 [Eh]
	 Same-Spin Energy          =      -0.7340309984868783 [Eh]
	 Opposite-Spin Energy      =      -2.2299476302160119 [Eh]
	 Correlation Energy        =      -2.9639786287028902 [Eh]
	 Total Energy              =    -761.4567622429402718 [Eh]

	 ================> DF-SCS-MP2 Energies <==================
	-----------------------------------------------------------
	 SCS Same-Spin Scale       =       0.3333333333333333 [-]
	 SCS Opposite-Spin Scale   =       1.2000000000000000 [-]
	 SCS Same-Spin Energy      =      -0.2446769994956261 [Eh]
	 SCS Opposite-Spin Energy  =      -2.6759371562592142 [Eh]
	 SCS Correlation Energy    =      -2.9206141557548402 [Eh]
	 SCS Total Energy          =    -761.4133977699922298 [Eh]
	-----------------------------------------------------------

  Dipole Moment: [D]
     X:    -1.1362      Y:     2.7495      Z:    -0.7473     Total:     3.0674

*** Psi4 exiting successfully. Buy a developer a beer!
