                               Psi4 1.4a3.dev225

  ==> Input File <==

--------------------------------------------------------------------------
#psi4
#
memory 32 gb

molecule  {
0 1
  O       -1.3621950    -1.7118670    -1.0487160
  O        1.3250660    -1.5098260    -0.8661080
  O       -3.0202870    -0.6972320     0.8011600
  O        1.4000820    -0.3698310     1.7931610
  O       -3.3935320     1.8007080    -0.1346550
  O        2.6070010     1.5395500    -0.9938350
  O        3.7141589     0.1545958     0.3973783
  C       -0.8211920    -0.9649900     0.0477000
  C        0.4956150    -0.4174700    -0.4760140
  C       -1.8427190     0.0633310     0.5156670
  C        1.2861160     0.3473610     0.5837090
  C       -2.1923660     1.1169960    -0.5276460
  C        2.6663270     0.6479390     0.0251960
  H       -0.6001840    -1.6333830     0.8895000
  H        0.3094840     0.2426950    -1.3366810
  H       -1.4776870     0.5490530     1.4357690
  H        0.7848540     1.2951930     0.8109900
  H       -2.4256530     0.6242850    -1.4728150
  H       -1.3693410     1.8242450    -0.6894300
  H       -2.2436880    -1.9988170    -0.7384990
  H        0.7382740    -2.1149450    -1.3600910
  H       -3.7555350    -0.0560060     0.7240450
  H        2.1352240    -0.9985780     1.6549180
  H       -3.1588320     2.4130520     0.5846580
  H        3.5236120     1.6268920    -1.3298730
units angstrom
no_reorient  #important for SAPT in psi4, default
symmetry c1  #important for SAPT in psi4, default
}

set PROPERTIES_ORIGIN ["COM"]
properties('MP2/aug-cc-pvtz', properties = ['dipole'])
--------------------------------------------------------------------------

    Molecular point group: c1
  Charge       = 0
  Multiplicity = 1
  Basis Set: AUG-CC-PVTZ
    Blend: AUG-CC-PVTZ
  Basis Set: (AUG-CC-PVTZ AUX)
    Blend: AUG-CC-PVTZ-JKFIT

    Orbital Energies [Eh]
    ---------------------

    Doubly Occupied:

       1A    -20.627936     2A    -20.592377     3A    -20.576636
       4A    -20.575740     5A    -20.573669     6A    -20.571077
       7A    -20.564244     8A    -11.401463     9A    -11.320447
      10A    -11.305234    11A    -11.302775    12A    -11.300825
      13A    -11.296549    14A     -1.475968    15A     -1.408313
      16A     -1.396768    17A     -1.383528    18A     -1.368944
      19A     -1.362408    20A     -1.351189    21A     -1.081283
      22A     -1.029096    23A     -0.961988    24A     -0.888666
      25A     -0.830407    26A     -0.803485    27A     -0.758459
      28A     -0.736378    29A     -0.725298    30A     -0.715654
      31A     -0.712004    32A     -0.683515    33A     -0.677024
      34A     -0.649714    35A     -0.640379    36A     -0.637327
      37A     -0.628903    38A     -0.607232    39A     -0.602416
      40A     -0.581655    41A     -0.553918    42A     -0.550554
      43A     -0.540840    44A     -0.534746    45A     -0.531654
      46A     -0.503756    47A     -0.494016    48A     -0.485035
      49A     -0.466969    50A     -0.460535    51A     -0.456340
      52A     -0.443519

  @DF-RHF Final Energy:  -758.52359044535399

   => Energetics <=

    Nuclear Repulsion Energy =            915.2319211382975936
    One-Electron Energy =               -2862.0533148269196317
    Two-Electron Energy =                1188.2978032432681630
    Total Energy =                       -758.5235904453538751
  Basis Set: (AUG-CC-PVTZ AUX)
    Blend: AUG-CC-PVTZ-RI
    Molecular point group: c1

    Geometry (in Angstrom), charge = 0, multiplicity = 1:

       Center              X                  Y                   Z               Mass
    ------------   -----------------  -----------------  -----------------  -----------------
         O           -1.402086939042    -1.704762844064    -1.050571504157    15.994914619570
         O            1.285174060958    -1.502721844064    -0.867963504157    15.994914619570
         O           -3.060178939042    -0.690127844064     0.799304495843    15.994914619570
         O            1.360190060958    -0.362726844064     1.791305495843    15.994914619570
         O           -3.433423939042     1.807812155936    -0.136510504157    15.994914619570
         O            2.567109060958     1.546654155936    -0.995690504157    15.994914619570
         O            3.674266960958     0.161699955936     0.395522795843    15.994914619570
         C           -0.861083939042    -0.957885844064     0.045844495843    12.000000000000
         C            0.455723060958    -0.410365844064    -0.477869504157    12.000000000000
         C           -1.882610939042     0.070435155936     0.513811495843    12.000000000000
         C            1.246224060958     0.354465155936     0.581853495843    12.000000000000
         C           -2.232257939042     1.124100155936    -0.529501504157    12.000000000000
         C            2.626435060958     0.655043155936     0.023340495843    12.000000000000
         H           -0.640075939042    -1.626278844064     0.887644495843     1.007825032230
         H            0.269592060958     0.249799155936    -1.338536504157     1.007825032230
         H           -1.517578939042     0.556157155936     1.433913495843     1.007825032230
         H            0.744962060958     1.302297155936     0.809134495843     1.007825032230
         H           -2.465544939042     0.631389155936    -1.474670504157     1.007825032230
         H           -1.409232939042     1.831349155936    -0.691285504157     1.007825032230
         H           -2.283579939042    -1.991712844064    -0.740354504157     1.007825032230
         H            0.698382060958    -2.107840844064    -1.361946504157     1.007825032230
         H           -3.795426939042    -0.048901844064     0.722189495843     1.007825032230
         H            2.095332060958    -0.991473844064     1.653062495843     1.007825032230
         H           -3.198723939042     2.420156155936     0.582802495843     1.007825032230
         H            3.483720060958     1.633996155936    -1.331728504157     1.007825032230

  Basis Set: AUG-CC-PVTZ
    Blend: AUG-CC-PVTZ
  Basis Set: (AUG-CC-PVTZ AUX)
    Blend: AUG-CC-PVTZ-JKFIT
	 Reference Energy          =    -758.5235904453539888 [Eh]
	 Singles Energy            =      -0.0000000000000000 [Eh]
	 Same-Spin Energy          =      -0.7341741305575046 [Eh]
	 Opposite-Spin Energy      =      -2.2307866331518422 [Eh]
	 Correlation Energy        =      -2.9649607637093469 [Eh]
	 Total Energy              =    -761.4885512090633028 [Eh]

	 ================> DF-SCS-MP2 Energies <==================
	-----------------------------------------------------------
	 SCS Same-Spin Scale       =       0.3333333333333333 [-]
	 SCS Opposite-Spin Scale   =       1.2000000000000000 [-]
	 SCS Same-Spin Energy      =      -0.2447247101858349 [Eh]
	 SCS Opposite-Spin Energy  =      -2.6769439597822107 [Eh]
	 SCS Correlation Energy    =      -2.9216686699680454 [Eh]
	 SCS Total Energy          =    -761.4452591153220737 [Eh]
	-----------------------------------------------------------

  Dipole Moment: [D]
     X:    -1.3123      Y:     2.6098      Z:    -0.7324     Total:     3.0116

*** Psi4 exiting successfully. Buy a developer a beer!
