                               Psi4 1.4a3.dev225

  ==> Input File <==

--------------------------------------------------------------------------
#psi4
#
memory 32 gb

molecule  {
0 1
  O       -1.3621950    -1.7118670    -1.0487160
  O        1.3250660    -1.5098260    -0.8661080
  O       -3.0202870    -0.6972320     0.8011600
  O        1.4000820    -0.3698310     1.7931610
  O       -3.3935320     1.8007080    -0.1346550
  O        2.6070010     1.5395500    -0.9938350
  O        3.6924620     0.1319130     0.4259740
  C       -0.8211920    -0.9649900     0.0477000
  C        0.6689678    -0.3453910    -0.5449590
  C       -1.8427190     0.0633310     0.5156670
  C        1.2861160     0.3473610     0.5837090
  C       -2.1923660     1.1169960    -0.5276460
  C        2.6663270     0.6479390     0.0251960
  H       -0.6001840    -1.6333830     0.8895000
  H        0.3094840     0.2426950    -1.3366810
  H       -1.4776870     0.5490530     1.4357690
  H        0.7848540     1.2951930     0.8109900
  H       -2.4256530     0.6242850    -1.4728150
  H       -1.3693410     1.8242450    -0.6894300
  H       -2.2436880    -1.9988170    -0.7384990
  H        0.7382740    -2.1149450    -1.3600910
  H       -3.7555350    -0.0560060     0.7240450
  H        2.1352240    -0.9985780     1.6549180
  H       -3.1588320     2.4130520     0.5846580
  H        3.5236120     1.6268920    -1.3298730
units angstrom
no_reorient  #important for SAPT in psi4, default
symmetry c1  #important for SAPT in psi4, default
}

set PROPERTIES_ORIGIN ["COM"]
properties('MP2/aug-cc-pvtz', properties = ['dipole'])
--------------------------------------------------------------------------

    Molecular point group: c1
  Charge       = 0
  Multiplicity = 1
  Basis Set: AUG-CC-PVTZ
    Blend: AUG-CC-PVTZ
  Basis Set: (AUG-CC-PVTZ AUX)
    Blend: AUG-CC-PVTZ-JKFIT

    Orbital Energies [Eh]
    ---------------------

    Doubly Occupied:

       1A    -20.632313     2A    -20.589907     3A    -20.578749
       4A    -20.574434     5A    -20.571098     6A    -20.569614
       7A    -20.564666     8A    -11.399737     9A    -11.318747
      10A    -11.308356    11A    -11.298188    12A    -11.296438
      13A    -11.294087    14A     -1.477993    15A     -1.409456
      16A     -1.399001    17A     -1.384955    18A     -1.371698
      19A     -1.364938    20A     -1.349537    21A     -1.079548
      22A     -1.033001    23A     -0.941460    24A     -0.888227
      25A     -0.826670    26A     -0.808104    27A     -0.764977
      28A     -0.734913    29A     -0.727155    30A     -0.713363
      31A     -0.712289    32A     -0.687926    33A     -0.678660
      34A     -0.661608    35A     -0.644804    36A     -0.635460
      37A     -0.627225    38A     -0.611054    39A     -0.598295
      40A     -0.581314    41A     -0.552794    42A     -0.545649
      43A     -0.542915    44A     -0.531599    45A     -0.531319
      46A     -0.502197    47A     -0.496476    48A     -0.491643
      49A     -0.466207    50A     -0.457486    51A     -0.447428
      52A     -0.406247

  @DF-RHF Final Energy:  -758.49107900667786

   => Energetics <=

    Nuclear Repulsion Energy =            914.8489410233157741
    One-Electron Energy =               -2861.3161878505443383
    Two-Electron Energy =                1187.9761678205506996
    Total Energy =                       -758.4910790066778645
  Basis Set: (AUG-CC-PVTZ AUX)
    Blend: AUG-CC-PVTZ-RI
    Molecular point group: c1

    Geometry (in Angstrom), charge = 0, multiplicity = 1:

       Center              X                  Y                   Z               Mass
    ------------   -----------------  -----------------  -----------------  -----------------
         O           -1.410927133580    -1.707324013592    -1.048684543927    15.994914619570
         O            1.276333866420    -1.505283013592    -0.866076543927    15.994914619570
         O           -3.069019133580    -0.692689013592     0.801191456073    15.994914619570
         O            1.351349866420    -0.365288013592     1.793192456073    15.994914619570
         O           -3.442264133580     1.805250986408    -0.134623543927    15.994914619570
         O            2.558268866420     1.544092986408    -0.993803543927    15.994914619570
         O            3.643729866420     0.136455986408     0.426005456073    15.994914619570
         C           -0.869924133580    -0.960447013592     0.047731456073    12.000000000000
         C            0.620235666420    -0.340848013592    -0.544927543927    12.000000000000
         C           -1.891451133580     0.067873986408     0.515698456073    12.000000000000
         C            1.237383866420     0.351903986408     0.583740456073    12.000000000000
         C           -2.241098133580     1.121538986408    -0.527614543927    12.000000000000
         C            2.617594866420     0.652481986408     0.025227456073    12.000000000000
         H           -0.648916133580    -1.628840013592     0.889531456073     1.007825032230
         H            0.260751866420     0.247237986408    -1.336649543927     1.007825032230
         H           -1.526419133580     0.553595986408     1.435800456073     1.007825032230
         H            0.736121866420     1.299735986408     0.811021456073     1.007825032230
         H           -2.474385133580     0.628827986408    -1.472783543927     1.007825032230
         H           -1.418073133580     1.828787986408    -0.689398543927     1.007825032230
         H           -2.292420133580    -1.994274013592    -0.738467543927     1.007825032230
         H            0.689541866420    -2.110402013592    -1.360059543927     1.007825032230
         H           -3.804267133580    -0.051463013592     0.724076456073     1.007825032230
         H            2.086491866420    -0.994035013592     1.654949456073     1.007825032230
         H           -3.207564133580     2.417594986408     0.584689456073     1.007825032230
         H            3.474879866420     1.631434986408    -1.329841543927     1.007825032230

  Basis Set: AUG-CC-PVTZ
    Blend: AUG-CC-PVTZ
  Basis Set: (AUG-CC-PVTZ AUX)
    Blend: AUG-CC-PVTZ-JKFIT
	 Reference Energy          =    -758.4910790066778645 [Eh]
	 Singles Energy            =      -0.0000000000000000 [Eh]
	 Same-Spin Energy          =      -0.7355097338443615 [Eh]
	 Opposite-Spin Energy      =      -2.2325275072671906 [Eh]
	 Correlation Energy        =      -2.9680372411115519 [Eh]
	 Total Energy              =    -761.4591162477894386 [Eh]

	 ================> DF-SCS-MP2 Energies <==================
	-----------------------------------------------------------
	 SCS Same-Spin Scale       =       0.3333333333333333 [-]
	 SCS Opposite-Spin Scale   =       1.2000000000000000 [-]
	 SCS Same-Spin Energy      =      -0.2451699112814538 [Eh]
	 SCS Opposite-Spin Energy  =      -2.6790330087206287 [Eh]
	 SCS Correlation Energy    =      -2.9242029200020823 [Eh]
	 SCS Total Energy          =    -761.4152819266799952 [Eh]
	-----------------------------------------------------------

  Dipole Moment: [D]
     X:    -0.9358      Y:     2.6434      Z:    -0.9305     Total:     2.9545

*** Psi4 exiting successfully. Buy a developer a beer!
