                               Psi4 1.4a3.dev225

  ==> Input File <==

--------------------------------------------------------------------------
#psi4
#
memory 32 gb

molecule  {
0 1
  O       -1.3621950    -1.7118670    -1.0487160
  O        1.3250660    -1.5098260    -0.8661080
  O       -3.0202870    -0.6972320     0.8011600
  O        1.4000820    -0.3698310     1.7931610
  O       -3.3935320     1.8007080    -0.1346550
  O        2.6070010     1.5395500    -0.9938350
  O        3.6924620     0.1319130     0.4259740
  C       -0.8211920    -0.9649900     0.0477000
  C        0.4956150    -0.4174700    -0.4760140
  C       -1.8838753     0.0367491     0.5256451
  C        1.2861160     0.3473610     0.5837090
  C       -2.1923660     1.1169960    -0.5276460
  C        2.6663270     0.6479390     0.0251960
  H       -0.6001840    -1.6333830     0.8895000
  H        0.3094840     0.2426950    -1.3366810
  H       -1.4776870     0.5490530     1.4357690
  H        0.7848540     1.2951930     0.8109900
  H       -2.4256530     0.6242850    -1.4728150
  H       -1.3693410     1.8242450    -0.6894300
  H       -2.2436880    -1.9988170    -0.7384990
  H        0.7382740    -2.1149450    -1.3600910
  H       -3.7555350    -0.0560060     0.7240450
  H        2.1352240    -0.9985780     1.6549180
  H       -3.1588320     2.4130520     0.5846580
  H        3.5236120     1.6268920    -1.3298730
units angstrom
no_reorient  #important for SAPT in psi4, default
symmetry c1  #important for SAPT in psi4, default
}

set PROPERTIES_ORIGIN ["COM"]
properties('MP2/aug-cc-pvtz', properties = ['dipole'])
--------------------------------------------------------------------------

    Molecular point group: c1
  Charge       = 0
  Multiplicity = 1
  Basis Set: AUG-CC-PVTZ
    Blend: AUG-CC-PVTZ
  Basis Set: (AUG-CC-PVTZ AUX)
    Blend: AUG-CC-PVTZ-JKFIT

    Orbital Energies [Eh]
    ---------------------

    Doubly Occupied:

       1A    -20.630928     2A    -20.591132     3A    -20.580694
       4A    -20.573937     5A    -20.572241     6A    -20.570296
       7A    -20.564528     8A    -11.401265     9A    -11.317400
      10A    -11.304165    11A    -11.302486    12A    -11.299243
      13A    -11.294475    14A     -1.475748    15A     -1.417191
      16A     -1.397224    17A     -1.383121    18A     -1.373964
      19A     -1.364035    20A     -1.353362    21A     -1.076433
      22A     -1.024443    23A     -0.958687    24A     -0.888429
      25A     -0.829995    26A     -0.802328    27A     -0.758058
      28A     -0.736183    29A     -0.727109    30A     -0.716632
      31A     -0.713700    32A     -0.686821    33A     -0.677400
      34A     -0.649762    35A     -0.641973    36A     -0.636846
      37A     -0.628242    38A     -0.606911    39A     -0.602431
      40A     -0.581418    41A     -0.557131    42A     -0.551650
      43A     -0.539874    44A     -0.536873    45A     -0.530352
      46A     -0.503485    47A     -0.495236    48A     -0.483528
      49A     -0.463129    50A     -0.457430    51A     -0.451569
      52A     -0.438869

  @DF-RHF Final Energy:  -758.52229427120392

   => Energetics <=

    Nuclear Repulsion Energy =            915.5292863709415769
    One-Electron Energy =               -2862.6624427321830808
    Two-Electron Energy =                1188.6108620900376991
    Total Energy =                       -758.5222942712039185
  Basis Set: (AUG-CC-PVTZ AUX)
    Blend: AUG-CC-PVTZ-RI
    Molecular point group: c1

    Geometry (in Angstrom), charge = 0, multiplicity = 1:

       Center              X                  Y                   Z               Mass
    ------------   -----------------  -----------------  -----------------  -----------------
         O           -1.397797828857    -1.701285346606    -1.053515133537    15.994914619570
         O            1.289463171143    -1.499244346606    -0.870907133537    15.994914619570
         O           -3.055889828857    -0.686650346606     0.796360866463    15.994914619570
         O            1.364479171143    -0.359249346606     1.788361866463    15.994914619570
         O           -3.429134828857     1.811289653394    -0.139454133537    15.994914619570
         O            2.571398171143     1.550131653394    -0.998634133537    15.994914619570
         O            3.656859171143     0.142494653394     0.421174866463    15.994914619570
         C           -0.856794828857    -0.954408346606     0.042900866463    12.000000000000
         C            0.460012171143    -0.406888346606    -0.480813133537    12.000000000000
         C           -1.919478128857     0.047330753394     0.520845966463    12.000000000000
         C            1.250513171143     0.357942653394     0.578909866463    12.000000000000
         C           -2.227968828857     1.127577653394    -0.532445133537    12.000000000000
         C            2.630724171143     0.658520653394     0.020396866463    12.000000000000
         H           -0.635786828857    -1.622801346606     0.884700866463     1.007825032230
         H            0.273881171143     0.253276653394    -1.341480133537     1.007825032230
         H           -1.513289828857     0.559634653394     1.430969866463     1.007825032230
         H            0.749251171143     1.305774653394     0.806190866463     1.007825032230
         H           -2.461255828857     0.634866653394    -1.477614133537     1.007825032230
         H           -1.404943828857     1.834826653394    -0.694229133537     1.007825032230
         H           -2.279290828857    -1.988235346606    -0.743298133537     1.007825032230
         H            0.702671171143    -2.104363346606    -1.364890133537     1.007825032230
         H           -3.791137828857    -0.045424346606     0.719245866463     1.007825032230
         H            2.099621171143    -0.987996346606     1.650118866463     1.007825032230
         H           -3.194434828857     2.423633653394     0.579858866463     1.007825032230
         H            3.488009171143     1.637473653394    -1.334672133537     1.007825032230

  Basis Set: AUG-CC-PVTZ
    Blend: AUG-CC-PVTZ
  Basis Set: (AUG-CC-PVTZ AUX)
    Blend: AUG-CC-PVTZ-JKFIT
	 Reference Energy          =    -758.5222942712039185 [Eh]
	 Singles Energy            =      -0.0000000000000000 [Eh]
	 Same-Spin Energy          =      -0.7341633549172277 [Eh]
	 Opposite-Spin Energy      =      -2.2302147216244368 [Eh]
	 Correlation Energy        =      -2.9643780765416645 [Eh]
	 Total Energy              =    -761.4866723477456389 [Eh]

	 ================> DF-SCS-MP2 Energies <==================
	-----------------------------------------------------------
	 SCS Same-Spin Scale       =       0.3333333333333333 [-]
	 SCS Opposite-Spin Scale   =       1.2000000000000000 [-]
	 SCS Same-Spin Energy      =      -0.2447211183057426 [Eh]
	 SCS Opposite-Spin Energy  =      -2.6762576659493242 [Eh]
	 SCS Correlation Energy    =      -2.9209787842550670 [Eh]
	 SCS Total Energy          =    -761.4432730554590307 [Eh]
	-----------------------------------------------------------

  Dipole Moment: [D]
     X:    -1.3580      Y:     2.6022      Z:    -0.7814     Total:     3.0375

*** Psi4 exiting successfully. Buy a developer a beer!
