                               Psi4 1.4a3.dev225

  ==> Input File <==

--------------------------------------------------------------------------
#psi4
#
memory 32 gb

molecule  {
0 1
  O       -1.3621950    -1.7118670    -1.0487160
  O        1.3250660    -1.5098260    -0.8661080
  O       -3.0202870    -0.6972320     0.8011600
  O        1.4000820    -0.3698310     1.7931610
  O       -3.3935320     1.8007080    -0.1346550
  O        2.6070010     1.5395500    -0.9938350
  O        3.6924620     0.1319130     0.4259740
  C       -0.8211920    -0.9649900     0.0477000
  C        0.4956150    -0.4174700    -0.4760140
  C       -1.8427190     0.0633310     0.5156670
  C        1.2861160     0.3473610     0.5837090
  C       -2.1756472     1.1074796    -0.5331160
  C        2.6663270     0.6479390     0.0251960
  H       -0.6001840    -1.6333830     0.8895000
  H        0.3094840     0.2426950    -1.3366810
  H       -1.4776870     0.5490530     1.4357690
  H        0.7848540     1.2951930     0.8109900
  H       -2.4256530     0.6242850    -1.4728150
  H       -1.3693410     1.8242450    -0.6894300
  H       -2.2436880    -1.9988170    -0.7384990
  H        0.7382740    -2.1149450    -1.3600910
  H       -3.7555350    -0.0560060     0.7240450
  H        2.1352240    -0.9985780     1.6549180
  H       -3.1588320     2.4130520     0.5846580
  H        3.5236120     1.6268920    -1.3298730
units angstrom
no_reorient  #important for SAPT in psi4, default
symmetry c1  #important for SAPT in psi4, default
}

set PROPERTIES_ORIGIN ["COM"]
properties('MP2/aug-cc-pvtz', properties = ['dipole'])
--------------------------------------------------------------------------

    Molecular point group: c1
  Charge       = 0
  Multiplicity = 1
  Basis Set: AUG-CC-PVTZ
    Blend: AUG-CC-PVTZ
  Basis Set: (AUG-CC-PVTZ AUX)
    Blend: AUG-CC-PVTZ-JKFIT

    Orbital Energies [Eh]
    ---------------------

    Doubly Occupied:

       1A    -20.631686     2A    -20.589852     3A    -20.575705
       4A    -20.575048     5A    -20.573468     6A    -20.570728
       7A    -20.565332     8A    -11.402147     9A    -11.318587
      10A    -11.304717    11A    -11.302776    12A    -11.300468
      13A    -11.295996    14A     -1.476532    15A     -1.406827
      16A     -1.395010    17A     -1.382046    18A     -1.368221
      19A     -1.361932    20A     -1.350407    21A     -1.081498
      22A     -1.029589    23A     -0.962180    24A     -0.888613
      25A     -0.830916    26A     -0.802816    27A     -0.757814
      28A     -0.736754    29A     -0.725865    30A     -0.714041
      31A     -0.712357    32A     -0.682462    33A     -0.676416
      34A     -0.650253    35A     -0.640498    36A     -0.637041
      37A     -0.627392    38A     -0.607379    39A     -0.598806
      40A     -0.581175    41A     -0.553309    42A     -0.549623
      43A     -0.539839    44A     -0.535833    45A     -0.531078
      46A     -0.504262    47A     -0.495955    48A     -0.484800
      49A     -0.467654    50A     -0.460309    51A     -0.456098
      52A     -0.443903

  @DF-RHF Final Energy:  -758.52277217096525

   => Energetics <=

    Nuclear Repulsion Energy =            915.6611688254897672
    One-Electron Energy =               -2862.9398617329998160
    Two-Electron Energy =                1188.7559207365447946
    Total Energy =                       -758.5227721709652542
  Basis Set: (AUG-CC-PVTZ AUX)
    Blend: AUG-CC-PVTZ-RI
    Molecular point group: c1

    Geometry (in Angstrom), charge = 0, multiplicity = 1:

       Center              X                  Y                   Z               Mass
    ------------   -----------------  -----------------  -----------------  -----------------
         O           -1.401340148618    -1.702329862432    -1.052569612753    15.994914619570
         O            1.285920851382    -1.500288862432    -0.869961612753    15.994914619570
         O           -3.059432148618    -0.687694862432     0.797306387247    15.994914619570
         O            1.360936851382    -0.360293862432     1.789307387247    15.994914619570
         O           -3.432677148618     1.810245137568    -0.138508612753    15.994914619570
         O            2.567855851382     1.549087137568    -0.997688612753    15.994914619570
         O            3.653316851382     0.141450137568     0.422120387247    15.994914619570
         C           -0.860337148618    -0.955452862432     0.043846387247    12.000000000000
         C            0.456469851382    -0.407932862432    -0.479867612753    12.000000000000
         C           -1.881864148618     0.072868137568     0.511813387247    12.000000000000
         C            1.246970851382     0.356898137568     0.579855387247    12.000000000000
         C           -2.214792348618     1.117016737568    -0.536969612753    12.000000000000
         C            2.627181851382     0.657476137568     0.021342387247    12.000000000000
         H           -0.639329148618    -1.623845862432     0.885646387247     1.007825032230
         H            0.270338851382     0.252232137568    -1.340534612753     1.007825032230
         H           -1.516832148618     0.558590137568     1.431915387247     1.007825032230
         H            0.745708851382     1.304730137568     0.807136387247     1.007825032230
         H           -2.464798148618     0.633822137568    -1.476668612753     1.007825032230
         H           -1.408486148618     1.833782137568    -0.693283612753     1.007825032230
         H           -2.282833148618    -1.989279862432    -0.742352612753     1.007825032230
         H            0.699128851382    -2.105407862432    -1.363944612753     1.007825032230
         H           -3.794680148618    -0.046468862432     0.720191387247     1.007825032230
         H            2.096078851382    -0.989040862432     1.651064387247     1.007825032230
         H           -3.197977148618     2.422589137568     0.580804387247     1.007825032230
         H            3.484466851382     1.636429137568    -1.333726612753     1.007825032230

  Basis Set: AUG-CC-PVTZ
    Blend: AUG-CC-PVTZ
  Basis Set: (AUG-CC-PVTZ AUX)
    Blend: AUG-CC-PVTZ-JKFIT
	 Reference Energy          =    -758.5227721709652542 [Eh]
	 Singles Energy            =      -0.0000000000000000 [Eh]
	 Same-Spin Energy          =      -0.7344104582630159 [Eh]
	 Opposite-Spin Energy      =      -2.2313884257155054 [Eh]
	 Correlation Energy        =      -2.9657988839785214 [Eh]
	 Total Energy              =    -761.4885710549438045 [Eh]

	 ================> DF-SCS-MP2 Energies <==================
	-----------------------------------------------------------
	 SCS Same-Spin Scale       =       0.3333333333333333 [-]
	 SCS Opposite-Spin Scale   =       1.2000000000000000 [-]
	 SCS Same-Spin Energy      =      -0.2448034860876719 [Eh]
	 SCS Opposite-Spin Energy  =      -2.6776661108586066 [Eh]
	 SCS Correlation Energy    =      -2.9224695969462786 [Eh]
	 SCS Total Energy          =    -761.4452417679115115 [Eh]
	-----------------------------------------------------------

  Dipole Moment: [D]
     X:    -1.1537      Y:     2.6347      Z:    -0.8182     Total:     2.9904

*** Psi4 exiting successfully. Buy a developer a beer!
