                               Psi4 1.4a3.dev225

  ==> Input File <==

--------------------------------------------------------------------------
#psi4
#
memory 32 gb

molecule  {
0 1
  O       -1.3621950    -1.7118670    -1.0487160
  O        1.3250660    -1.5098260    -0.8661080
  O       -3.0202870    -0.6972320     0.8011600
  O        1.4000820    -0.3698310     1.7931610
  O       -3.3935320     1.8007080    -0.1346550
  O        2.6070010     1.5395500    -0.9938350
  O        3.6924620     0.1319130     0.4259740
  C       -0.8211920    -0.9649900     0.0477000
  C        0.4956150    -0.4174700    -0.4760140
  C       -1.8427190     0.0633310     0.5156670
  C        1.2861160     0.3473610     0.5837090
  C       -2.1923660     1.1169960    -0.5276460
  C        2.6663270     0.6479390     0.0251960
  H       -0.6001840    -1.6333830     0.8895000
  H        0.3094840     0.2426950    -1.3366810
  H       -1.4776870     0.5490530     1.4357690
  H        0.8077209     1.2519541     0.8006217
  H       -2.4256530     0.6242850    -1.4728150
  H       -1.3693410     1.8242450    -0.6894300
  H       -2.2436880    -1.9988170    -0.7384990
  H        0.7382740    -2.1149450    -1.3600910
  H       -3.7555350    -0.0560060     0.7240450
  H        2.1352240    -0.9985780     1.6549180
  H       -3.1588320     2.4130520     0.5846580
  H        3.5236120     1.6268920    -1.3298730
units angstrom
no_reorient  #important for SAPT in psi4, default
symmetry c1  #important for SAPT in psi4, default
}

set PROPERTIES_ORIGIN ["COM"]
properties('MP2/aug-cc-pvtz', properties = ['dipole'])
--------------------------------------------------------------------------

    Molecular point group: c1
  Charge       = 0
  Multiplicity = 1
  Basis Set: AUG-CC-PVTZ
    Blend: AUG-CC-PVTZ
  Basis Set: (AUG-CC-PVTZ AUX)
    Blend: AUG-CC-PVTZ-JKFIT

    Orbital Energies [Eh]
    ---------------------

    Doubly Occupied:

       1A    -20.631567     2A    -20.592174     3A    -20.575418
       4A    -20.574090     5A    -20.573092     6A    -20.570137
       7A    -20.564868     8A    -11.401532     9A    -11.312289
      10A    -11.303977    11A    -11.302411    12A    -11.300610
      13A    -11.295825    14A     -1.476306    15A     -1.407818
      16A     -1.396224    17A     -1.383593    18A     -1.369487
      19A     -1.362395    20A     -1.350543    21A     -1.081473
      22A     -1.029937    23A     -0.961950    24A     -0.888372
      25A     -0.832609    26A     -0.805007    27A     -0.758874
      28A     -0.736492    29A     -0.726225    30A     -0.715432
      31A     -0.712611    32A     -0.683171    33A     -0.676424
      34A     -0.649859    35A     -0.641448    36A     -0.638448
      37A     -0.628686    38A     -0.607747    39A     -0.602463
      40A     -0.582232    41A     -0.553806    42A     -0.550198
      43A     -0.540002    44A     -0.534322    45A     -0.531633
      46A     -0.503438    47A     -0.495688    48A     -0.485130
      49A     -0.466410    50A     -0.459945    51A     -0.455515
      52A     -0.442818

  @DF-RHF Final Energy:  -758.52284176322587

   => Energetics <=

    Nuclear Repulsion Energy =            915.8703802542036101
    One-Electron Energy =               -2863.3410033151149037
    Two-Electron Energy =                1188.9477812976854239
    Total Energy =                       -758.5228417632258697
  Basis Set: (AUG-CC-PVTZ AUX)
    Blend: AUG-CC-PVTZ-RI
    Molecular point group: c1

    Geometry (in Angstrom), charge = 0, multiplicity = 1:

       Center              X                  Y                   Z               Mass
    ------------   -----------------  -----------------  -----------------  -----------------
         O           -1.400434398832    -1.702690059134    -1.052851113546    15.994914619570
         O            1.286826601168    -1.500649059134    -0.870243113546    15.994914619570
         O           -3.058526398832    -0.688055059134     0.797024886454    15.994914619570
         O            1.361842601168    -0.360654059134     1.789025886454    15.994914619570
         O           -3.431771398832     1.809884940866    -0.138790113546    15.994914619570
         O            2.568761601168     1.548726940866    -0.997970113546    15.994914619570
         O            3.654222601168     0.141089940866     0.421838886454    15.994914619570
         C           -0.859431398832    -0.955813059134     0.043564886454    12.000000000000
         C            0.457375601168    -0.408293059134    -0.480149113546    12.000000000000
         C           -1.880958398832     0.072507940866     0.511531886454    12.000000000000
         C            1.247876601168     0.356537940866     0.579573886454    12.000000000000
         C           -2.230605398832     1.126172940866    -0.531781113546    12.000000000000
         C            2.628087601168     0.657115940866     0.021060886454    12.000000000000
         H           -0.638423398832    -1.624206059134     0.885364886454     1.007825032230
         H            0.271244601168     0.251871940866    -1.340816113546     1.007825032230
         H           -1.515926398832     0.558229940866     1.431633886454     1.007825032230
         H            0.769481501168     1.261131040866     0.796486586454     1.007825032230
         H           -2.463892398832     0.633461940866    -1.476950113546     1.007825032230
         H           -1.407580398832     1.833421940866    -0.693565113546     1.007825032230
         H           -2.281927398832    -1.989640059134    -0.742634113546     1.007825032230
         H            0.700034601168    -2.105768059134    -1.364226113546     1.007825032230
         H           -3.793774398832    -0.046829059134     0.719909886454     1.007825032230
         H            2.096984601168    -0.989401059134     1.650782886454     1.007825032230
         H           -3.197071398832     2.422228940866     0.580522886454     1.007825032230
         H            3.485372601168     1.636068940866    -1.334008113546     1.007825032230

  Basis Set: AUG-CC-PVTZ
    Blend: AUG-CC-PVTZ
  Basis Set: (AUG-CC-PVTZ AUX)
    Blend: AUG-CC-PVTZ-JKFIT
	 Reference Energy          =    -758.5228417632258697 [Eh]
	 Singles Energy            =      -0.0000000000000000 [Eh]
	 Same-Spin Energy          =      -0.7342151213660629 [Eh]
	 Opposite-Spin Energy      =      -2.2306434462685703 [Eh]
	 Correlation Energy        =      -2.9648585676346331 [Eh]
	 Total Energy              =    -761.4877003308605481 [Eh]

	 ================> DF-SCS-MP2 Energies <==================
	-----------------------------------------------------------
	 SCS Same-Spin Scale       =       0.3333333333333333 [-]
	 SCS Opposite-Spin Scale   =       1.2000000000000000 [-]
	 SCS Same-Spin Energy      =      -0.2447383737886876 [Eh]
	 SCS Opposite-Spin Energy  =      -2.6767721355222842 [Eh]
	 SCS Correlation Energy    =      -2.9215105093109717 [Eh]
	 SCS Total Energy          =    -761.4443522725368894 [Eh]
	-----------------------------------------------------------

  Dipole Moment: [D]
     X:    -1.2245      Y:     2.6889      Z:    -0.8099     Total:     3.0636

*** Psi4 exiting successfully. Buy a developer a beer!
