                               Psi4 1.4a3.dev225

  ==> Input File <==

--------------------------------------------------------------------------
#psi4
#
memory 32 gb

molecule  {
0 1
  O       -1.3621950    -1.7118670    -1.0487160
  O        1.3250660    -1.5098260    -0.8661080
  O       -3.0202870    -0.6972320     0.8011600
  O        1.4000820    -0.3698310     1.7931610
  O       -3.3935320     1.8007080    -0.1346550
  O        2.6070010     1.5395500    -0.9938350
  O        3.6924620     0.1319130     0.4259740
  C       -0.8211920    -0.9649900     0.0477000
  C        0.4956150    -0.4174700    -0.4760140
  C       -2.0073443    -0.0429965     0.5555792
  C        1.2861160     0.3473610     0.5837090
  C       -2.1923660     1.1169960    -0.5276460
  C        2.6663270     0.6479390     0.0251960
  H       -0.6001840    -1.6333830     0.8895000
  H        0.3094840     0.2426950    -1.3366810
  H       -1.4776870     0.5490530     1.4357690
  H        0.7848540     1.2951930     0.8109900
  H       -2.4256530     0.6242850    -1.4728150
  H       -1.3693410     1.8242450    -0.6894300
  H       -2.2436880    -1.9988170    -0.7384990
  H        0.7382740    -2.1149450    -1.3600910
  H       -3.7555350    -0.0560060     0.7240450
  H        2.1352240    -0.9985780     1.6549180
  H       -3.1588320     2.4130520     0.5846580
  H        3.5236120     1.6268920    -1.3298730
units angstrom
no_reorient  #important for SAPT in psi4, default
symmetry c1  #important for SAPT in psi4, default
}

set PROPERTIES_ORIGIN ["COM"]
properties('MP2/aug-cc-pvtz', properties = ['dipole'])
--------------------------------------------------------------------------

    Molecular point group: c1
  Charge       = 0
  Multiplicity = 1
  Basis Set: AUG-CC-PVTZ
    Blend: AUG-CC-PVTZ
  Basis Set: (AUG-CC-PVTZ AUX)
    Blend: AUG-CC-PVTZ-JKFIT

    Orbital Energies [Eh]
    ---------------------

    Doubly Occupied:

       1A    -20.629188     2A    -20.598968     3A    -20.588747
       4A    -20.571040     5A    -20.570105     6A    -20.569701
       7A    -20.562620     8A    -11.399165     9A    -11.314568
      10A    -11.308667    11A    -11.303497    12A    -11.295466
      13A    -11.290494    14A     -1.486939    15A     -1.473918
      16A     -1.396757    17A     -1.381578    18A     -1.379899
      19A     -1.363207    20A     -1.353816    21A     -1.066601
      22A     -1.011218    23A     -0.950978    24A     -0.893649
      25A     -0.830995    26A     -0.804988    27A     -0.763683
      28A     -0.741045    29A     -0.732918    30A     -0.725267
      31A     -0.715415    32A     -0.703203    33A     -0.678317
      34A     -0.652292    35A     -0.647763    36A     -0.635149
      37A     -0.628055    38A     -0.610531    39A     -0.604079
      40A     -0.584444    41A     -0.566460    42A     -0.551181
      43A     -0.546665    44A     -0.536506    45A     -0.525989
      46A     -0.502013    47A     -0.493527    48A     -0.480107
      49A     -0.458643    50A     -0.452162    51A     -0.424057
      52A     -0.416423

  @DF-RHF Final Energy:  -758.48035039230479

   => Energetics <=

    Nuclear Repulsion Energy =            915.5390782984998168
    One-Electron Energy =               -2862.4935275055449893
    Two-Electron Energy =                1188.4740988147405005
    Total Energy =                       -758.4803503923046719
  Basis Set: (AUG-CC-PVTZ AUX)
    Blend: AUG-CC-PVTZ-RI
    Molecular point group: c1

    Geometry (in Angstrom), charge = 0, multiplicity = 1:

       Center              X                  Y                   Z               Mass
    ------------   -----------------  -----------------  -----------------  -----------------
         O           -1.390240750277    -1.696404414828    -1.055347288539    15.994914619570
         O            1.297020249723    -1.494363414828    -0.872739288539    15.994914619570
         O           -3.048332750277    -0.681769414828     0.794528711461    15.994914619570
         O            1.372036249723    -0.354368414828     1.786529711461    15.994914619570
         O           -3.421577750277     1.816170585172    -0.141286288539    15.994914619570
         O            2.578955249723     1.555012585172    -1.000466288539    15.994914619570
         O            3.664416249723     0.147375585172     0.419342711461    15.994914619570
         C           -0.849237750277    -0.949527414828     0.041068711461    12.000000000000
         C            0.467569249723    -0.402007414828    -0.482645288539    12.000000000000
         C           -2.035390050277    -0.027533914828     0.548947911461    12.000000000000
         C            1.258070249723     0.362823585172     0.577077711461    12.000000000000
         C           -2.220411750277     1.132458585172    -0.534277288539    12.000000000000
         C            2.638281249723     0.663401585172     0.018564711461    12.000000000000
         H           -0.628229750277    -1.617920414828     0.882868711461     1.007825032230
         H            0.281438249723     0.258157585172    -1.343312288539     1.007825032230
         H           -1.505732750277     0.564515585172     1.429137711461     1.007825032230
         H            0.756808249723     1.310655585172     0.804358711461     1.007825032230
         H           -2.453698750277     0.639747585172    -1.479446288539     1.007825032230
         H           -1.397386750277     1.839707585172    -0.696061288539     1.007825032230
         H           -2.271733750277    -1.983354414828    -0.745130288539     1.007825032230
         H            0.710228249723    -2.099482414828    -1.366722288539     1.007825032230
         H           -3.783580750277    -0.040543414828     0.717413711461     1.007825032230
         H            2.107178249723    -0.983115414828     1.648286711461     1.007825032230
         H           -3.186877750277     2.428514585172     0.578026711461     1.007825032230
         H            3.495566249723     1.642354585172    -1.336504288539     1.007825032230

  Basis Set: AUG-CC-PVTZ
    Blend: AUG-CC-PVTZ
  Basis Set: (AUG-CC-PVTZ AUX)
    Blend: AUG-CC-PVTZ-JKFIT
	 Reference Energy          =    -758.4803503923047856 [Eh]
	 Singles Energy            =      -0.0000000000000000 [Eh]
	 Same-Spin Energy          =      -0.7349336558287776 [Eh]
	 Opposite-Spin Energy      =      -2.2300705183944705 [Eh]
	 Correlation Energy        =      -2.9650041742232478 [Eh]
	 Total Energy              =    -761.4453545665280672 [Eh]

	 ================> DF-SCS-MP2 Energies <==================
	-----------------------------------------------------------
	 SCS Same-Spin Scale       =       0.3333333333333333 [-]
	 SCS Opposite-Spin Scale   =       1.2000000000000000 [-]
	 SCS Same-Spin Energy      =      -0.2449778852762592 [Eh]
	 SCS Opposite-Spin Energy  =      -2.6760846220733643 [Eh]
	 SCS Correlation Energy    =      -2.9210625073496232 [Eh]
	 SCS Total Energy          =    -761.4014128996543604 [Eh]
	-----------------------------------------------------------

  Dipole Moment: [D]
     X:    -1.8945      Y:     2.3078      Z:    -0.7311     Total:     3.0740

*** Psi4 exiting successfully. Buy a developer a beer!
