                               Psi4 1.4a3.dev225

  ==> Input File <==

--------------------------------------------------------------------------
#psi4
#
memory 32 gb

molecule  {
0 1
  O       -1.3621950    -1.7118670    -1.0487160
  O        1.3250660    -1.5098260    -0.8661080
  O       -3.0202870    -0.6972320     0.8011600
  O        1.4000820    -0.3698310     1.7931610
  O       -3.3935320     1.8007080    -0.1346550
  O        2.6070010     1.5395500    -0.9938350
  O        3.6924620     0.1319130     0.4259740
  C       -0.8211920    -0.9649900     0.0477000
  C        0.4956150    -0.4174700    -0.4760140
  C       -1.8427190     0.0633310     0.5156670
  C        1.2861160     0.3473610     0.5837090
  C       -2.1923660     1.1169960    -0.5276460
  C        2.6663270     0.6479390     0.0251960
  H       -0.5599044    -1.7552003     1.0429214
  H        0.3094840     0.2426950    -1.3366810
  H       -1.4776870     0.5490530     1.4357690
  H        0.7848540     1.2951930     0.8109900
  H       -2.4256530     0.6242850    -1.4728150
  H       -1.3693410     1.8242450    -0.6894300
  H       -2.2436880    -1.9988170    -0.7384990
  H        0.7382740    -2.1149450    -1.3600910
  H       -3.7555350    -0.0560060     0.7240450
  H        2.1352240    -0.9985780     1.6549180
  H       -3.1588320     2.4130520     0.5846580
  H        3.5236120     1.6268920    -1.3298730
units angstrom
no_reorient  #important for SAPT in psi4, default
symmetry c1  #important for SAPT in psi4, default
}

set PROPERTIES_ORIGIN ["COM"]
properties('MP2/aug-cc-pvtz', properties = ['dipole'])
--------------------------------------------------------------------------

    Molecular point group: c1
  Charge       = 0
  Multiplicity = 1
  Basis Set: AUG-CC-PVTZ
    Blend: AUG-CC-PVTZ
  Basis Set: (AUG-CC-PVTZ AUX)
    Blend: AUG-CC-PVTZ-JKFIT

    Orbital Energies [Eh]
    ---------------------

    Doubly Occupied:

       1A    -20.631590     2A    -20.593037     3A    -20.576529
       4A    -20.575324     5A    -20.573469     6A    -20.570272
       7A    -20.565070     8A    -11.401897     9A    -11.318280
      10A    -11.316283    11A    -11.306184    12A    -11.303983
      13A    -11.301780    14A     -1.476355    15A     -1.408256
      16A     -1.396239    17A     -1.384149    18A     -1.369785
      19A     -1.362302    20A     -1.351467    21A     -1.078970
      22A     -1.028361    23A     -0.957068    24A     -0.887074
      25A     -0.829793    26A     -0.798324    27A     -0.753851
      28A     -0.735864    29A     -0.725264    30A     -0.715707
      31A     -0.706662    32A     -0.683493    33A     -0.675967
      34A     -0.649739    35A     -0.640275    36A     -0.636785
      37A     -0.624618    38A     -0.607024    39A     -0.597448
      40A     -0.579184    41A     -0.550515    42A     -0.549817
      43A     -0.538533    44A     -0.534423    45A     -0.529498
      46A     -0.502425    47A     -0.495738    48A     -0.484553
      49A     -0.466278    50A     -0.458503    51A     -0.455907
      52A     -0.430265

  @DF-RHF Final Energy:  -758.50228876886308

   => Energetics <=

    Nuclear Repulsion Energy =            914.4976277433557925
    One-Electron Energy =               -2860.6194753182053319
    Two-Electron Energy =                1187.6195588059865713
    Total Energy =                       -758.5022887688630817
  Basis Set: (AUG-CC-PVTZ AUX)
    Blend: AUG-CC-PVTZ-RI
    Molecular point group: c1

    Geometry (in Angstrom), charge = 0, multiplicity = 1:

       Center              X                  Y                   Z               Mass
    ------------   -----------------  -----------------  -----------------  -----------------
         O           -1.400523907690    -1.702286131948    -1.053693063912    15.994914619570
         O            1.286737092310    -1.500245131948    -0.871085063912    15.994914619570
         O           -3.058615907690    -0.687651131948     0.796182936088    15.994914619570
         O            1.361753092310    -0.360250131948     1.788183936088    15.994914619570
         O           -3.431860907690     1.810288868052    -0.139632063912    15.994914619570
         O            2.568672092310     1.549130868052    -0.998812063912    15.994914619570
         O            3.654133092310     0.141493868052     0.420996936088    15.994914619570
         C           -0.859520907690    -0.955409131948     0.042722936088    12.000000000000
         C            0.457286092310    -0.407889131948    -0.480991063912    12.000000000000
         C           -1.881047907690     0.072911868052     0.510689936088    12.000000000000
         C            1.247787092310     0.356941868052     0.578731936088    12.000000000000
         C           -2.230694907690     1.126576868052    -0.532623063912    12.000000000000
         C            2.627998092310     0.657519868052     0.020218936088    12.000000000000
         H           -0.598233307690    -1.745619431948     1.037944336088     1.007825032230
         H            0.271155092310     0.252275868052    -1.341658063912     1.007825032230
         H           -1.516015907690     0.558633868052     1.430791936088     1.007825032230
         H            0.746525092310     1.304773868052     0.806012936088     1.007825032230
         H           -2.463981907690     0.633865868052    -1.477792063912     1.007825032230
         H           -1.407669907690     1.833825868052    -0.694407063912     1.007825032230
         H           -2.282016907690    -1.989236131948    -0.743476063912     1.007825032230
         H            0.699945092310    -2.105364131948    -1.365068063912     1.007825032230
         H           -3.793863907690    -0.046425131948     0.719067936088     1.007825032230
         H            2.096895092310    -0.988997131948     1.649940936088     1.007825032230
         H           -3.197160907690     2.422632868052     0.579680936088     1.007825032230
         H            3.485283092310     1.636472868052    -1.334850063912     1.007825032230

  Basis Set: AUG-CC-PVTZ
    Blend: AUG-CC-PVTZ
  Basis Set: (AUG-CC-PVTZ AUX)
    Blend: AUG-CC-PVTZ-JKFIT
	 Reference Energy          =    -758.5022887688630817 [Eh]
	 Singles Energy            =      -0.0000000000000000 [Eh]
	 Same-Spin Energy          =      -0.7350638752883931 [Eh]
	 Opposite-Spin Energy      =      -2.2335017053062041 [Eh]
	 Correlation Energy        =      -2.9685655805945972 [Eh]
	 Total Energy              =    -761.4708543494576816 [Eh]

	 ================> DF-SCS-MP2 Energies <==================
	-----------------------------------------------------------
	 SCS Same-Spin Scale       =       0.3333333333333333 [-]
	 SCS Opposite-Spin Scale   =       1.2000000000000000 [-]
	 SCS Same-Spin Energy      =      -0.2450212917627977 [Eh]
	 SCS Opposite-Spin Energy  =      -2.6802020463674450 [Eh]
	 SCS Correlation Energy    =      -2.9252233381302428 [Eh]
	 SCS Total Energy          =    -761.4275121069932766 [Eh]
	-----------------------------------------------------------

  Dipole Moment: [D]
     X:    -1.2497      Y:     2.7245      Z:    -0.8920     Total:     3.1273

*** Psi4 exiting successfully. Buy a developer a beer!
