                               Psi4 1.4a3.dev225

  ==> Input File <==

--------------------------------------------------------------------------
#psi4
#
memory 32 gb

molecule  {
0 1
  O       -1.3621950    -1.7118670    -1.0487160
  O        1.3250660    -1.5098260    -0.8661080
  O       -3.0202870    -0.6972320     0.8011600
  O        1.4000820    -0.3698310     1.7931610
  O       -3.3935320     1.8007080    -0.1346550
  O        2.6070010     1.5395500    -0.9938350
  O        3.6924620     0.1319130     0.4259740
  C       -0.8211920    -0.9649900     0.0477000
  C        0.4956150    -0.4174700    -0.4760140
  C       -1.8427190     0.0633310     0.5156670
  C        1.2861160     0.3473610     0.5837090
  C       -2.2038413     1.1515771    -0.5618873
  C        2.6663270     0.6479390     0.0251960
  H       -0.6001840    -1.6333830     0.8895000
  H        0.3094840     0.2426950    -1.3366810
  H       -1.4776870     0.5490530     1.4357690
  H        0.7848540     1.2951930     0.8109900
  H       -2.4256530     0.6242850    -1.4728150
  H       -1.3693410     1.8242450    -0.6894300
  H       -2.2436880    -1.9988170    -0.7384990
  H        0.7382740    -2.1149450    -1.3600910
  H       -3.7555350    -0.0560060     0.7240450
  H        2.1352240    -0.9985780     1.6549180
  H       -3.1588320     2.4130520     0.5846580
  H        3.5236120     1.6268920    -1.3298730
units angstrom
no_reorient  #important for SAPT in psi4, default
symmetry c1  #important for SAPT in psi4, default
}

set PROPERTIES_ORIGIN ["COM"]
properties('MP2/aug-cc-pvtz', properties = ['dipole'])
--------------------------------------------------------------------------

    Molecular point group: c1
  Charge       = 0
  Multiplicity = 1
  Basis Set: AUG-CC-PVTZ
    Blend: AUG-CC-PVTZ
  Basis Set: (AUG-CC-PVTZ AUX)
    Blend: AUG-CC-PVTZ-JKFIT

    Orbital Energies [Eh]
    ---------------------

    Doubly Occupied:

       1A    -20.631261     2A    -20.593499     3A    -20.574598
       4A    -20.574387     5A    -20.572317     6A    -20.569898
       7A    -20.564849     8A    -11.401634     9A    -11.317906
      10A    -11.303749    11A    -11.302356    12A    -11.299637
      13A    -11.294402    14A     -1.476079    15A     -1.407955
      16A     -1.397229    17A     -1.384594    18A     -1.370051
      19A     -1.362441    20A     -1.350049    21A     -1.077559
      22A     -1.023540    23A     -0.959444    24A     -0.889336
      25A     -0.830289    26A     -0.802038    27A     -0.757119
      28A     -0.736047    29A     -0.724365    30A     -0.720362
      31A     -0.711349    32A     -0.681044    33A     -0.675842
      34A     -0.649591    35A     -0.639545    36A     -0.636590
      37A     -0.628085    38A     -0.607656    39A     -0.606556
      40A     -0.580886    41A     -0.553749    42A     -0.549424
      43A     -0.539733    44A     -0.535971    45A     -0.531364
      46A     -0.505260    47A     -0.495495    48A     -0.484089
      49A     -0.463884    50A     -0.457788    51A     -0.454288
      52A     -0.436818

  @DF-RHF Final Energy:  -758.52218931181244

   => Energetics <=

    Nuclear Repulsion Energy =            914.7965866396326646
    One-Electron Energy =               -2861.2495572906545931
    Two-Electron Energy =                1187.9307813392097160
    Total Energy =                       -758.5221893118123262
  Basis Set: (AUG-CC-PVTZ AUX)
    Blend: AUG-CC-PVTZ-RI
    Molecular point group: c1

    Geometry (in Angstrom), charge = 0, multiplicity = 1:

       Center              X                  Y                   Z               Mass
    ------------   -----------------  -----------------  -----------------  -----------------
         O           -1.399614492549    -1.705028906505    -1.050808628418    15.994914619570
         O            1.287646507451    -1.502987906505    -0.868200628418    15.994914619570
         O           -3.057706492549    -0.690393906505     0.799067371582    15.994914619570
         O            1.362662507451    -0.362992906505     1.791068371582    15.994914619570
         O           -3.430951492549     1.807546093495    -0.136747628418    15.994914619570
         O            2.569581507451     1.546388093495    -0.995927628418    15.994914619570
         O            3.655042507451     0.138751093495     0.423881371582    15.994914619570
         C           -0.858611492549    -0.958151906505     0.045607371582    12.000000000000
         C            0.458195507451    -0.410631906505    -0.478106628418    12.000000000000
         C           -1.880138492549     0.070169093495     0.513574371582    12.000000000000
         C            1.248696507451     0.354199093495     0.581616371582    12.000000000000
         C           -2.241260792549     1.158415193495    -0.563979928418    12.000000000000
         C            2.628907507451     0.654777093495     0.023103371582    12.000000000000
         H           -0.637603492549    -1.626544906505     0.887407371582     1.007825032230
         H            0.272064507451     0.249533093495    -1.338773628418     1.007825032230
         H           -1.515106492549     0.555891093495     1.433676371582     1.007825032230
         H            0.747434507451     1.302031093495     0.808897371582     1.007825032230
         H           -2.463072492549     0.631123093495    -1.474907628418     1.007825032230
         H           -1.406760492549     1.831083093495    -0.691522628418     1.007825032230
         H           -2.281107492549    -1.991978906505    -0.740591628418     1.007825032230
         H            0.700854507451    -2.108106906505    -1.362183628418     1.007825032230
         H           -3.792954492549    -0.049167906505     0.721952371582     1.007825032230
         H            2.097804507451    -0.991739906505     1.652825371582     1.007825032230
         H           -3.196251492549     2.419890093495     0.582565371582     1.007825032230
         H            3.486192507451     1.633730093495    -1.331965628418     1.007825032230

  Basis Set: AUG-CC-PVTZ
    Blend: AUG-CC-PVTZ
  Basis Set: (AUG-CC-PVTZ AUX)
    Blend: AUG-CC-PVTZ-JKFIT
	 Reference Energy          =    -758.5221893118124399 [Eh]
	 Singles Energy            =      -0.0000000000000000 [Eh]
	 Same-Spin Energy          =      -0.7340311539504999 [Eh]
	 Opposite-Spin Energy      =      -2.2306156527699876 [Eh]
	 Correlation Energy        =      -2.9646468067204874 [Eh]
	 Total Energy              =    -761.4868361185328922 [Eh]

	 ================> DF-SCS-MP2 Energies <==================
	-----------------------------------------------------------
	 SCS Same-Spin Scale       =       0.3333333333333333 [-]
	 SCS Opposite-Spin Scale   =       1.2000000000000000 [-]
	 SCS Same-Spin Energy      =      -0.2446770513168333 [Eh]
	 SCS Opposite-Spin Energy  =      -2.6767387833239851 [Eh]
	 SCS Correlation Energy    =      -2.9214158346408183 [Eh]
	 SCS Total Energy          =    -761.4436051464532511 [Eh]
	-----------------------------------------------------------

  Dipole Moment: [D]
     X:    -1.2756      Y:     2.7498      Z:    -0.8157     Total:     3.1391

*** Psi4 exiting successfully. Buy a developer a beer!
