                               Psi4 1.4a3.dev225

  ==> Input File <==

--------------------------------------------------------------------------
#psi4
#
memory 32 gb

molecule  {
0 1
  O       -1.3621950    -1.7118670    -1.0487160
  O        1.3250660    -1.5098260    -0.8661080
  O       -3.0202870    -0.6972320     0.8011600
  O        1.4000820    -0.3698310     1.7931610
  O       -3.3935320     1.8007080    -0.1346550
  O        2.6070010     1.5395500    -0.9938350
  O        3.6924620     0.1319130     0.4259740
  C       -0.8211920    -0.9649900     0.0477000
  C        0.4956150    -0.4174700    -0.4760140
  C       -1.8427190     0.0633310     0.5156670
  C        1.2861160     0.3473610     0.5837090
  C       -2.2153167     1.1861581    -0.5961286
  C        2.6663270     0.6479390     0.0251960
  H       -0.6001840    -1.6333830     0.8895000
  H        0.3094840     0.2426950    -1.3366810
  H       -1.4776870     0.5490530     1.4357690
  H        0.7848540     1.2951930     0.8109900
  H       -2.4256530     0.6242850    -1.4728150
  H       -1.3693410     1.8242450    -0.6894300
  H       -2.2436880    -1.9988170    -0.7384990
  H        0.7382740    -2.1149450    -1.3600910
  H       -3.7555350    -0.0560060     0.7240450
  H        2.1352240    -0.9985780     1.6549180
  H       -3.1588320     2.4130520     0.5846580
  H        3.5236120     1.6268920    -1.3298730
units angstrom
no_reorient  #important for SAPT in psi4, default
symmetry c1  #important for SAPT in psi4, default
}

set PROPERTIES_ORIGIN ["COM"]
properties('MP2/aug-cc-pvtz', properties = ['dipole'])
--------------------------------------------------------------------------

    Molecular point group: c1
  Charge       = 0
  Multiplicity = 1
  Basis Set: AUG-CC-PVTZ
    Blend: AUG-CC-PVTZ
  Basis Set: (AUG-CC-PVTZ AUX)
    Blend: AUG-CC-PVTZ-JKFIT

    Orbital Energies [Eh]
    ---------------------

    Doubly Occupied:

       1A    -20.631059     2A    -20.595099     3A    -20.573985
       4A    -20.573969     5A    -20.571531     6A    -20.569359
       7A    -20.564587     8A    -11.401355     9A    -11.317530
      10A    -11.303133    11A    -11.302048    12A    -11.299495
      13A    -11.293018    14A     -1.475849    15A     -1.409085
      16A     -1.398113    17A     -1.385092    18A     -1.370151
      19A     -1.362173    20A     -1.349404    21A     -1.075293
      22A     -1.019451    23A     -0.957926    24A     -0.890187
      25A     -0.829842    26A     -0.801328    27A     -0.756534
      28A     -0.735686    29A     -0.725851    30A     -0.722664
      31A     -0.710012    32A     -0.679595    33A     -0.675196
      34A     -0.649184    35A     -0.638913    36A     -0.636883
      37A     -0.627802    38A     -0.611916    39A     -0.606233
      40A     -0.580546    41A     -0.555241    42A     -0.549266
      43A     -0.540082    44A     -0.537168    45A     -0.531360
      46A     -0.505912    47A     -0.495249    48A     -0.483627
      49A     -0.462293    50A     -0.456184    51A     -0.452791
      52A     -0.427930

  @DF-RHF Final Energy:  -758.51672808375486

   => Energetics <=

    Nuclear Repulsion Energy =            914.0146034585363850
    One-Electron Energy =               -2859.7143047256254249
    Two-Electron Energy =                1187.1829731833340702
    Total Energy =                       -758.5167280837549697
  Basis Set: (AUG-CC-PVTZ AUX)
    Blend: AUG-CC-PVTZ-RI
    Molecular point group: c1

    Geometry (in Angstrom), charge = 0, multiplicity = 1:

       Center              X                  Y                   Z               Mass
    ------------   -----------------  -----------------  -----------------  -----------------
         O           -1.398912125966    -1.707145480984    -1.048712845713    15.994914619570
         O            1.288348874034    -1.505104480984    -0.866104845713    15.994914619570
         O           -3.057004125966    -0.692510480984     0.801163154287    15.994914619570
         O            1.363364874034    -0.365109480984     1.793164154287    15.994914619570
         O           -3.430249125966     1.805429519016    -0.134651845713    15.994914619570
         O            2.570283874034     1.544271519016    -0.993831845713    15.994914619570
         O            3.655744874034     0.136634519016     0.425977154287    15.994914619570
         C           -0.857909125966    -0.960268480984     0.047703154287    12.000000000000
         C            0.458897874034    -0.412748480984    -0.476010845713    12.000000000000
         C           -1.879436125966     0.068052519016     0.515670154287    12.000000000000
         C            1.249398874034     0.352082519016     0.583712154287    12.000000000000
         C           -2.252033825966     1.190879619016    -0.596125445713    12.000000000000
         C            2.629609874034     0.652660519016     0.025199154287    12.000000000000
         H           -0.636901125966    -1.628661480984     0.889503154287     1.007825032230
         H            0.272766874034     0.247416519016    -1.336677845713     1.007825032230
         H           -1.514404125966     0.553774519016     1.435772154287     1.007825032230
         H            0.748136874034     1.299914519016     0.810993154287     1.007825032230
         H           -2.462370125966     0.629006519016    -1.472811845713     1.007825032230
         H           -1.406058125966     1.828966519016    -0.689426845713     1.007825032230
         H           -2.280405125966    -1.994095480984    -0.738495845713     1.007825032230
         H            0.701556874034    -2.110223480984    -1.360087845713     1.007825032230
         H           -3.792252125966    -0.051284480984     0.724048154287     1.007825032230
         H            2.098506874034    -0.993856480984     1.654921154287     1.007825032230
         H           -3.195549125966     2.417773519016     0.584661154287     1.007825032230
         H            3.486894874034     1.631613519016    -1.329869845713     1.007825032230

  Basis Set: AUG-CC-PVTZ
    Blend: AUG-CC-PVTZ
  Basis Set: (AUG-CC-PVTZ AUX)
    Blend: AUG-CC-PVTZ-JKFIT
	 Reference Energy          =    -758.5167280837548560 [Eh]
	 Singles Energy            =      -0.0000000000000000 [Eh]
	 Same-Spin Energy          =      -0.7339652691138007 [Eh]
	 Opposite-Spin Energy      =      -2.2306129174827660 [Eh]
	 Correlation Energy        =      -2.9645781865965666 [Eh]
	 Total Energy              =    -761.4813062703514106 [Eh]

	 ================> DF-SCS-MP2 Energies <==================
	-----------------------------------------------------------
	 SCS Same-Spin Scale       =       0.3333333333333333 [-]
	 SCS Opposite-Spin Scale   =       1.2000000000000000 [-]
	 SCS Same-Spin Energy      =      -0.2446550897046002 [Eh]
	 SCS Opposite-Spin Energy  =      -2.6767355009793192 [Eh]
	 SCS Correlation Energy    =      -2.9213905906839193 [Eh]
	 SCS Total Energy          =    -761.4381186744387833 [Eh]
	-----------------------------------------------------------

  Dipole Moment: [D]
     X:    -1.3403      Y:     2.8229      Z:    -0.8263     Total:     3.2323

*** Psi4 exiting successfully. Buy a developer a beer!
