                               Psi4 1.4a3.dev225

  ==> Input File <==

--------------------------------------------------------------------------
#psi4
#
memory 32 gb

molecule  {
0 1
  O       -1.3621950    -1.7118670    -1.0487160
  O        1.3250660    -1.5098260    -0.8661080
  O       -3.0202870    -0.6972320     0.8011600
  O        1.4000820    -0.3698310     1.7931610
  O       -3.3935320     1.8007080    -0.1346550
  O        2.6070010     1.5395500    -0.9938350
  O        3.6924620     0.1319130     0.4259740
  C       -0.8211920    -0.9649900     0.0477000
  C        0.4956150    -0.4174700    -0.4760140
  C       -1.8427190     0.0633310     0.5156670
  C        1.2861160     0.3473610     0.5837090
  C       -2.1923660     1.1169960    -0.5276460
  C        2.6663270     0.6479390     0.0251960
  H       -0.6001840    -1.6333830     0.8895000
  H        0.3094840     0.2426950    -1.3366810
  H       -1.4776870     0.5490530     1.4357690
  H        0.7940008     1.2778974     0.8068427
  H       -2.4256530     0.6242850    -1.4728150
  H       -1.3693410     1.8242450    -0.6894300
  H       -2.2436880    -1.9988170    -0.7384990
  H        0.7382740    -2.1149450    -1.3600910
  H       -3.7555350    -0.0560060     0.7240450
  H        2.1352240    -0.9985780     1.6549180
  H       -3.1588320     2.4130520     0.5846580
  H        3.5236120     1.6268920    -1.3298730
units angstrom
no_reorient  #important for SAPT in psi4, default
symmetry c1  #important for SAPT in psi4, default
}

set PROPERTIES_ORIGIN ["COM"]
properties('MP2/aug-cc-pvtz', properties = ['dipole'])
--------------------------------------------------------------------------

    Molecular point group: c1
  Charge       = 0
  Multiplicity = 1
  Basis Set: AUG-CC-PVTZ
    Blend: AUG-CC-PVTZ
  Basis Set: (AUG-CC-PVTZ AUX)
    Blend: AUG-CC-PVTZ-JKFIT

    Orbital Energies [Eh]
    ---------------------

    Doubly Occupied:

       1A    -20.631494     2A    -20.592101     3A    -20.575340
       4A    -20.574497     5A    -20.573098     6A    -20.570301
       7A    -20.565000     8A    -11.401744     9A    -11.315889
      10A    -11.304190    11A    -11.302306    12A    -11.300507
      13A    -11.295830    14A     -1.476294    15A     -1.407804
      16A     -1.396304    17A     -1.383655    18A     -1.369528
      19A     -1.362479    20A     -1.350580    21A     -1.080797
      22A     -1.028840    23A     -0.961564    24A     -0.888288
      25A     -0.831364    26A     -0.803598    27A     -0.758346
      28A     -0.736551    29A     -0.725883    30A     -0.715338
      31A     -0.712584    32A     -0.683126    33A     -0.676378
      34A     -0.649934    35A     -0.640599    36A     -0.637619
      37A     -0.628624    38A     -0.607348    39A     -0.602155
      40A     -0.581539    41A     -0.553494    42A     -0.550149
      43A     -0.539747    44A     -0.534287    45A     -0.531358
      46A     -0.503350    47A     -0.495707    48A     -0.484796
      49A     -0.466418    50A     -0.459992    51A     -0.455511
      52A     -0.442847

  @DF-RHF Final Energy:  -758.52368733786568

   => Energetics <=

    Nuclear Repulsion Energy =            915.6977358581565341
    One-Electron Energy =               -2863.0087057930672927
    Two-Electron Energy =                1188.7872825970450776
    Total Energy =                       -758.5236873378655673
  Basis Set: (AUG-CC-PVTZ AUX)
    Blend: AUG-CC-PVTZ-RI
    Molecular point group: c1

    Geometry (in Angstrom), charge = 0, multiplicity = 1:

       Center              X                  Y                   Z               Mass
    ------------   -----------------  -----------------  -----------------  -----------------
         O           -1.400363871544    -1.702823418991    -1.052883092195    15.994914619570
         O            1.286897128456    -1.500782418991    -0.870275092195    15.994914619570
         O           -3.058455871544    -0.688188418991     0.796992907805    15.994914619570
         O            1.361913128456    -0.360787418991     1.788993907805    15.994914619570
         O           -3.431700871544     1.809751581009    -0.138822092195    15.994914619570
         O            2.568832128456     1.548593581009    -0.998002092195    15.994914619570
         O            3.654293128456     0.140956581009     0.421806907805    15.994914619570
         C           -0.859360871544    -0.955946418991     0.043532907805    12.000000000000
         C            0.457446128456    -0.408426418991    -0.480181092195    12.000000000000
         C           -1.880887871544     0.072374581009     0.511499907805    12.000000000000
         C            1.247947128456     0.356404581009     0.579541907805    12.000000000000
         C           -2.230534871544     1.126039581009    -0.531813092195    12.000000000000
         C            2.628158128456     0.656982581009     0.021028907805    12.000000000000
         H           -0.638352871544    -1.624339418991     0.885332907805     1.007825032230
         H            0.271315128456     0.251738581009    -1.340848092195     1.007825032230
         H           -1.515855871544     0.558096581009     1.431601907805     1.007825032230
         H            0.755831928456     1.286940981009     0.802675607805     1.007825032230
         H           -2.463821871544     0.633328581009    -1.476982092195     1.007825032230
         H           -1.407509871544     1.833288581009    -0.693597092195     1.007825032230
         H           -2.281856871544    -1.989773418991    -0.742666092195     1.007825032230
         H            0.700105128456    -2.105901418991    -1.364258092195     1.007825032230
         H           -3.793703871544    -0.046962418991     0.719877907805     1.007825032230
         H            2.097055128456    -0.989534418991     1.650750907805     1.007825032230
         H           -3.197000871544     2.422095581009     0.580490907805     1.007825032230
         H            3.485443128456     1.635935581009    -1.334040092195     1.007825032230

  Basis Set: AUG-CC-PVTZ
    Blend: AUG-CC-PVTZ
  Basis Set: (AUG-CC-PVTZ AUX)
    Blend: AUG-CC-PVTZ-JKFIT
	 Reference Energy          =    -758.5236873378656810 [Eh]
	 Singles Energy            =      -0.0000000000000000 [Eh]
	 Same-Spin Energy          =      -0.7342744204257868 [Eh]
	 Opposite-Spin Energy      =      -2.2308515467346615 [Eh]
	 Correlation Energy        =      -2.9651259671604482 [Eh]
	 Total Energy              =    -761.4888133050261558 [Eh]

	 ================> DF-SCS-MP2 Energies <==================
	-----------------------------------------------------------
	 SCS Same-Spin Scale       =       0.3333333333333333 [-]
	 SCS Opposite-Spin Scale   =       1.2000000000000000 [-]
	 SCS Same-Spin Energy      =      -0.2447581401419289 [Eh]
	 SCS Opposite-Spin Energy  =      -2.6770218560815935 [Eh]
	 SCS Correlation Energy    =      -2.9217799962235222 [Eh]
	 SCS Total Energy          =    -761.4454673340892441 [Eh]
	-----------------------------------------------------------

  Dipole Moment: [D]
     X:    -1.2180      Y:     2.6812      Z:    -0.8059     Total:     3.0532

*** Psi4 exiting successfully. Buy a developer a beer!
