                               Psi4 1.4a3.dev225

  ==> Input File <==

--------------------------------------------------------------------------
#psi4
#
memory 32 gb

molecule  {
0 1
  O       -1.3621950    -1.7118670    -1.0487160
  O        1.3250660    -1.5098260    -0.8661080
  O       -3.0202870    -0.6972320     0.8011600
  O        1.4000820    -0.3698310     1.7931610
  O       -3.3935320     1.8007080    -0.1346550
  O        2.6070010     1.5395500    -0.9938350
  O        3.6924620     0.1319130     0.4259740
  C       -0.8211920    -0.9649900     0.0477000
  C        0.4956150    -0.4174700    -0.4760140
  C       -1.8427190     0.0633310     0.5156670
  C        1.2861160     0.3473610     0.5837090
  C       -2.1923660     1.1169960    -0.5276460
  C        2.6663270     0.6479390     0.0251960
  H       -0.6001840    -1.6333830     0.8895000
  H        0.2925715     0.3026800    -1.4148844
  H       -1.4776870     0.5490530     1.4357690
  H        0.7848540     1.2951930     0.8109900
  H       -2.4256530     0.6242850    -1.4728150
  H       -1.3693410     1.8242450    -0.6894300
  H       -2.2436880    -1.9988170    -0.7384990
  H        0.7382740    -2.1149450    -1.3600910
  H       -3.7555350    -0.0560060     0.7240450
  H        2.1352240    -0.9985780     1.6549180
  H       -3.1588320     2.4130520     0.5846580
  H        3.5236120     1.6268920    -1.3298730
units angstrom
no_reorient  #important for SAPT in psi4, default
symmetry c1  #important for SAPT in psi4, default
}

set PROPERTIES_ORIGIN ["COM"]
properties('MP2/aug-cc-pvtz', properties = ['dipole'])
--------------------------------------------------------------------------

    Molecular point group: c1
  Charge       = 0
  Multiplicity = 1
  Basis Set: AUG-CC-PVTZ
    Blend: AUG-CC-PVTZ
  Basis Set: (AUG-CC-PVTZ AUX)
    Blend: AUG-CC-PVTZ-JKFIT

    Orbital Energies [Eh]
    ---------------------

    Doubly Occupied:

       1A    -20.631011     2A    -20.591548     3A    -20.575702
       4A    -20.575271     5A    -20.573179     6A    -20.572560
       7A    -20.565194     8A    -11.401987     9A    -11.319205
      10A    -11.315569    11A    -11.302218    12A    -11.299785
      13A    -11.296959    14A     -1.476090    15A     -1.407867
      16A     -1.396768    17A     -1.383854    18A     -1.369758
      19A     -1.362932    20A     -1.351001    21A     -1.078715
      22A     -1.027684    23A     -0.960852    24A     -0.885016
      25A     -0.830754    26A     -0.799692    27A     -0.756647
      28A     -0.736657    29A     -0.723750    30A     -0.714665
      31A     -0.708917    32A     -0.682061    33A     -0.676086
      34A     -0.650075    35A     -0.639602    36A     -0.637065
      37A     -0.627043    38A     -0.607002    39A     -0.601736
      40A     -0.578179    41A     -0.553263    42A     -0.550061
      43A     -0.539681    44A     -0.534095    45A     -0.530579
      46A     -0.502759    47A     -0.495696    48A     -0.485042
      49A     -0.464215    50A     -0.460410    51A     -0.452654
      52A     -0.442141

  @DF-RHF Final Energy:  -758.51643787785099

   => Energetics <=

    Nuclear Repulsion Energy =            915.0413267913226036
    One-Electron Energy =               -2861.7130172987008336
    Two-Electron Energy =                1188.1552526295270127
    Total Energy =                       -758.5164378778511036
  Basis Set: (AUG-CC-PVTZ AUX)
    Blend: AUG-CC-PVTZ-RI
    Molecular point group: c1

    Geometry (in Angstrom), charge = 0, multiplicity = 1:

       Center              X                  Y                   Z               Mass
    ------------   -----------------  -----------------  -----------------  -----------------
         O           -1.400229915397    -1.703220674920    -1.052502411600    15.994914619570
         O            1.287031084603    -1.501179674920    -0.869894411600    15.994914619570
         O           -3.058321915397    -0.688585674920     0.797373588400    15.994914619570
         O            1.362047084603    -0.361184674920     1.789374588400    15.994914619570
         O           -3.431566915397     1.809354325080    -0.138441411600    15.994914619570
         O            2.568966084603     1.548196325080    -0.997621411600    15.994914619570
         O            3.654427084603     0.140559325080     0.422187588400    15.994914619570
         C           -0.859226915397    -0.956343674920     0.043913588400    12.000000000000
         C            0.457580084603    -0.408823674920    -0.479800411600    12.000000000000
         C           -1.880753915397     0.071977325080     0.511880588400    12.000000000000
         C            1.248081084603     0.356007325080     0.579922588400    12.000000000000
         C           -2.230400915397     1.125642325080    -0.531432411600    12.000000000000
         C            2.628292084603     0.656585325080     0.021409588400    12.000000000000
         H           -0.638218915397    -1.624736674920     0.885713588400     1.007825032230
         H            0.254536584603     0.311326325080    -1.418670811600     1.007825032230
         H           -1.515721915397     0.557699325080     1.431982588400     1.007825032230
         H            0.746819084603     1.303839325080     0.807203588400     1.007825032230
         H           -2.463687915397     0.632931325080    -1.476601411600     1.007825032230
         H           -1.407375915397     1.832891325080    -0.693216411600     1.007825032230
         H           -2.281722915397    -1.990170674920    -0.742285411600     1.007825032230
         H            0.700239084603    -2.106298674920    -1.363877411600     1.007825032230
         H           -3.793569915397    -0.047359674920     0.720258588400     1.007825032230
         H            2.097189084603    -0.989931674920     1.651131588400     1.007825032230
         H           -3.196866915397     2.421698325080     0.580871588400     1.007825032230
         H            3.485577084603     1.635538325080    -1.333659411600     1.007825032230

  Basis Set: AUG-CC-PVTZ
    Blend: AUG-CC-PVTZ
  Basis Set: (AUG-CC-PVTZ AUX)
    Blend: AUG-CC-PVTZ-JKFIT
	 Reference Energy          =    -758.5164378778509899 [Eh]
	 Singles Energy            =      -0.0000000000000000 [Eh]
	 Same-Spin Energy          =      -0.7346669729024554 [Eh]
	 Opposite-Spin Energy      =      -2.2321372841727682 [Eh]
	 Correlation Energy        =      -2.9668042570752235 [Eh]
	 Total Energy              =    -761.4832421349261722 [Eh]

	 ================> DF-SCS-MP2 Energies <==================
	-----------------------------------------------------------
	 SCS Same-Spin Scale       =       0.3333333333333333 [-]
	 SCS Opposite-Spin Scale   =       1.2000000000000000 [-]
	 SCS Same-Spin Energy      =      -0.2448889909674851 [Eh]
	 SCS Opposite-Spin Energy  =      -2.6785647410073219 [Eh]
	 SCS Correlation Energy    =      -2.9234537319748068 [Eh]
	 SCS Total Energy          =    -761.4398916098258496 [Eh]
	-----------------------------------------------------------

  Dipole Moment: [D]
     X:    -1.1812      Y:     2.6180      Z:    -0.7722     Total:     2.9742

*** Psi4 exiting successfully. Buy a developer a beer!
