                               Psi4 1.4a3.dev225

  ==> Input File <==

--------------------------------------------------------------------------
#psi4
#
memory 32 gb

molecule  {
0 1
  O       -1.3621950    -1.7118670    -1.0487160
  O        1.3250660    -1.5098260    -0.8661080
  O       -3.0202870    -0.6972320     0.8011600
  O        1.4000820    -0.3698310     1.7931610
  O       -3.3935320     1.8007080    -0.1346550
  O        2.6070010     1.5395500    -0.9938350
  O        3.6924620     0.1319130     0.4259740
  C       -0.8400725    -0.9910553     0.0094361
  C        0.4956150    -0.4174700    -0.4760140
  C       -1.8427190     0.0633310     0.5156670
  C        1.2861160     0.3473610     0.5837090
  C       -2.1923660     1.1169960    -0.5276460
  C        2.6663270     0.6479390     0.0251960
  H       -0.6001840    -1.6333830     0.8895000
  H        0.3094840     0.2426950    -1.3366810
  H       -1.4776870     0.5490530     1.4357690
  H        0.7848540     1.2951930     0.8109900
  H       -2.4256530     0.6242850    -1.4728150
  H       -1.3693410     1.8242450    -0.6894300
  H       -2.2436880    -1.9988170    -0.7384990
  H        0.7382740    -2.1149450    -1.3600910
  H       -3.7555350    -0.0560060     0.7240450
  H        2.1352240    -0.9985780     1.6549180
  H       -3.1588320     2.4130520     0.5846580
  H        3.5236120     1.6268920    -1.3298730
units angstrom
no_reorient  #important for SAPT in psi4, default
symmetry c1  #important for SAPT in psi4, default
}

set PROPERTIES_ORIGIN ["COM"]
properties('MP2/aug-cc-pvtz', properties = ['dipole'])
--------------------------------------------------------------------------

    Molecular point group: c1
  Charge       = 0
  Multiplicity = 1
  Basis Set: AUG-CC-PVTZ
    Blend: AUG-CC-PVTZ
  Basis Set: (AUG-CC-PVTZ AUX)
    Blend: AUG-CC-PVTZ-JKFIT

    Orbital Energies [Eh]
    ---------------------

    Doubly Occupied:

       1A    -20.631085     2A    -20.591328     3A    -20.578676
       4A    -20.574555     5A    -20.573770     6A    -20.569340
       7A    -20.564839     8A    -11.401695     9A    -11.317957
      10A    -11.302913    11A    -11.300725    12A    -11.299506
      13A    -11.296018    14A     -1.475942    15A     -1.415407
      16A     -1.396061    17A     -1.388555    18A     -1.370005
      19A     -1.362207    20A     -1.355913    21A     -1.075637
      22A     -1.026321    23A     -0.958919    24A     -0.885190
      25A     -0.831891    26A     -0.803047    27A     -0.758408
      28A     -0.738804    29A     -0.725293    30A     -0.714818
      31A     -0.711866    32A     -0.684514    33A     -0.679807
      34A     -0.651138    35A     -0.639670    36A     -0.639007
      37A     -0.628922    38A     -0.607626    39A     -0.602391
      40A     -0.582808    41A     -0.557484    42A     -0.550538
      43A     -0.539750    44A     -0.535923    45A     -0.528329
      46A     -0.504349    47A     -0.495398    48A     -0.483152
      49A     -0.464618    50A     -0.457415    51A     -0.451757
      52A     -0.437925

  @DF-RHF Final Energy:  -758.52227619074176

   => Energetics <=

    Nuclear Repulsion Energy =            915.5979971520940808
    One-Electron Energy =               -2862.8021262550059873
    Two-Electron Energy =                1188.6818529121699157
    Total Energy =                       -758.5222761907418771
  Basis Set: (AUG-CC-PVTZ AUX)
    Blend: AUG-CC-PVTZ-RI
    Molecular point group: c1

    Geometry (in Angstrom), charge = 0, multiplicity = 1:

       Center              X                  Y                   Z               Mass
    ------------   -----------------  -----------------  -----------------  -----------------
         O           -1.399161247780    -1.701316965772    -1.050562420023    15.994914619570
         O            1.288099752220    -1.499275965772    -0.867954420023    15.994914619570
         O           -3.057253247780    -0.686681965772     0.799313579977    15.994914619570
         O            1.363115752220    -0.359280965772     1.791314579977    15.994914619570
         O           -3.430498247780     1.811258034228    -0.136501420023    15.994914619570
         O            2.570034752220     1.550100034228    -0.995681420023    15.994914619570
         O            3.655495752220     0.142463034228     0.424127579977    15.994914619570
         C           -0.877038747780    -0.980505265772     0.007589679977    12.000000000000
         C            0.458648752220    -0.406919965772    -0.477860420023    12.000000000000
         C           -1.879685247780     0.073881034228     0.513820579977    12.000000000000
         C            1.249149752220     0.357911034228     0.581862579977    12.000000000000
         C           -2.229332247780     1.127546034228    -0.529492420023    12.000000000000
         C            2.629360752220     0.658489034228     0.023349579977    12.000000000000
         H           -0.637150247780    -1.622832965772     0.887653579977     1.007825032230
         H            0.272517752220     0.253245034228    -1.338527420023     1.007825032230
         H           -1.514653247780     0.559603034228     1.433922579977     1.007825032230
         H            0.747887752220     1.305743034228     0.809143579977     1.007825032230
         H           -2.462619247780     0.634835034228    -1.474661420023     1.007825032230
         H           -1.406307247780     1.834795034228    -0.691276420023     1.007825032230
         H           -2.280654247780    -1.988266965772    -0.740345420023     1.007825032230
         H            0.701307752220    -2.104394965772    -1.361937420023     1.007825032230
         H           -3.792501247780    -0.045455965772     0.722198579977     1.007825032230
         H            2.098257752220    -0.988027965772     1.653071579977     1.007825032230
         H           -3.195798247780     2.423602034228     0.582811579977     1.007825032230
         H            3.486645752220     1.637442034228    -1.331719420023     1.007825032230

  Basis Set: AUG-CC-PVTZ
    Blend: AUG-CC-PVTZ
  Basis Set: (AUG-CC-PVTZ AUX)
    Blend: AUG-CC-PVTZ-JKFIT
	 Reference Energy          =    -758.5222761907417635 [Eh]
	 Singles Energy            =      -0.0000000000000000 [Eh]
	 Same-Spin Energy          =      -0.7342139267492985 [Eh]
	 Opposite-Spin Energy      =      -2.2303323558951513 [Eh]
	 Correlation Energy        =      -2.9645462826444500 [Eh]
	 Total Energy              =    -761.4868224733862689 [Eh]

	 ================> DF-SCS-MP2 Energies <==================
	-----------------------------------------------------------
	 SCS Same-Spin Scale       =       0.3333333333333333 [-]
	 SCS Opposite-Spin Scale   =       1.2000000000000000 [-]
	 SCS Same-Spin Energy      =      -0.2447379755830995 [Eh]
	 SCS Opposite-Spin Energy  =      -2.6763988270741814 [Eh]
	 SCS Correlation Energy    =      -2.9211368026572808 [Eh]
	 SCS Total Energy          =    -761.4434129933990789 [Eh]
	-----------------------------------------------------------

  Dipole Moment: [D]
     X:    -1.2760      Y:     2.5885      Z:    -0.9081     Total:     3.0254

*** Psi4 exiting successfully. Buy a developer a beer!
