                               Psi4 1.4a3.dev225

  ==> Input File <==

--------------------------------------------------------------------------
#psi4
#
memory 32 gb

molecule  {
0 1
  O       -1.3621950    -1.7118670    -1.0487160
  O        1.3250660    -1.5098260    -0.8661080
  O       -3.0202870    -0.6972320     0.8011600
  O        1.4000820    -0.3698310     1.7931610
  O       -3.3935320     1.8007080    -0.1346550
  O        2.6070010     1.5395500    -0.9938350
  O        3.6924620     0.1319130     0.4259740
  C       -0.8136398    -0.9545639     0.0630056
  C        0.4956150    -0.4174700    -0.4760140
  C       -1.8427190     0.0633310     0.5156670
  C        1.2861160     0.3473610     0.5837090
  C       -2.1923660     1.1169960    -0.5276460
  C        2.6663270     0.6479390     0.0251960
  H       -0.6001840    -1.6333830     0.8895000
  H        0.3094840     0.2426950    -1.3366810
  H       -1.4776870     0.5490530     1.4357690
  H        0.7848540     1.2951930     0.8109900
  H       -2.4256530     0.6242850    -1.4728150
  H       -1.3693410     1.8242450    -0.6894300
  H       -2.2436880    -1.9988170    -0.7384990
  H        0.7382740    -2.1149450    -1.3600910
  H       -3.7555350    -0.0560060     0.7240450
  H        2.1352240    -0.9985780     1.6549180
  H       -3.1588320     2.4130520     0.5846580
  H        3.5236120     1.6268920    -1.3298730
units angstrom
no_reorient  #important for SAPT in psi4, default
symmetry c1  #important for SAPT in psi4, default
}

set PROPERTIES_ORIGIN ["COM"]
properties('MP2/aug-cc-pvtz', properties = ['dipole'])
--------------------------------------------------------------------------

    Molecular point group: c1
  Charge       = 0
  Multiplicity = 1
  Basis Set: AUG-CC-PVTZ
    Blend: AUG-CC-PVTZ
  Basis Set: (AUG-CC-PVTZ AUX)
    Blend: AUG-CC-PVTZ-JKFIT

    Orbital Energies [Eh]
    ---------------------

    Doubly Occupied:

       1A    -20.631597     2A    -20.592326     3A    -20.575583
       4A    -20.575203     5A    -20.570860     6A    -20.570836
       7A    -20.565204     8A    -11.401983     9A    -11.318396
      10A    -11.304952    11A    -11.302841    12A    -11.300802
      13A    -11.296016    14A     -1.476439    15A     -1.406453
      16A     -1.396595    17A     -1.381912    18A     -1.369373
      19A     -1.362719    20A     -1.347180    21A     -1.082350
      22A     -1.028914    23A     -0.962255    24A     -0.889472
      25A     -0.830340    26A     -0.802717    27A     -0.757969
      28A     -0.735884    29A     -0.725790    30A     -0.715449
      31A     -0.712884    32A     -0.682670    33A     -0.675262
      34A     -0.649475    35A     -0.640947    36A     -0.635985
      37A     -0.628525    38A     -0.606877    39A     -0.601841
      40A     -0.580821    41A     -0.551531    42A     -0.550001
      43A     -0.539678    44A     -0.532872    45A     -0.532013
      46A     -0.502665    47A     -0.495850    48A     -0.485147
      49A     -0.467215    50A     -0.461586    51A     -0.456040
      52A     -0.444337

  @DF-RHF Final Energy:  -758.52270972489896

   => Energetics <=

    Nuclear Repulsion Energy =            915.5839838179663275
    One-Electron Energy =               -2862.7881243530964639
    Two-Electron Energy =                1188.6814308102311770
    Total Energy =                       -758.5227097248989594
  Basis Set: (AUG-CC-PVTZ AUX)
    Blend: AUG-CC-PVTZ-RI
    Molecular point group: c1

    Geometry (in Angstrom), charge = 0, multiplicity = 1:

       Center              X                  Y                   Z               Mass
    ------------   -----------------  -----------------  -----------------  -----------------
         O           -1.400779095102    -1.703550468734    -1.053841210011    15.994914619570
         O            1.286481904898    -1.501509468734    -0.871233210011    15.994914619570
         O           -3.058871095102    -0.688915468734     0.796034789989    15.994914619570
         O            1.361497904898    -0.361514468734     1.788035789989    15.994914619570
         O           -3.432116095102     1.809024531266    -0.139780210011    15.994914619570
         O            2.568416904898     1.547866531266    -0.998960210011    15.994914619570
         O            3.653877904898     0.140229531266     0.420848789989    15.994914619570
         C           -0.852223895102    -0.946247368734     0.057880389989    12.000000000000
         C            0.457030904898    -0.409153468734    -0.481139210011    12.000000000000
         C           -1.881303095102     0.071647531266     0.510541789989    12.000000000000
         C            1.247531904898     0.355677531266     0.578583789989    12.000000000000
         C           -2.230950095102     1.125312531266    -0.532771210011    12.000000000000
         C            2.627742904898     0.656255531266     0.020070789989    12.000000000000
         H           -0.638768095102    -1.625066468734     0.884374789989     1.007825032230
         H            0.270899904898     0.251011531266    -1.341806210011     1.007825032230
         H           -1.516271095102     0.557369531266     1.430643789989     1.007825032230
         H            0.746269904898     1.303509531266     0.805864789989     1.007825032230
         H           -2.464237095102     0.632601531266    -1.477940210011     1.007825032230
         H           -1.407925095102     1.832561531266    -0.694555210011     1.007825032230
         H           -2.282272095102    -1.990500468734    -0.743624210011     1.007825032230
         H            0.699689904898    -2.106628468734    -1.365216210011     1.007825032230
         H           -3.794119095102    -0.047689468734     0.718919789989     1.007825032230
         H            2.096639904898    -0.990261468734     1.649792789989     1.007825032230
         H           -3.197416095102     2.421368531266     0.579532789989     1.007825032230
         H            3.485027904898     1.635208531266    -1.334998210011     1.007825032230

  Basis Set: AUG-CC-PVTZ
    Blend: AUG-CC-PVTZ
  Basis Set: (AUG-CC-PVTZ AUX)
    Blend: AUG-CC-PVTZ-JKFIT
	 Reference Energy          =    -758.5227097248989594 [Eh]
	 Singles Energy            =      -0.0000000000000000 [Eh]
	 Same-Spin Energy          =      -0.7344128262847293 [Eh]
	 Opposite-Spin Energy      =      -2.2313719861457533 [Eh]
	 Correlation Energy        =      -2.9657848124304826 [Eh]
	 Total Energy              =    -761.4884945373294158 [Eh]

	 ================> DF-SCS-MP2 Energies <==================
	-----------------------------------------------------------
	 SCS Same-Spin Scale       =       0.3333333333333333 [-]
	 SCS Opposite-Spin Scale   =       1.2000000000000000 [-]
	 SCS Same-Spin Energy      =      -0.2448042754282431 [Eh]
	 SCS Opposite-Spin Energy  =      -2.6776463833749040 [Eh]
	 SCS Correlation Energy    =      -2.9224506588031471 [Eh]
	 SCS Total Energy          =    -761.4451603837021594 [Eh]
	-----------------------------------------------------------

  Dipole Moment: [D]
     X:    -1.1888      Y:     2.7092      Z:    -0.7642     Total:     3.0556

*** Psi4 exiting successfully. Buy a developer a beer!
