                               Psi4 1.4a3.dev225

  ==> Input File <==

--------------------------------------------------------------------------
#psi4
#
memory 32 gb

molecule  {
0 1
  O       -1.3621950    -1.7118670    -1.0487160
  O        1.3250660    -1.5098260    -0.8661080
  O       -3.0202870    -0.6972320     0.8011600
  O        1.4000820    -0.3698310     1.7931610
  O       -3.3935320     1.8007080    -0.1346550
  O        2.6070010     1.5395500    -0.9938350
  O        3.6924620     0.1319130     0.4259740
  C       -0.8211920    -0.9649900     0.0477000
  C        0.4956150    -0.4174700    -0.4760140
  C       -1.8427190     0.0633310     0.5156670
  C        1.2861160     0.3473610     0.5837090
  C       -2.1923660     1.1169960    -0.5276460
  C        2.6831974     0.6394552     0.0317851
  H       -0.6001840    -1.6333830     0.8895000
  H        0.3094840     0.2426950    -1.3366810
  H       -1.4776870     0.5490530     1.4357690
  H        0.7848540     1.2951930     0.8109900
  H       -2.4256530     0.6242850    -1.4728150
  H       -1.3693410     1.8242450    -0.6894300
  H       -2.2436880    -1.9988170    -0.7384990
  H        0.7382740    -2.1149450    -1.3600910
  H       -3.7555350    -0.0560060     0.7240450
  H        2.1352240    -0.9985780     1.6549180
  H       -3.1588320     2.4130520     0.5846580
  H        3.5236120     1.6268920    -1.3298730
units angstrom
no_reorient  #important for SAPT in psi4, default
symmetry c1  #important for SAPT in psi4, default
}

set PROPERTIES_ORIGIN ["COM"]
properties('MP2/aug-cc-pvtz', properties = ['dipole'])
--------------------------------------------------------------------------

    Molecular point group: c1
  Charge       = 0
  Multiplicity = 1
  Basis Set: AUG-CC-PVTZ
    Blend: AUG-CC-PVTZ
  Basis Set: (AUG-CC-PVTZ AUX)
    Blend: AUG-CC-PVTZ-JKFIT

    Orbital Energies [Eh]
    ---------------------

    Doubly Occupied:

       1A    -20.627939     2A    -20.591697     3A    -20.574964
       4A    -20.574321     5A    -20.572735     6A    -20.570058
       7A    -20.568759     8A    -11.400098     9A    -11.317593
      10A    -11.303458    11A    -11.301855    12A    -11.300016
      13A    -11.295390    14A     -1.477059    15A     -1.407358
      16A     -1.395957    17A     -1.385430    18A     -1.373872
      19A     -1.364263    20A     -1.350282    21A     -1.079171
      22A     -1.025836    23A     -0.959678    24A     -0.886807
      25A     -0.827576    26A     -0.801694    27A     -0.757177
      28A     -0.735473    29A     -0.726098    30A     -0.714891
      31A     -0.712985    32A     -0.682864    33A     -0.676115
      34A     -0.650178    35A     -0.640405    36A     -0.636527
      37A     -0.628162    38A     -0.609642    39A     -0.601356
      40A     -0.580427    41A     -0.553615    42A     -0.549775
      43A     -0.539259    44A     -0.533909    45A     -0.531309
      46A     -0.502991    47A     -0.502147    48A     -0.485607
      49A     -0.466039    50A     -0.459360    51A     -0.454880
      52A     -0.442004

  @DF-RHF Final Energy:  -758.52448352370686

   => Energetics <=

    Nuclear Repulsion Energy =            915.5241902035311341
    One-Electron Energy =               -2862.6832273400086706
    Two-Electron Energy =                1188.6345536127705600
    Total Energy =                       -758.5244835237069765
  Basis Set: (AUG-CC-PVTZ AUX)
    Blend: AUG-CC-PVTZ-RI
    Molecular point group: c1

    Geometry (in Angstrom), charge = 0, multiplicity = 1:

       Center              X                  Y                   Z               Mass
    ------------   -----------------  -----------------  -----------------  -----------------
         O           -1.401349427490    -1.702393064040    -1.053307705443    15.994914619570
         O            1.285911572510    -1.500352064040    -0.870699705443    15.994914619570
         O           -3.059441427490    -0.687758064040     0.796568294557    15.994914619570
         O            1.360927572510    -0.360357064040     1.788569294557    15.994914619570
         O           -3.432686427490     1.810181935960    -0.139246705443    15.994914619570
         O            2.567846572510     1.549023935960    -0.998426705443    15.994914619570
         O            3.653307572510     0.141386935960     0.421382294557    15.994914619570
         C           -0.860346427490    -0.955516064040     0.043108294557    12.000000000000
         C            0.456460572510    -0.407996064040    -0.480605705443    12.000000000000
         C           -1.881873427490     0.072804935960     0.511075294557    12.000000000000
         C            1.246961572510     0.356834935960     0.579117294557    12.000000000000
         C           -2.231520427490     1.126469935960    -0.532237705443    12.000000000000
         C            2.644042972510     0.648929135960     0.027193394557    12.000000000000
         H           -0.639338427490    -1.623909064040     0.884908294557     1.007825032230
         H            0.270329572510     0.252168935960    -1.341272705443     1.007825032230
         H           -1.516841427490     0.558526935960     1.431177294557     1.007825032230
         H            0.745699572510     1.304666935960     0.806398294557     1.007825032230
         H           -2.464807427490     0.633758935960    -1.477406705443     1.007825032230
         H           -1.408495427490     1.833718935960    -0.694021705443     1.007825032230
         H           -2.282842427490    -1.989343064040    -0.743090705443     1.007825032230
         H            0.699119572510    -2.105471064040    -1.364682705443     1.007825032230
         H           -3.794689427490    -0.046532064040     0.719453294557     1.007825032230
         H            2.096069572510    -0.989104064040     1.650326294557     1.007825032230
         H           -3.197986427490     2.422525935960     0.580066294557     1.007825032230
         H            3.484457572510     1.636365935960    -1.334464705443     1.007825032230

  Basis Set: AUG-CC-PVTZ
    Blend: AUG-CC-PVTZ
  Basis Set: (AUG-CC-PVTZ AUX)
    Blend: AUG-CC-PVTZ-JKFIT
	 Reference Energy          =    -758.5244835237068628 [Eh]
	 Singles Energy            =      -0.0000000000000000 [Eh]
	 Same-Spin Energy          =      -0.7338989225937813 [Eh]
	 Opposite-Spin Energy      =      -2.2302958815115268 [Eh]
	 Correlation Energy        =      -2.9641948041053081 [Eh]
	 Total Energy              =    -761.4886783278121811 [Eh]

	 ================> DF-SCS-MP2 Energies <==================
	-----------------------------------------------------------
	 SCS Same-Spin Scale       =       0.3333333333333333 [-]
	 SCS Opposite-Spin Scale   =       1.2000000000000000 [-]
	 SCS Same-Spin Energy      =      -0.2446329741979271 [Eh]
	 SCS Opposite-Spin Energy  =      -2.6763550578138320 [Eh]
	 SCS Correlation Energy    =      -2.9209880320117589 [Eh]
	 SCS Total Energy          =    -761.4454715557186546 [Eh]
	-----------------------------------------------------------

  Dipole Moment: [D]
     X:    -1.1129      Y:     2.6122      Z:    -0.7342     Total:     2.9328

*** Psi4 exiting successfully. Buy a developer a beer!
