                               Psi4 1.4a3.dev225

  ==> Input File <==

--------------------------------------------------------------------------
#psi4
#
memory 32 gb

molecule  {
0 1
  O       -1.3621950    -1.7118670    -1.0487160
  O        1.3250660    -1.5098260    -0.8661080
  O       -3.0202870    -0.6972320     0.8011600
  O        1.4000820    -0.3698310     1.7931610
  O       -3.3935320     1.8007080    -0.1346550
  O        2.6070010     1.5395500    -0.9938350
  O        3.6924620     0.1319130     0.4259740
  C       -0.8211920    -0.9649900     0.0477000
  C        0.4956150    -0.4174700    -0.4760140
  C       -1.8427190     0.0633310     0.5156670
  C        1.2861160     0.3473610     0.5837090
  C       -2.1877759     1.1031636    -0.5139495
  C        2.6663270     0.6479390     0.0251960
  H       -0.6001840    -1.6333830     0.8895000
  H        0.3094840     0.2426950    -1.3366810
  H       -1.4776870     0.5490530     1.4357690
  H        0.7848540     1.2951930     0.8109900
  H       -2.4256530     0.6242850    -1.4728150
  H       -1.3693410     1.8242450    -0.6894300
  H       -2.2436880    -1.9988170    -0.7384990
  H        0.7382740    -2.1149450    -1.3600910
  H       -3.7555350    -0.0560060     0.7240450
  H        2.1352240    -0.9985780     1.6549180
  H       -3.1588320     2.4130520     0.5846580
  H        3.5236120     1.6268920    -1.3298730
units angstrom
no_reorient  #important for SAPT in psi4, default
symmetry c1  #important for SAPT in psi4, default
}

set PROPERTIES_ORIGIN ["COM"]
properties('MP2/aug-cc-pvtz', properties = ['dipole'])
--------------------------------------------------------------------------

    Molecular point group: c1
  Charge       = 0
  Multiplicity = 1
  Basis Set: AUG-CC-PVTZ
    Blend: AUG-CC-PVTZ
  Basis Set: (AUG-CC-PVTZ AUX)
    Blend: AUG-CC-PVTZ-JKFIT

    Orbital Energies [Eh]
    ---------------------

    Doubly Occupied:

       1A    -20.631521     2A    -20.591501     3A    -20.575582
       4A    -20.574942     5A    -20.573419     6A    -20.570625
       7A    -20.565193     8A    -11.402001     9A    -11.318394
      10A    -11.304575    11A    -11.302084    12A    -11.300884
      13A    -11.296427    14A     -1.476377    15A     -1.407936
      16A     -1.396126    17A     -1.383291    18A     -1.369234
      19A     -1.362508    20A     -1.350792    21A     -1.081761
      22A     -1.030171    23A     -0.962173    24A     -0.887742
      25A     -0.830787    26A     -0.802916    27A     -0.758406
      28A     -0.736851    29A     -0.726236    30A     -0.713427
      31A     -0.712871    32A     -0.684049    33A     -0.676508
      34A     -0.650148    35A     -0.640709    36A     -0.637025
      37A     -0.628829    38A     -0.607268    39A     -0.599510
      40A     -0.581023    41A     -0.553353    42A     -0.550625
      43A     -0.539519    44A     -0.533411    45A     -0.531030
      46A     -0.502053    47A     -0.495813    48A     -0.484728
      49A     -0.467835    50A     -0.460928    51A     -0.455871
      52A     -0.444531

  @DF-RHF Final Energy:  -758.52278224322572

   => Energetics <=

    Nuclear Repulsion Energy =            915.9042296140320332
    One-Electron Energy =               -2863.4109775737797463
    Two-Electron Energy =                1188.9839657165221070
    Total Energy =                       -758.5227822432257199
  Basis Set: (AUG-CC-PVTZ AUX)
    Blend: AUG-CC-PVTZ-RI
    Molecular point group: c1

    Geometry (in Angstrom), charge = 0, multiplicity = 1:

       Center              X                  Y                   Z               Mass
    ------------   -----------------  -----------------  -----------------  -----------------
         O           -1.400597795971    -1.702065696113    -1.053742722980    15.994914619570
         O            1.286663204029    -1.500024696113    -0.871134722980    15.994914619570
         O           -3.058689795971    -0.687430696113     0.796133277020    15.994914619570
         O            1.361679204029    -0.360029696113     1.788134277020    15.994914619570
         O           -3.431934795971     1.810509303887    -0.139681722980    15.994914619570
         O            2.568598204029     1.549351303887    -0.998861722980    15.994914619570
         O            3.654059204029     0.141714303887     0.420947277020    15.994914619570
         C           -0.859594795971    -0.955188696113     0.042673277020    12.000000000000
         C            0.457212204029    -0.407668696113    -0.481040722980    12.000000000000
         C           -1.881121795971     0.073132303887     0.510640277020    12.000000000000
         C            1.247713204029     0.357162303887     0.578682277020    12.000000000000
         C           -2.226178695971     1.112964903887    -0.518976222980    12.000000000000
         C            2.627924204029     0.657740303887     0.020169277020    12.000000000000
         H           -0.638586795971    -1.623581696113     0.884473277020     1.007825032230
         H            0.271081204029     0.252496303887    -1.341707722980     1.007825032230
         H           -1.516089795971     0.558854303887     1.430742277020     1.007825032230
         H            0.746451204029     1.304994303887     0.805963277020     1.007825032230
         H           -2.464055795971     0.634086303887    -1.477841722980     1.007825032230
         H           -1.407743795971     1.834046303887    -0.694456722980     1.007825032230
         H           -2.282090795971    -1.989015696113    -0.743525722980     1.007825032230
         H            0.699871204029    -2.105143696113    -1.365117722980     1.007825032230
         H           -3.793937795971    -0.046204696113     0.719018277020     1.007825032230
         H            2.096821204029    -0.988776696113     1.649891277020     1.007825032230
         H           -3.197234795971     2.422853303887     0.579631277020     1.007825032230
         H            3.485209204029     1.636693303887    -1.334899722980     1.007825032230

  Basis Set: AUG-CC-PVTZ
    Blend: AUG-CC-PVTZ
  Basis Set: (AUG-CC-PVTZ AUX)
    Blend: AUG-CC-PVTZ-JKFIT
	 Reference Energy          =    -758.5227822432257199 [Eh]
	 Singles Energy            =      -0.0000000000000000 [Eh]
	 Same-Spin Energy          =      -0.7344970582346931 [Eh]
	 Opposite-Spin Energy      =      -2.2312764652438566 [Eh]
	 Correlation Energy        =      -2.9657735234785498 [Eh]
	 Total Energy              =    -761.4885557667042804 [Eh]

	 ================> DF-SCS-MP2 Energies <==================
	-----------------------------------------------------------
	 SCS Same-Spin Scale       =       0.3333333333333333 [-]
	 SCS Opposite-Spin Scale   =       1.2000000000000000 [-]
	 SCS Same-Spin Energy      =      -0.2448323527448977 [Eh]
	 SCS Opposite-Spin Energy  =      -2.6775317582926279 [Eh]
	 SCS Correlation Energy    =      -2.9223641110375258 [Eh]
	 SCS Total Energy          =    -761.4451463542632155 [Eh]
	-----------------------------------------------------------

  Dipole Moment: [D]
     X:    -1.1889      Y:     2.6455      Z:    -0.7981     Total:     3.0082

*** Psi4 exiting successfully. Buy a developer a beer!
