                               Psi4 1.4a3.dev225

  ==> Input File <==

--------------------------------------------------------------------------
#psi4
#
memory 32 gb

molecule  {
0 1
  O       -1.3621950    -1.7118670    -1.0487160
  O        1.3250660    -1.5098260    -0.8661080
  O       -3.0202870    -0.6972320     0.8011600
  O        1.4000820    -0.3698310     1.7931610
  O       -3.3935320     1.8007080    -0.1346550
  O        2.6070010     1.5395500    -0.9938350
  O        3.6924620     0.1319130     0.4259740
  C       -0.8211920    -0.9649900     0.0477000
  C        0.4956150    -0.4174700    -0.4760140
  C       -1.8015627     0.0899129     0.5056889
  C        1.2861160     0.3473610     0.5837090
  C       -2.1923660     1.1169960    -0.5276460
  C        2.6663270     0.6479390     0.0251960
  H       -0.6001840    -1.6333830     0.8895000
  H        0.3094840     0.2426950    -1.3366810
  H       -1.4776870     0.5490530     1.4357690
  H        0.7848540     1.2951930     0.8109900
  H       -2.4256530     0.6242850    -1.4728150
  H       -1.3693410     1.8242450    -0.6894300
  H       -2.2436880    -1.9988170    -0.7384990
  H        0.7382740    -2.1149450    -1.3600910
  H       -3.7555350    -0.0560060     0.7240450
  H        2.1352240    -0.9985780     1.6549180
  H       -3.1588320     2.4130520     0.5846580
  H        3.5236120     1.6268920    -1.3298730
units angstrom
no_reorient  #important for SAPT in psi4, default
symmetry c1  #important for SAPT in psi4, default
}

set PROPERTIES_ORIGIN ["COM"]
properties('MP2/aug-cc-pvtz', properties = ['dipole'])
--------------------------------------------------------------------------

    Molecular point group: c1
  Charge       = 0
  Multiplicity = 1
  Basis Set: AUG-CC-PVTZ
    Blend: AUG-CC-PVTZ
  Basis Set: (AUG-CC-PVTZ AUX)
    Blend: AUG-CC-PVTZ-JKFIT

    Orbital Energies [Eh]
    ---------------------

    Doubly Occupied:

       1A    -20.631977     2A    -20.593009     3A    -20.575625
       4A    -20.574020     5A    -20.570550     6A    -20.569818
       7A    -20.565673     8A    -11.402539     9A    -11.319131
      10A    -11.304562    11A    -11.302867    12A    -11.301694
      13A    -11.297300    14A     -1.476847    15A     -1.404403
      16A     -1.395105    17A     -1.384301    18A     -1.368066
      19A     -1.360156    20A     -1.342676    21A     -1.084705
      22A     -1.031525    23A     -0.964031    24A     -0.888357
      25A     -0.831597    26A     -0.803424    27A     -0.758236
      28A     -0.737285    29A     -0.725099    30A     -0.714376
      31A     -0.712049    32A     -0.682621    33A     -0.672804
      34A     -0.650197    35A     -0.639887    36A     -0.635774
      37A     -0.628906    38A     -0.607401    39A     -0.601891
      40A     -0.581186    41A     -0.554916    42A     -0.543825
      43A     -0.539989    44A     -0.531543    45A     -0.530147
      46A     -0.502313    47A     -0.496186    48A     -0.485471
      49A     -0.469779    50A     -0.462941    51A     -0.457163
      52A     -0.445448

  @DF-RHF Final Energy:  -758.52016226729995

   => Energetics <=

    Nuclear Repulsion Energy =            915.6582666025202570
    One-Electron Energy =               -2862.9340750275446226
    Two-Electron Energy =                1188.7556461577244136
    Total Energy =                       -758.5201622673000657
  Basis Set: (AUG-CC-PVTZ AUX)
    Blend: AUG-CC-PVTZ-RI
    Molecular point group: c1

    Geometry (in Angstrom), charge = 0, multiplicity = 1:

       Center              X                  Y                   Z               Mass
    ------------   -----------------  -----------------  -----------------  -----------------
         O           -1.402835877163    -1.704539305204    -1.052293688708    15.994914619570
         O            1.284425122837    -1.502498305204    -0.869685688708    15.994914619570
         O           -3.060927877163    -0.689904305204     0.797582311292    15.994914619570
         O            1.359441122837    -0.362503305204     1.789583311292    15.994914619570
         O           -3.434172877163     1.808035694796    -0.138232688708    15.994914619570
         O            2.566360122837     1.546877694796    -0.997412688708    15.994914619570
         O            3.651821122837     0.139240694796     0.422396311292    15.994914619570
         C           -0.861832877163    -0.957662305204     0.044122311292    12.000000000000
         C            0.454974122837    -0.410142305204    -0.479591688708    12.000000000000
         C           -1.842203577163     0.097240594796     0.502111211292    12.000000000000
         C            1.245475122837     0.354688694796     0.580131311292    12.000000000000
         C           -2.233006877163     1.124323694796    -0.531223688708    12.000000000000
         C            2.625686122837     0.655266694796     0.021618311292    12.000000000000
         H           -0.640824877163    -1.626055305204     0.885922311292     1.007825032230
         H            0.268843122837     0.250022694796    -1.340258688708     1.007825032230
         H           -1.518327877163     0.556380694796     1.432191311292     1.007825032230
         H            0.744213122837     1.302520694796     0.807412311292     1.007825032230
         H           -2.466293877163     0.631612694796    -1.476392688708     1.007825032230
         H           -1.409981877163     1.831572694796    -0.693007688708     1.007825032230
         H           -2.284328877163    -1.991489305204    -0.742076688708     1.007825032230
         H            0.697633122837    -2.107617305204    -1.363668688708     1.007825032230
         H           -3.796175877163    -0.048678305204     0.720467311292     1.007825032230
         H            2.094583122837    -0.991250305204     1.651340311292     1.007825032230
         H           -3.199472877163     2.420379694796     0.581080311292     1.007825032230
         H            3.482971122837     1.634219694796    -1.333450688708     1.007825032230

  Basis Set: AUG-CC-PVTZ
    Blend: AUG-CC-PVTZ
  Basis Set: (AUG-CC-PVTZ AUX)
    Blend: AUG-CC-PVTZ-JKFIT
	 Reference Energy          =    -758.5201622672999520 [Eh]
	 Singles Energy            =      -0.0000000000000000 [Eh]
	 Same-Spin Energy          =      -0.7346631999447688 [Eh]
	 Opposite-Spin Energy      =      -2.2321438766770205 [Eh]
	 Correlation Energy        =      -2.9668070766217891 [Eh]
	 Total Energy              =    -761.4869693439217144 [Eh]

	 ================> DF-SCS-MP2 Energies <==================
	-----------------------------------------------------------
	 SCS Same-Spin Scale       =       0.3333333333333333 [-]
	 SCS Opposite-Spin Scale   =       1.2000000000000000 [-]
	 SCS Same-Spin Energy      =      -0.2448877333149229 [Eh]
	 SCS Opposite-Spin Energy  =      -2.6785726520124244 [Eh]
	 SCS Correlation Energy    =      -2.9234603853273473 [Eh]
	 SCS Total Energy          =    -761.4436226526272549 [Eh]
	-----------------------------------------------------------

  Dipole Moment: [D]
     X:    -1.0794      Y:     2.7401      Z:    -0.8278     Total:     3.0592

*** Psi4 exiting successfully. Buy a developer a beer!
