                               Psi4 1.4a3.dev225

  ==> Input File <==

--------------------------------------------------------------------------
#psi4
#
memory 32 gb

molecule  {
0 1
  O       -1.3621950    -1.7118670    -1.0487160
  O        1.3250660    -1.5098260    -0.8661080
  O       -3.0202870    -0.6972320     0.8011600
  O        1.4000820    -0.3698310     1.7931610
  O       -3.3935320     1.8007080    -0.1346550
  O        2.6070010     1.5395500    -0.9938350
  O        3.6924620     0.1319130     0.4259740
  C       -0.8211920    -0.9649900     0.0477000
  C        0.4956150    -0.4174700    -0.4760140
  C       -1.8427190     0.0633310     0.5156670
  C        1.2861160     0.3473610     0.5837090
  C       -2.1505691     1.0932049    -0.5413209
  C        2.6663270     0.6479390     0.0251960
  H       -0.6001840    -1.6333830     0.8895000
  H        0.3094840     0.2426950    -1.3366810
  H       -1.4776870     0.5490530     1.4357690
  H        0.7848540     1.2951930     0.8109900
  H       -2.4256530     0.6242850    -1.4728150
  H       -1.3693410     1.8242450    -0.6894300
  H       -2.2436880    -1.9988170    -0.7384990
  H        0.7382740    -2.1149450    -1.3600910
  H       -3.7555350    -0.0560060     0.7240450
  H        2.1352240    -0.9985780     1.6549180
  H       -3.1588320     2.4130520     0.5846580
  H        3.5236120     1.6268920    -1.3298730
units angstrom
no_reorient  #important for SAPT in psi4, default
symmetry c1  #important for SAPT in psi4, default
}

set PROPERTIES_ORIGIN ["COM"]
properties('MP2/aug-cc-pvtz', properties = ['dipole'])
--------------------------------------------------------------------------

    Molecular point group: c1
  Charge       = 0
  Multiplicity = 1
  Basis Set: AUG-CC-PVTZ
    Blend: AUG-CC-PVTZ
  Basis Set: (AUG-CC-PVTZ AUX)
    Blend: AUG-CC-PVTZ-JKFIT

    Orbital Energies [Eh]
    ---------------------

    Doubly Occupied:

       1A    -20.632043     2A    -20.586489     3A    -20.576350
       4A    -20.575445     5A    -20.574032     6A    -20.571206
       7A    -20.565687     8A    -11.402523     9A    -11.319085
      10A    -11.305299    11A    -11.303621    12A    -11.300801
      13A    -11.296262    14A     -1.476892    15A     -1.406408
      16A     -1.393925    17A     -1.380121    18A     -1.366617
      19A     -1.359611    20A     -1.349241    21A     -1.083248
      22A     -1.031679    23A     -0.963397    24A     -0.889264
      25A     -0.831343    26A     -0.803115    27A     -0.757752
      28A     -0.737066    29A     -0.726213    30A     -0.714180
      31A     -0.710643    32A     -0.681603    33A     -0.676384
      34A     -0.650660    35A     -0.640732    36A     -0.637380
      37A     -0.625999    38A     -0.607795    39A     -0.594699
      40A     -0.581233    41A     -0.553002    42A     -0.549419
      43A     -0.540375    44A     -0.537786    45A     -0.530551
      46A     -0.504954    47A     -0.496301    48A     -0.485164
      49A     -0.469620    50A     -0.460704    51A     -0.456827
      52A     -0.445106

  @DF-RHF Final Energy:  -758.52036788932537

   => Energetics <=

    Nuclear Repulsion Energy =            915.7835686576092940
    One-Electron Energy =               -2863.1761710876990037
    Two-Electron Energy =                1188.8722345407643388
    Total Energy =                       -758.5203678893253709
  Basis Set: (AUG-CC-PVTZ AUX)
    Blend: AUG-CC-PVTZ-RI
    Molecular point group: c1

    Geometry (in Angstrom), charge = 0, multiplicity = 1:

       Center              X                  Y                   Z               Mass
    ------------   -----------------  -----------------  -----------------  -----------------
         O           -1.402875085908    -1.701456161101    -1.052067421320    15.994914619570
         O            1.284385914092    -1.499415161101    -0.869459421320    15.994914619570
         O           -3.060967085908    -0.686821161101     0.797808578680    15.994914619570
         O            1.359401914092    -0.359420161101     1.789809578680    15.994914619570
         O           -3.434212085908     1.811118838899    -0.138006421320    15.994914619570
         O            2.566320914092     1.549960838899    -0.997186421320    15.994914619570
         O            3.651781914092     0.142323838899     0.422622578680    15.994914619570
         C           -0.861872085908    -0.954579161101     0.044348578680    12.000000000000
         C            0.454934914092    -0.407059161101    -0.479365421320    12.000000000000
         C           -1.883399085908     0.073741838899     0.512315578680    12.000000000000
         C            1.245435914092     0.357771838899     0.580357578680    12.000000000000
         C           -2.191249185908     1.103615738899    -0.544672321320    12.000000000000
         C            2.625646914092     0.658349838899     0.021844578680    12.000000000000
         H           -0.640864085908    -1.622972161101     0.886148578680     1.007825032230
         H            0.268803914092     0.253105838899    -1.340032421320     1.007825032230
         H           -1.518367085908     0.559463838899     1.432417578680     1.007825032230
         H            0.744173914092     1.305603838899     0.807638578680     1.007825032230
         H           -2.466333085908     0.634695838899    -1.476166421320     1.007825032230
         H           -1.410021085908     1.834655838899    -0.692781421320     1.007825032230
         H           -2.284368085908    -1.988406161101    -0.741850421320     1.007825032230
         H            0.697593914092    -2.104534161101    -1.363442421320     1.007825032230
         H           -3.796215085908    -0.045595161101     0.720693578680     1.007825032230
         H            2.094543914092    -0.988167161101     1.651566578680     1.007825032230
         H           -3.199512085908     2.423462838899     0.581306578680     1.007825032230
         H            3.482931914092     1.637302838899    -1.333224421320     1.007825032230

  Basis Set: AUG-CC-PVTZ
    Blend: AUG-CC-PVTZ
  Basis Set: (AUG-CC-PVTZ AUX)
    Blend: AUG-CC-PVTZ-JKFIT
	 Reference Energy          =    -758.5203678893253709 [Eh]
	 Singles Energy            =      -0.0000000000000000 [Eh]
	 Same-Spin Energy          =      -0.7345983955959277 [Eh]
	 Opposite-Spin Energy      =      -2.2320396949385830 [Eh]
	 Correlation Energy        =      -2.9666380905345107 [Eh]
	 Total Energy              =    -761.4870059798598732 [Eh]

	 ================> DF-SCS-MP2 Energies <==================
	-----------------------------------------------------------
	 SCS Same-Spin Scale       =       0.3333333333333333 [-]
	 SCS Opposite-Spin Scale   =       1.2000000000000000 [-]
	 SCS Same-Spin Energy      =      -0.2448661318653092 [Eh]
	 SCS Opposite-Spin Energy  =      -2.6784476339262997 [Eh]
	 SCS Correlation Energy    =      -2.9233137657916091 [Eh]
	 SCS Total Energy          =    -761.4436816551169613 [Eh]
	-----------------------------------------------------------

  Dipole Moment: [D]
     X:    -1.0671      Y:     2.5740      Z:    -0.8393     Total:     2.9101

*** Psi4 exiting successfully. Buy a developer a beer!
