                               Psi4 1.4a3.dev225

  ==> Input File <==

--------------------------------------------------------------------------
#psi4
#
memory 32 gb

molecule  {
0 1
  O       -1.3621950    -1.7118670    -1.0487160
  O        1.3250660    -1.5098260    -0.8661080
  O       -3.0202870    -0.6972320     0.8011600
  O        1.4000820    -0.3698310     1.7931610
  O       -3.3935320     1.8007080    -0.1346550
  O        2.6070010     1.5395500    -0.9938350
  O        3.6924620     0.1319130     0.4259740
  C       -0.8211920    -0.9649900     0.0477000
  C        0.4956150    -0.4174700    -0.4760140
  C       -1.8427190     0.0633310     0.5156670
  C        1.2861160     0.3473610     0.5837090
  C       -2.1923660     1.1169960    -0.5276460
  C        2.5819752     0.6903581    -0.0077493
  H       -0.6001840    -1.6333830     0.8895000
  H        0.3094840     0.2426950    -1.3366810
  H       -1.4776870     0.5490530     1.4357690
  H        0.7848540     1.2951930     0.8109900
  H       -2.4256530     0.6242850    -1.4728150
  H       -1.3693410     1.8242450    -0.6894300
  H       -2.2436880    -1.9988170    -0.7384990
  H        0.7382740    -2.1149450    -1.3600910
  H       -3.7555350    -0.0560060     0.7240450
  H        2.1352240    -0.9985780     1.6549180
  H       -3.1588320     2.4130520     0.5846580
  H        3.5236120     1.6268920    -1.3298730
units angstrom
no_reorient  #important for SAPT in psi4, default
symmetry c1  #important for SAPT in psi4, default
}

set PROPERTIES_ORIGIN ["COM"]
properties('MP2/aug-cc-pvtz', properties = ['dipole'])
--------------------------------------------------------------------------

    Molecular point group: c1
  Charge       = 0
  Multiplicity = 1
  Basis Set: AUG-CC-PVTZ
    Blend: AUG-CC-PVTZ
  Basis Set: (AUG-CC-PVTZ AUX)
    Blend: AUG-CC-PVTZ-JKFIT

    Orbital Energies [Eh]
    ---------------------

    Doubly Occupied:

       1A    -20.647970     2A    -20.593772     3A    -20.577221
       4A    -20.576867     5A    -20.574918     6A    -20.572217
       7A    -20.546059     8A    -11.409627     9A    -11.321275
      10A    -11.308907    11A    -11.304073    12A    -11.302488
      13A    -11.298031    14A     -1.493864    15A     -1.409844
      16A     -1.398340    17A     -1.383306    18A     -1.367855
      19A     -1.352536    20A     -1.310968    21A     -1.088041
      22A     -1.039994    23A     -0.968832    24A     -0.895530
      25A     -0.847620    26A     -0.807464    27A     -0.763221
      28A     -0.745402    29A     -0.726862    30A     -0.717184
      31A     -0.713278    32A     -0.684840    33A     -0.678638
      34A     -0.655900    35A     -0.642187    36A     -0.636311
      37A     -0.631057    38A     -0.605030    39A     -0.588205
      40A     -0.585214    41A     -0.552532    42A     -0.550913
      43A     -0.543148    44A     -0.536183    45A     -0.528749
      46A     -0.505268    47A     -0.477960    48A     -0.469409
      49A     -0.462782    50A     -0.456573    51A     -0.454890
      52A     -0.445295

  @DF-RHF Final Energy:  -758.50054604156958

   => Energetics <=

    Nuclear Repulsion Energy =            916.0272470273608860
    One-Electron Energy =               -2863.5462804572835012
    Two-Electron Energy =                1189.0184873883531509
    Total Energy =                       -758.5005460415695779
  Basis Set: (AUG-CC-PVTZ AUX)
    Blend: AUG-CC-PVTZ-RI
    Molecular point group: c1

    Geometry (in Angstrom), charge = 0, multiplicity = 1:

       Center              X                  Y                   Z               Mass
    ------------   -----------------  -----------------  -----------------  -----------------
         O           -1.395153992851    -1.705508641353    -1.050887951761    15.994914619570
         O            1.292107007149    -1.503467641353    -0.868279951761    15.994914619570
         O           -3.053245992851    -0.690873641353     0.798988048239    15.994914619570
         O            1.367123007149    -0.363472641353     1.790989048239    15.994914619570
         O           -3.426490992851     1.807066358647    -0.136826951761    15.994914619570
         O            2.574042007149     1.545908358647    -0.996006951761    15.994914619570
         O            3.659503007149     0.138271358647     0.423802048239    15.994914619570
         C           -0.854150992851    -0.958631641353     0.045528048239    12.000000000000
         C            0.462656007149    -0.411111641353    -0.478185951761    12.000000000000
         C           -1.875677992851     0.069689358647     0.513495048239    12.000000000000
         C            1.253157007149     0.353719358647     0.581537048239    12.000000000000
         C           -2.225324992851     1.123354358647    -0.529817951761    12.000000000000
         C            2.549016207149     0.696716458647    -0.009921251761    12.000000000000
         H           -0.633142992851    -1.627024641353     0.887328048239     1.007825032230
         H            0.276525007149     0.249053358647    -1.338852951761     1.007825032230
         H           -1.510645992851     0.555411358647     1.433597048239     1.007825032230
         H            0.751895007149     1.301551358647     0.808818048239     1.007825032230
         H           -2.458611992851     0.630643358647    -1.474986951761     1.007825032230
         H           -1.402299992851     1.830603358647    -0.691601951761     1.007825032230
         H           -2.276646992851    -1.992458641353    -0.740670951761     1.007825032230
         H            0.705315007149    -2.108586641353    -1.362262951761     1.007825032230
         H           -3.788493992851    -0.049647641353     0.721873048239     1.007825032230
         H            2.102265007149    -0.992219641353     1.652746048239     1.007825032230
         H           -3.191790992851     2.419410358647     0.582486048239     1.007825032230
         H            3.490653007149     1.633250358647    -1.332044951761     1.007825032230

  Basis Set: AUG-CC-PVTZ
    Blend: AUG-CC-PVTZ
  Basis Set: (AUG-CC-PVTZ AUX)
    Blend: AUG-CC-PVTZ-JKFIT
	 Reference Energy          =    -758.5005460415695779 [Eh]
	 Singles Energy            =      -0.0000000000000000 [Eh]
	 Same-Spin Energy          =      -0.7366750484915521 [Eh]
	 Opposite-Spin Energy      =      -2.2349724945942491 [Eh]
	 Correlation Energy        =      -2.9716475430858011 [Eh]
	 Total Energy              =    -761.4721935846554288 [Eh]

	 ================> DF-SCS-MP2 Energies <==================
	-----------------------------------------------------------
	 SCS Same-Spin Scale       =       0.3333333333333333 [-]
	 SCS Opposite-Spin Scale   =       1.2000000000000000 [-]
	 SCS Same-Spin Energy      =      -0.2455583494971840 [Eh]
	 SCS Opposite-Spin Energy  =      -2.6819669935130990 [Eh]
	 SCS Correlation Energy    =      -2.9275253430102830 [Eh]
	 SCS Total Energy          =    -761.4280713845798800 [Eh]
	-----------------------------------------------------------

  Dipole Moment: [D]
     X:    -1.6782      Y:     2.9629      Z:    -1.1234     Total:     3.5857

*** Psi4 exiting successfully. Buy a developer a beer!
