                               Psi4 1.4a3.dev225

  ==> Input File <==

--------------------------------------------------------------------------
#psi4
#
memory 32 gb

molecule  {
0 1
  O       -1.3621950    -1.7118670    -1.0487160
  O        1.3250660    -1.5098260    -0.8661080
  O       -3.0202870    -0.6972320     0.8011600
  O        1.4000820    -0.3698310     1.7931610
  O       -3.3935320     1.8007080    -0.1346550
  O        2.6070010     1.5395500    -0.9938350
  O        3.6924620     0.1319130     0.4259740
  C       -0.8211920    -0.9649900     0.0477000
  C        0.4956150    -0.4174700    -0.4760140
  C       -1.8427190     0.0633310     0.5156670
  C        1.2861160     0.3473610     0.5837090
  C       -2.1923660     1.1169960    -0.5276460
  C        2.8350306     0.5631008     0.0910866
  H       -0.6001840    -1.6333830     0.8895000
  H        0.3094840     0.2426950    -1.3366810
  H       -1.4776870     0.5490530     1.4357690
  H        0.7848540     1.2951930     0.8109900
  H       -2.4256530     0.6242850    -1.4728150
  H       -1.3693410     1.8242450    -0.6894300
  H       -2.2436880    -1.9988170    -0.7384990
  H        0.7382740    -2.1149450    -1.3600910
  H       -3.7555350    -0.0560060     0.7240450
  H        2.1352240    -0.9985780     1.6549180
  H       -3.1588320     2.4130520     0.5846580
  H        3.5236120     1.6268920    -1.3298730
units angstrom
no_reorient  #important for SAPT in psi4, default
symmetry c1  #important for SAPT in psi4, default
}

set PROPERTIES_ORIGIN ["COM"]
properties('MP2/aug-cc-pvtz', properties = ['dipole'])
--------------------------------------------------------------------------

    Molecular point group: c1
  Charge       = 0
  Multiplicity = 1
  Basis Set: AUG-CC-PVTZ
    Blend: AUG-CC-PVTZ
  Basis Set: (AUG-CC-PVTZ AUX)
    Blend: AUG-CC-PVTZ-JKFIT

    Orbital Energies [Eh]
    ---------------------

    Doubly Occupied:

       1A    -20.601604     2A    -20.591510     3A    -20.588415
       4A    -20.571970     5A    -20.570945     6A    -20.569337
       7A    -20.566704     8A    -11.381678     9A    -11.310722
      10A    -11.298340    11A    -11.296109    12A    -11.295779
      13A    -11.291287    14A     -1.590589    15A     -1.404023
      16A     -1.391262    17A     -1.376610    18A     -1.366784
      19A     -1.361942    20A     -1.346926    21A     -1.070692
      22A     -1.007950    23A     -0.944040    24A     -0.874041
      25A     -0.806751    26A     -0.792730    27A     -0.765437
      28A     -0.749115    29A     -0.742871    30A     -0.714332
      31A     -0.711454    32A     -0.692712    33A     -0.679267
      34A     -0.674824    35A     -0.642715    36A     -0.630753
      37A     -0.625094    38A     -0.616717    39A     -0.597199
      40A     -0.581025    41A     -0.564133    42A     -0.546737
      43A     -0.541648    44A     -0.530922    45A     -0.527688
      46A     -0.520395    47A     -0.499206    48A     -0.480848
      49A     -0.462270    50A     -0.452668    51A     -0.445958
      52A     -0.419809

  @DF-RHF Final Energy:  -758.44150050926680

   => Energetics <=

    Nuclear Repulsion Energy =            915.5673726432912645
    One-Electron Energy =               -2862.6486659173892804
    Two-Electron Energy =                1188.6397927648313271
    Total Energy =                       -758.4415005092666888
  Basis Set: (AUG-CC-PVTZ AUX)
    Blend: AUG-CC-PVTZ-RI
    Molecular point group: c1

    Geometry (in Angstrom), charge = 0, multiplicity = 1:

       Center              X                  Y                   Z               Mass
    ------------   -----------------  -----------------  -----------------  -----------------
         O           -1.410642573328    -1.697719695010    -1.056937329846    15.994914619570
         O            1.276618426672    -1.495678695010    -0.874329329846    15.994914619570
         O           -3.068734573328    -0.683084695010     0.792938670154    15.994914619570
         O            1.351634426672    -0.355683695010     1.784939670154    15.994914619570
         O           -3.441979573328     1.814855304990    -0.142876329846    15.994914619570
         O            2.558553426672     1.553697304990    -1.002056329846    15.994914619570
         O            3.644014426672     0.146060304990     0.417752670154    15.994914619570
         C           -0.869639573328    -0.950842695010     0.039478670154    12.000000000000
         C            0.447167426672    -0.403322695010    -0.484235329846    12.000000000000
         C           -1.891166573328     0.077478304990     0.507445670154    12.000000000000
         C            1.237668426672     0.361508304990     0.575487670154    12.000000000000
         C           -2.240813573328     1.131143304990    -0.535867329846    12.000000000000
         C            2.786583026672     0.577248104990     0.082865270154    12.000000000000
         H           -0.648631573328    -1.619235695010     0.881278670154     1.007825032230
         H            0.261036426672     0.256842304990    -1.344902329846     1.007825032230
         H           -1.526134573328     0.563200304990     1.427547670154     1.007825032230
         H            0.736406426672     1.309340304990     0.802768670154     1.007825032230
         H           -2.474100573328     0.638432304990    -1.481036329846     1.007825032230
         H           -1.417788573328     1.838392304990    -0.697651329846     1.007825032230
         H           -2.292135573328    -1.984669695010    -0.746720329846     1.007825032230
         H            0.689826426672    -2.100797695010    -1.368312329846     1.007825032230
         H           -3.803982573328    -0.041858695010     0.715823670154     1.007825032230
         H            2.086776426672    -0.984430695010     1.646696670154     1.007825032230
         H           -3.207279573328     2.427199304990     0.576436670154     1.007825032230
         H            3.475164426672     1.641039304990    -1.338094329846     1.007825032230

  Basis Set: AUG-CC-PVTZ
    Blend: AUG-CC-PVTZ
  Basis Set: (AUG-CC-PVTZ AUX)
    Blend: AUG-CC-PVTZ-JKFIT
	 Reference Energy          =    -758.4415005092668025 [Eh]
	 Singles Energy            =      -0.0000000000000000 [Eh]
	 Same-Spin Energy          =      -0.7311259885937779 [Eh]
	 Opposite-Spin Energy      =      -2.2256238351099249 [Eh]
	 Correlation Energy        =      -2.9567498237037029 [Eh]
	 Total Energy              =    -761.3982503329705196 [Eh]

	 ================> DF-SCS-MP2 Energies <==================
	-----------------------------------------------------------
	 SCS Same-Spin Scale       =       0.3333333333333333 [-]
	 SCS Opposite-Spin Scale   =       1.2000000000000000 [-]
	 SCS Same-Spin Energy      =      -0.2437086628645926 [Eh]
	 SCS Opposite-Spin Energy  =      -2.6707486021319098 [Eh]
	 SCS Correlation Energy    =      -2.9144572649965026 [Eh]
	 SCS Total Energy          =    -761.3559577742632882 [Eh]
	-----------------------------------------------------------

  Dipole Moment: [D]
     X:    -0.0930      Y:     1.9436      Z:    -0.0188     Total:     1.9460

*** Psi4 exiting successfully. Buy a developer a beer!
