                               Psi4 1.4a3.dev225

  ==> Input File <==

--------------------------------------------------------------------------
#psi4
#
memory 32 gb

molecule  {
0 1
  O       -1.3621950    -1.7118670    -1.0487160
  O        1.3250660    -1.5098260    -0.8661080
  O       -3.0202870    -0.6972320     0.8011600
  O        1.4000820    -0.3698310     1.7931610
  O       -3.3935320     1.8007080    -0.1346550
  O        2.6070010     1.5395500    -0.9938350
  O        3.6924620     0.1319130     0.4259740
  C       -0.8211920    -0.9649900     0.0477000
  C        0.4956150    -0.4174700    -0.4760140
  C       -1.8427190     0.0633310     0.5156670
  C        1.2861160     0.3473610     0.5837090
  C       -2.1923660     1.1169960    -0.5276460
  C        2.6663270     0.6479390     0.0251960
  H       -0.6001840    -1.6333830     0.8895000
  H        0.3094840     0.2426950    -1.3366810
  H       -1.4776870     0.5490530     1.4357690
  H        0.7848540     1.2951930     0.8109900
  H       -2.4256530     0.6242850    -1.4728150
  H       -1.3693410     1.8242450    -0.6894300
  H       -2.2436880    -1.9988170    -0.7384990
  H        0.7382740    -2.1149450    -1.3600910
  H       -3.7931004    -0.0232444     0.7201050
  H        2.1352240    -0.9985780     1.6549180
  H       -3.1588320     2.4130520     0.5846580
  H        3.5236120     1.6268920    -1.3298730
units angstrom
no_reorient  #important for SAPT in psi4, default
symmetry c1  #important for SAPT in psi4, default
}

set PROPERTIES_ORIGIN ["COM"]
properties('MP2/aug-cc-pvtz', properties = ['dipole'])
--------------------------------------------------------------------------

    Molecular point group: c1
  Charge       = 0
  Multiplicity = 1
  Basis Set: AUG-CC-PVTZ
    Blend: AUG-CC-PVTZ
  Basis Set: (AUG-CC-PVTZ AUX)
    Blend: AUG-CC-PVTZ-JKFIT

    Orbital Energies [Eh]
    ---------------------

    Doubly Occupied:

       1A    -20.631316     2A    -20.593068     3A    -20.577672
       4A    -20.574570     5A    -20.572649     6A    -20.570183
       7A    -20.564944     8A    -11.401737     9A    -11.318044
      10A    -11.304082    11A    -11.301462    12A    -11.300312
      13A    -11.295423    14A     -1.476151    15A     -1.405343
      16A     -1.395555    17A     -1.383684    18A     -1.368129
      19A     -1.360728    20A     -1.346217    21A     -1.079328
      22A     -1.026824    23A     -0.961122    24A     -0.886244
      25A     -0.829958    26A     -0.801922    27A     -0.756774
      28A     -0.736211    29A     -0.724249    30A     -0.715509
      31A     -0.710821    32A     -0.681279    33A     -0.673580
      34A     -0.649683    35A     -0.639416    36A     -0.635757
      37A     -0.628057    38A     -0.606825    39A     -0.601904
      40A     -0.580436    41A     -0.553131    42A     -0.546415
      43A     -0.539118    44A     -0.533514    45A     -0.529940
      46A     -0.503379    47A     -0.495578    48A     -0.484261
      49A     -0.465373    50A     -0.459679    51A     -0.454729
      52A     -0.442533

  @DF-RHF Final Energy:  -758.51831017493862

   => Energetics <=

    Nuclear Repulsion Energy =            915.2979503959038539
    One-Electron Energy =               -2862.2828848632493646
    Two-Electron Energy =                1188.4666242924067774
    Total Energy =                       -758.5183101749387333
  Basis Set: (AUG-CC-PVTZ AUX)
    Blend: AUG-CC-PVTZ-RI
    Molecular point group: c1

    Geometry (in Angstrom), charge = 0, multiplicity = 1:

       Center              X                  Y                   Z               Mass
    ------------   -----------------  -----------------  -----------------  -----------------
         O           -1.400123750500    -1.703080734792    -1.052884157807    15.994914619570
         O            1.287137249500    -1.501039734792    -0.870276157807    15.994914619570
         O           -3.058215750500    -0.688445734792     0.796991842193    15.994914619570
         O            1.362153249500    -0.361044734792     1.788992842193    15.994914619570
         O           -3.431460750500     1.809494265208    -0.138823157807    15.994914619570
         O            2.569072249500     1.548336265208    -0.998003157807    15.994914619570
         O            3.654533249500     0.140699265208     0.421805842193    15.994914619570
         C           -0.859120750500    -0.956203734792     0.043531842193    12.000000000000
         C            0.457686249500    -0.408683734792    -0.480182157807    12.000000000000
         C           -1.880647750500     0.072117265208     0.511498842193    12.000000000000
         C            1.248187249500     0.356147265208     0.579540842193    12.000000000000
         C           -2.230294750500     1.125782265208    -0.531814157807    12.000000000000
         C            2.628398249500     0.656725265208     0.021027842193    12.000000000000
         H           -0.638112750500    -1.624596734792     0.885331842193     1.007825032230
         H            0.271555249500     0.251481265208    -1.340849157807     1.007825032230
         H           -1.515615750500     0.557839265208     1.431600842193     1.007825032230
         H            0.746925249500     1.303979265208     0.806821842193     1.007825032230
         H           -2.463581750500     0.633071265208    -1.476983157807     1.007825032230
         H           -1.407269750500     1.833031265208    -0.693598157807     1.007825032230
         H           -2.281616750500    -1.990030734792    -0.742667157807     1.007825032230
         H            0.700345249500    -2.106158734792    -1.364259157807     1.007825032230
         H           -3.831029150500    -0.014458134792     0.715936842193     1.007825032230
         H            2.097295249500    -0.989791734792     1.650749842193     1.007825032230
         H           -3.196760750500     2.421838265208     0.580489842193     1.007825032230
         H            3.485683249500     1.635678265208    -1.334041157807     1.007825032230

  Basis Set: AUG-CC-PVTZ
    Blend: AUG-CC-PVTZ
  Basis Set: (AUG-CC-PVTZ AUX)
    Blend: AUG-CC-PVTZ-JKFIT
	 Reference Energy          =    -758.5183101749386196 [Eh]
	 Singles Energy            =      -0.0000000000000000 [Eh]
	 Same-Spin Energy          =      -0.7350682044624608 [Eh]
	 Opposite-Spin Energy      =      -2.2326980452827971 [Eh]
	 Correlation Energy        =      -2.9677662497452579 [Eh]
	 Total Energy              =    -761.4860764246839153 [Eh]

	 ================> DF-SCS-MP2 Energies <==================
	-----------------------------------------------------------
	 SCS Same-Spin Scale       =       0.3333333333333333 [-]
	 SCS Opposite-Spin Scale   =       1.2000000000000000 [-]
	 SCS Same-Spin Energy      =      -0.2450227348208203 [Eh]
	 SCS Opposite-Spin Energy  =      -2.6792376543393566 [Eh]
	 SCS Correlation Energy    =      -2.9242603891601768 [Eh]
	 SCS Total Energy          =    -761.4425705640987871 [Eh]
	-----------------------------------------------------------

  Dipole Moment: [D]
     X:    -1.2652      Y:     2.7266      Z:    -0.8136     Total:     3.1140

*** Psi4 exiting successfully. Buy a developer a beer!
