                               Psi4 1.4a3.dev225

  ==> Input File <==

--------------------------------------------------------------------------
#psi4
#
memory 32 gb

molecule  {
0 1
  O       -1.3621950    -1.7118670    -1.0487160
  O        1.3250660    -1.5098260    -0.8661080
  O       -3.0202870    -0.6972320     0.8011600
  O        1.4000820    -0.3698310     1.7931610
  O       -3.3935320     1.8007080    -0.1346550
  O        2.6070010     1.5395500    -0.9938350
  O        3.6924620     0.1319130     0.4259740
  C       -0.8211920    -0.9649900     0.0477000
  C        0.4956150    -0.4174700    -0.4760140
  C       -1.8427190     0.0633310     0.5156670
  C        1.2861160     0.3473610     0.5837090
  C       -2.3595536     1.2121604    -0.4729465
  C        2.6663270     0.6479390     0.0251960
  H       -0.6001840    -1.6333830     0.8895000
  H        0.3094840     0.2426950    -1.3366810
  H       -1.4776870     0.5490530     1.4357690
  H        0.7848540     1.2951930     0.8109900
  H       -2.4256530     0.6242850    -1.4728150
  H       -1.3693410     1.8242450    -0.6894300
  H       -2.2436880    -1.9988170    -0.7384990
  H        0.7382740    -2.1149450    -1.3600910
  H       -3.7555350    -0.0560060     0.7240450
  H        2.1352240    -0.9985780     1.6549180
  H       -3.1588320     2.4130520     0.5846580
  H        3.5236120     1.6268920    -1.3298730
units angstrom
no_reorient  #important for SAPT in psi4, default
symmetry c1  #important for SAPT in psi4, default
}

set PROPERTIES_ORIGIN ["COM"]
properties('MP2/aug-cc-pvtz', properties = ['dipole'])
--------------------------------------------------------------------------

    Molecular point group: c1
  Charge       = 0
  Multiplicity = 1
  Basis Set: AUG-CC-PVTZ
    Blend: AUG-CC-PVTZ
  Basis Set: (AUG-CC-PVTZ AUX)
    Blend: AUG-CC-PVTZ-JKFIT

    Orbital Energies [Eh]
    ---------------------

    Doubly Occupied:

       1A    -20.628828     2A    -20.615062     3A    -20.571998
       4A    -20.571679     5A    -20.569443     6A    -20.567319
       7A    -20.562551     8A    -11.399202     9A    -11.314746
      10A    -11.309051    11A    -11.300605    12A    -11.296130
      13A    -11.294248    14A     -1.490334    15A     -1.473681
      16A     -1.399522    17A     -1.386301    18A     -1.371126
      19A     -1.361058    20A     -1.348573    21A     -1.071663
      22A     -1.014069    23A     -0.951951    24A     -0.889959
      25A     -0.831444    26A     -0.807078    27A     -0.769142
      28A     -0.738998    29A     -0.732338    30A     -0.725523
      31A     -0.712581    32A     -0.699535    33A     -0.675076
      34A     -0.660057    35A     -0.647301    36A     -0.638280
      37A     -0.633642    38A     -0.619366    39A     -0.604062
      40A     -0.578231    41A     -0.567326    42A     -0.549371
      43A     -0.536182    44A     -0.529692    45A     -0.513736
      46A     -0.493250    47A     -0.482578    48A     -0.470363
      49A     -0.459314    50A     -0.456342    51A     -0.448890
      52A     -0.415366

  @DF-RHF Final Energy:  -758.48092315720373

   => Energetics <=

    Nuclear Repulsion Energy =            915.1934346035898216
    One-Electron Energy =               -2861.8403900238004098
    Two-Electron Energy =                1188.1660322630068549
    Total Energy =                       -758.4809231572037334
  Basis Set: (AUG-CC-PVTZ AUX)
    Blend: AUG-CC-PVTZ-RI
    Molecular point group: c1

    Geometry (in Angstrom), charge = 0, multiplicity = 1:

       Center              X                  Y                   Z               Mass
    ------------   -----------------  -----------------  -----------------  -----------------
         O           -1.390083921417    -1.708736985122    -1.056252364210    15.994914619570
         O            1.297177078583    -1.506695985122    -0.873644364210    15.994914619570
         O           -3.048175921417    -0.694101985122     0.793623635790    15.994914619570
         O            1.372193078583    -0.366700985122     1.785624635790    15.994914619570
         O           -3.421420921417     1.803838014878    -0.142191364210    15.994914619570
         O            2.579112078583     1.542680014878    -1.001371364210    15.994914619570
         O            3.664573078583     0.135043014878     0.418437635790    15.994914619570
         C           -0.849080921417    -0.961859985122     0.040163635790    12.000000000000
         C            0.467726078583    -0.414339985122    -0.483550364210    12.000000000000
         C           -1.870607921417     0.066461014878     0.508130635790    12.000000000000
         C            1.258227078583     0.350491014878     0.576172635790    12.000000000000
         C           -2.387442521417     1.215290414878    -0.480482864210    12.000000000000
         C            2.638438078583     0.651069014878     0.017659635790    12.000000000000
         H           -0.628072921417    -1.630252985122     0.881963635790     1.007825032230
         H            0.281595078583     0.245825014878    -1.344217364210     1.007825032230
         H           -1.505575921417     0.552183014878     1.428232635790     1.007825032230
         H            0.756965078583     1.298323014878     0.803453635790     1.007825032230
         H           -2.453541921417     0.627415014878    -1.480351364210     1.007825032230
         H           -1.397229921417     1.827375014878    -0.696966364210     1.007825032230
         H           -2.271576921417    -1.995686985122    -0.746035364210     1.007825032230
         H            0.710385078583    -2.111814985122    -1.367627364210     1.007825032230
         H           -3.783423921417    -0.052875985122     0.716508635790     1.007825032230
         H            2.107335078583    -0.995447985122     1.647381635790     1.007825032230
         H           -3.186720921417     2.416182014878     0.577121635790     1.007825032230
         H            3.495723078583     1.630022014878    -1.337409364210     1.007825032230

  Basis Set: AUG-CC-PVTZ
    Blend: AUG-CC-PVTZ
  Basis Set: (AUG-CC-PVTZ AUX)
    Blend: AUG-CC-PVTZ-JKFIT
	 Reference Energy          =    -758.4809231572037334 [Eh]
	 Singles Energy            =      -0.0000000000000000 [Eh]
	 Same-Spin Energy          =      -0.7349025756733780 [Eh]
	 Opposite-Spin Energy      =      -2.2297978549772015 [Eh]
	 Correlation Energy        =      -2.9647004306505798 [Eh]
	 Total Energy              =    -761.4456235878543566 [Eh]

	 ================> DF-SCS-MP2 Energies <==================
	-----------------------------------------------------------
	 SCS Same-Spin Scale       =       0.3333333333333333 [-]
	 SCS Opposite-Spin Scale   =       1.2000000000000000 [-]
	 SCS Same-Spin Energy      =      -0.2449675252244593 [Eh]
	 SCS Opposite-Spin Energy  =      -2.6757574259726415 [Eh]
	 SCS Correlation Energy    =      -2.9207249511971010 [Eh]
	 SCS Total Energy          =    -761.4016481084008774 [Eh]
	-----------------------------------------------------------

  Dipole Moment: [D]
     X:    -1.9484      Y:     3.1243      Z:    -0.6029     Total:     3.7311

*** Psi4 exiting successfully. Buy a developer a beer!
