                               Psi4 1.4a3.dev225

  ==> Input File <==

--------------------------------------------------------------------------
#psi4
#
memory 32 gb

molecule  {
0 1
  O       -1.3621950    -1.7118670    -1.0487160
  O        1.2135682    -1.5994797    -0.8235773
  O       -3.0202870    -0.6972320     0.8011600
  O        1.4000820    -0.3698310     1.7931610
  O       -3.3935320     1.8007080    -0.1346550
  O        2.6070010     1.5395500    -0.9938350
  O        3.6924620     0.1319130     0.4259740
  C       -0.8211920    -0.9649900     0.0477000
  C        0.4956150    -0.4174700    -0.4760140
  C       -1.8427190     0.0633310     0.5156670
  C        1.2861160     0.3473610     0.5837090
  C       -2.1923660     1.1169960    -0.5276460
  C        2.6663270     0.6479390     0.0251960
  H       -0.6001840    -1.6333830     0.8895000
  H        0.3094840     0.2426950    -1.3366810
  H       -1.4776870     0.5490530     1.4357690
  H        0.7848540     1.2951930     0.8109900
  H       -2.4256530     0.6242850    -1.4728150
  H       -1.3693410     1.8242450    -0.6894300
  H       -2.2436880    -1.9988170    -0.7384990
  H        0.7382740    -2.1149450    -1.3600910
  H       -3.7555350    -0.0560060     0.7240450
  H        2.1352240    -0.9985780     1.6549180
  H       -3.1588320     2.4130520     0.5846580
  H        3.5236120     1.6268920    -1.3298730
units angstrom
no_reorient  #important for SAPT in psi4, default
symmetry c1  #important for SAPT in psi4, default
}

set PROPERTIES_ORIGIN ["COM"]
properties('MP2/aug-cc-pvtz', properties = ['dipole'])
--------------------------------------------------------------------------

    Molecular point group: c1
  Charge       = 0
  Multiplicity = 1
  Basis Set: AUG-CC-PVTZ
    Blend: AUG-CC-PVTZ
  Basis Set: (AUG-CC-PVTZ AUX)
    Blend: AUG-CC-PVTZ-JKFIT

    Orbital Energies [Eh]
    ---------------------

    Doubly Occupied:

       1A    -20.634185     2A    -20.591069     3A    -20.576133
       4A    -20.572908     5A    -20.569159     6A    -20.568091
       7A    -20.557984     8A    -11.404435     9A    -11.322053
      10A    -11.306897    11A    -11.299561    12A    -11.298711
      13A    -11.291691    14A     -1.479018    15A     -1.411836
      16A     -1.399083    17A     -1.387124    18A     -1.371746
      19A     -1.366112    20A     -1.350024    21A     -1.083738
      22A     -1.029467    23A     -0.961516    24A     -0.891395
      25A     -0.831785    26A     -0.806856    27A     -0.761350
      28A     -0.739075    29A     -0.728812    30A     -0.714907
      31A     -0.714186    32A     -0.686418    33A     -0.679715
      34A     -0.655774    35A     -0.641767    36A     -0.634290
      37A     -0.627460    38A     -0.608610    39A     -0.601626
      40A     -0.585772    41A     -0.551568    42A     -0.548058
      43A     -0.539161    44A     -0.531798    45A     -0.530359
      46A     -0.502036    47A     -0.498614    48A     -0.485603
      49A     -0.468203    50A     -0.459341    51A     -0.453533
      52A     -0.441216

  @DF-RHF Final Energy:  -758.51720810675477

   => Energetics <=

    Nuclear Repulsion Energy =            916.0867095727215883
    One-Electron Energy =               -2863.7041846556803648
    Two-Electron Energy =                1189.1002669762037840
    Total Energy =                       -758.5172081067548788
  Basis Set: (AUG-CC-PVTZ AUX)
    Blend: AUG-CC-PVTZ-RI
    Molecular point group: c1

    Geometry (in Angstrom), charge = 0, multiplicity = 1:

       Center              X                  Y                   Z               Mass
    ------------   -----------------  -----------------  -----------------  -----------------
         O           -1.391220590488    -1.695598158349    -1.056374169382    15.994914619570
         O            1.184542609512    -1.583210858349    -0.831235469382    15.994914619570
         O           -3.049312590488    -0.680963158349     0.793501830618    15.994914619570
         O            1.371056409512    -0.353562158349     1.785502830618    15.994914619570
         O           -3.422557590488     1.816976841651    -0.142313169382    15.994914619570
         O            2.577975409512     1.555818841651    -1.001493169382    15.994914619570
         O            3.663436409512     0.148181841651     0.418315830618    15.994914619570
         C           -0.850217590488    -0.948721158349     0.040041830618    12.000000000000
         C            0.466589409512    -0.401201158349    -0.483672169382    12.000000000000
         C           -1.871744590488     0.079599841651     0.508008830618    12.000000000000
         C            1.257090409512     0.363629841651     0.576050830618    12.000000000000
         C           -2.221391590488     1.133264841651    -0.535304169382    12.000000000000
         C            2.637301409512     0.664207841651     0.017537830618    12.000000000000
         H           -0.629209590488    -1.617114158349     0.881841830618     1.007825032230
         H            0.280458409512     0.258963841651    -1.344339169382     1.007825032230
         H           -1.506712590488     0.565321841651     1.428110830618     1.007825032230
         H            0.755828409512     1.311461841651     0.803331830618     1.007825032230
         H           -2.454678590488     0.640553841651    -1.480473169382     1.007825032230
         H           -1.398366590488     1.840513841651    -0.697088169382     1.007825032230
         H           -2.272713590488    -1.982548158349    -0.746157169382     1.007825032230
         H            0.709248409512    -2.098676158349    -1.367749169382     1.007825032230
         H           -3.784560590488    -0.039737158349     0.716386830618     1.007825032230
         H            2.106198409512    -0.982309158349     1.647259830618     1.007825032230
         H           -3.187857590488     2.429320841651     0.576999830618     1.007825032230
         H            3.494586409512     1.643160841651    -1.337531169382     1.007825032230

  Basis Set: AUG-CC-PVTZ
    Blend: AUG-CC-PVTZ
  Basis Set: (AUG-CC-PVTZ AUX)
    Blend: AUG-CC-PVTZ-JKFIT
	 Reference Energy          =    -758.5172081067547651 [Eh]
	 Singles Energy            =      -0.0000000000000000 [Eh]
	 Same-Spin Energy          =      -0.7329223746099593 [Eh]
	 Opposite-Spin Energy      =      -2.2278055177007299 [Eh]
	 Correlation Energy        =      -2.9607278923106892 [Eh]
	 Total Energy              =    -761.4779359990654939 [Eh]

	 ================> DF-SCS-MP2 Energies <==================
	-----------------------------------------------------------
	 SCS Same-Spin Scale       =       0.3333333333333333 [-]
	 SCS Opposite-Spin Scale   =       1.2000000000000000 [-]
	 SCS Same-Spin Energy      =      -0.2443074582033198 [Eh]
	 SCS Opposite-Spin Energy  =      -2.6733666212408758 [Eh]
	 SCS Correlation Energy    =      -2.9176740794441955 [Eh]
	 SCS Total Energy          =    -761.4348821861989336 [Eh]
	-----------------------------------------------------------

  Dipole Moment: [D]
     X:    -0.9149      Y:     2.8931      Z:    -0.8980     Total:     3.1644

*** Psi4 exiting successfully. Buy a developer a beer!
