                               Psi4 1.4a3.dev225

  ==> Input File <==

--------------------------------------------------------------------------
#psi4
#
memory 32 gb

molecule  {
0 1
  O       -1.3621950    -1.7118670    -1.0487160
  O        1.3250660    -1.5098260    -0.8661080
  O       -3.0202870    -0.6972320     0.8011600
  O        1.4000820    -0.3698310     1.7931610
  O       -3.3935320     1.8007080    -0.1346550
  O        2.6070010     1.5395500    -0.9938350
  O        3.6924620     0.1319130     0.4259740
  C       -0.8211920    -0.9649900     0.0477000
  C        0.4956150    -0.4174700    -0.4760140
  C       -1.8427190     0.0633310     0.5156670
  C        1.3048011     0.3342775     0.5744406
  C       -2.1923660     1.1169960    -0.5276460
  C        2.6663270     0.6479390     0.0251960
  H       -0.6001840    -1.6333830     0.8895000
  H        0.3094840     0.2426950    -1.3366810
  H       -1.4776870     0.5490530     1.4357690
  H        0.7848540     1.2951930     0.8109900
  H       -2.4256530     0.6242850    -1.4728150
  H       -1.3693410     1.8242450    -0.6894300
  H       -2.2436880    -1.9988170    -0.7384990
  H        0.7382740    -2.1149450    -1.3600910
  H       -3.7555350    -0.0560060     0.7240450
  H        2.1352240    -0.9985780     1.6549180
  H       -3.1588320     2.4130520     0.5846580
  H        3.5236120     1.6268920    -1.3298730
units angstrom
no_reorient  #important for SAPT in psi4, default
symmetry c1  #important for SAPT in psi4, default
}

set PROPERTIES_ORIGIN ["COM"]
properties('MP2/aug-cc-pvtz', properties = ['dipole'])
--------------------------------------------------------------------------

    Molecular point group: c1
  Charge       = 0
  Multiplicity = 1
  Basis Set: AUG-CC-PVTZ
    Blend: AUG-CC-PVTZ
  Basis Set: (AUG-CC-PVTZ AUX)
    Blend: AUG-CC-PVTZ-JKFIT

    Orbital Energies [Eh]
    ---------------------

    Doubly Occupied:

       1A    -20.631782     2A    -20.591941     3A    -20.575698
       4A    -20.575235     5A    -20.573400     6A    -20.570098
       7A    -20.565135     8A    -11.401760     9A    -11.318390
      10A    -11.304463    11A    -11.302151    12A    -11.300304
      13A    -11.296216    14A     -1.477019    15A     -1.407939
      16A     -1.396940    17A     -1.384138    18A     -1.369744
      19A     -1.362825    20A     -1.350756    21A     -1.080520
      22A     -1.029590    23A     -0.962422    24A     -0.889142
      25A     -0.830091    26A     -0.801557    27A     -0.758465
      28A     -0.738933    29A     -0.725716    30A     -0.715166
      31A     -0.712779    32A     -0.683130    33A     -0.675870
      34A     -0.650540    35A     -0.640052    36A     -0.635155
      37A     -0.628680    38A     -0.606884    39A     -0.601523
      40A     -0.579972    41A     -0.553277    42A     -0.550142
      43A     -0.540694    44A     -0.534324    45A     -0.530699
      46A     -0.503184    47A     -0.495800    48A     -0.483882
      49A     -0.466401    50A     -0.461512    51A     -0.455496
      52A     -0.443763

  @DF-RHF Final Energy:  -758.52251849419076

   => Energetics <=

    Nuclear Repulsion Energy =            915.7841266991928251
    One-Electron Energy =               -2863.1707015532374498
    Two-Electron Energy =                1188.8640563598539757
    Total Energy =                       -758.5225184941907628
  Basis Set: (AUG-CC-PVTZ AUX)
    Blend: AUG-CC-PVTZ-RI
    Molecular point group: c1

    Geometry (in Angstrom), charge = 0, multiplicity = 1:

       Center              X                  Y                   Z               Mass
    ------------   -----------------  -----------------  -----------------  -----------------
         O           -1.401460498532    -1.702111533499    -1.052337126807    15.994914619570
         O            1.285800501468    -1.500070533499    -0.869729126807    15.994914619570
         O           -3.059552498532    -0.687476533499     0.797538873193    15.994914619570
         O            1.360816501468    -0.360075533499     1.789539873193    15.994914619570
         O           -3.432797498532     1.810463466501    -0.138276126807    15.994914619570
         O            2.567735501468     1.549305466501    -0.997456126807    15.994914619570
         O            3.653196501468     0.141668466501     0.422352873193    15.994914619570
         C           -0.860457498532    -0.955234533499     0.044078873193    12.000000000000
         C            0.456349501468    -0.407714533499    -0.479635126807    12.000000000000
         C           -1.881984498532     0.073086466501     0.512045873193    12.000000000000
         C            1.265535601468     0.344032966501     0.570819473193    12.000000000000
         C           -2.231631498532     1.126751466501    -0.531267126807    12.000000000000
         C            2.627061501468     0.657694466501     0.021574873193    12.000000000000
         H           -0.639449498532    -1.623627533499     0.885878873193     1.007825032230
         H            0.270218501468     0.252450466501    -1.340302126807     1.007825032230
         H           -1.516952498532     0.558808466501     1.432147873193     1.007825032230
         H            0.745588501468     1.304948466501     0.807368873193     1.007825032230
         H           -2.464918498532     0.634040466501    -1.476436126807     1.007825032230
         H           -1.408606498532     1.834000466501    -0.693051126807     1.007825032230
         H           -2.282953498532    -1.989061533499    -0.742120126807     1.007825032230
         H            0.699008501468    -2.105189533499    -1.363712126807     1.007825032230
         H           -3.794800498532    -0.046250533499     0.720423873193     1.007825032230
         H            2.095958501468    -0.988822533499     1.651296873193     1.007825032230
         H           -3.198097498532     2.422807466501     0.581036873193     1.007825032230
         H            3.484346501468     1.636647466501    -1.333494126807     1.007825032230

  Basis Set: AUG-CC-PVTZ
    Blend: AUG-CC-PVTZ
  Basis Set: (AUG-CC-PVTZ AUX)
    Blend: AUG-CC-PVTZ-JKFIT
	 Reference Energy          =    -758.5225184941907628 [Eh]
	 Singles Energy            =      -0.0000000000000000 [Eh]
	 Same-Spin Energy          =      -0.7344643786917877 [Eh]
	 Opposite-Spin Energy      =      -2.2312550971806653 [Eh]
	 Correlation Energy        =      -2.9657194758724530 [Eh]
	 Total Energy              =    -761.4882379700632100 [Eh]

	 ================> DF-SCS-MP2 Energies <==================
	-----------------------------------------------------------
	 SCS Same-Spin Scale       =       0.3333333333333333 [-]
	 SCS Opposite-Spin Scale   =       1.2000000000000000 [-]
	 SCS Same-Spin Energy      =      -0.2448214595639292 [Eh]
	 SCS Opposite-Spin Energy  =      -2.6775061166167982 [Eh]
	 SCS Correlation Energy    =      -2.9223275761807272 [Eh]
	 SCS Total Energy          =    -761.4448460703714545 [Eh]
	-----------------------------------------------------------

  Dipole Moment: [D]
     X:    -1.2127      Y:     2.6529      Z:    -0.8063     Total:     3.0263

*** Psi4 exiting successfully. Buy a developer a beer!
