                               Psi4 1.4a3.dev225

  ==> Input File <==

--------------------------------------------------------------------------
#psi4
#
memory 32 gb

molecule  {
0 1
  O       -1.3621950    -1.7118670    -1.0487160
  O        1.3250660    -1.5098260    -0.8661080
  O       -3.0202870    -0.6972320     0.8011600
  O        1.4000820    -0.3698310     1.7931610
  O       -3.3935320     1.8007080    -0.1346550
  O        2.6070010     1.5395500    -0.9938350
  O        3.6924620     0.1319130     0.4259740
  C       -0.8211920    -0.9649900     0.0477000
  C        0.4956150    -0.4174700    -0.4760140
  C       -1.8427190     0.0633310     0.5156670
  C        1.2861160     0.3473610     0.5837090
  C       -2.1087722     1.0694138    -0.5549958
  C        2.6663270     0.6479390     0.0251960
  H       -0.6001840    -1.6333830     0.8895000
  H        0.3094840     0.2426950    -1.3366810
  H       -1.4776870     0.5490530     1.4357690
  H        0.7848540     1.2951930     0.8109900
  H       -2.4256530     0.6242850    -1.4728150
  H       -1.3693410     1.8242450    -0.6894300
  H       -2.2436880    -1.9988170    -0.7384990
  H        0.7382740    -2.1149450    -1.3600910
  H       -3.7555350    -0.0560060     0.7240450
  H        2.1352240    -0.9985780     1.6549180
  H       -3.1588320     2.4130520     0.5846580
  H        3.5236120     1.6268920    -1.3298730
units angstrom
no_reorient  #important for SAPT in psi4, default
symmetry c1  #important for SAPT in psi4, default
}

set PROPERTIES_ORIGIN ["COM"]
properties('MP2/aug-cc-pvtz', properties = ['dipole'])
--------------------------------------------------------------------------

    Molecular point group: c1
  Charge       = 0
  Multiplicity = 1
  Basis Set: AUG-CC-PVTZ
    Blend: AUG-CC-PVTZ
  Basis Set: (AUG-CC-PVTZ AUX)
    Blend: AUG-CC-PVTZ-JKFIT

    Orbital Energies [Eh]
    ---------------------

    Doubly Occupied:

       1A    -20.632651     2A    -20.580629     3A    -20.577461
       4A    -20.576132     5A    -20.575028     6A    -20.572059
       7A    -20.566297     8A    -11.403169     9A    -11.319945
      10A    -11.306339    11A    -11.305118    12A    -11.302110
      13A    -11.296790    14A     -1.477507    15A     -1.406703
      16A     -1.393545    17A     -1.378875    18A     -1.366138
      19A     -1.356241    20A     -1.341886    21A     -1.086465
      22A     -1.035040    23A     -0.965265    24A     -0.890557
      25A     -0.832161    26A     -0.803827    27A     -0.758052
      28A     -0.737764    29A     -0.726879    30A     -0.715546
      31A     -0.708448    32A     -0.680875    33A     -0.675463
      34A     -0.651385    35A     -0.641096    36A     -0.637960
      37A     -0.624325    38A     -0.608516    39A     -0.590602
      40A     -0.581143    41A     -0.552430    42A     -0.549106
      43A     -0.541502    44A     -0.539372    45A     -0.528846
      46A     -0.504128    47A     -0.496888    48A     -0.485736
      49A     -0.472958    50A     -0.461356    51A     -0.457592
      52A     -0.446441

  @DF-RHF Final Energy:  -758.51350174918468

   => Energetics <=

    Nuclear Repulsion Energy =            916.0079420176233498
    One-Electron Energy =               -2863.5981910591845008
    Two-Electron Energy =                1189.0767472923762398
    Total Energy =                       -758.5135017491847975
  Basis Set: (AUG-CC-PVTZ AUX)
    Blend: AUG-CC-PVTZ-RI
    Molecular point group: c1

    Geometry (in Angstrom), charge = 0, multiplicity = 1:

       Center              X                  Y                   Z               Mass
    ------------   -----------------  -----------------  -----------------  -----------------
         O           -1.405433318807    -1.699999996297    -1.051230431518    15.994914619570
         O            1.281827681193    -1.497958996297    -0.868622431518    15.994914619570
         O           -3.063525318807    -0.685364996297     0.798645568482    15.994914619570
         O            1.356843681193    -0.357963996297     1.790646568482    15.994914619570
         O           -3.436770318807     1.812575003703    -0.137169431518    15.994914619570
         O            2.563762681193     1.551417003703    -0.996349431518    15.994914619570
         O            3.649223681193     0.143780003703     0.423459568482    15.994914619570
         C           -0.864430318807    -0.953122996297     0.045185568482    12.000000000000
         C            0.452376681193    -0.405602996297    -0.478528431518    12.000000000000
         C           -1.885957318807     0.075198003703     0.513152568482    12.000000000000
         C            1.242877681193     0.359228003703     0.581194568482    12.000000000000
         C           -2.152010518807     1.081280803703    -0.557510231518    12.000000000000
         C            2.623088681193     0.659806003703     0.022681568482    12.000000000000
         H           -0.643422318807    -1.621515996297     0.886985568482     1.007825032230
         H            0.266245681193     0.254562003703    -1.339195431518     1.007825032230
         H           -1.520925318807     0.560920003703     1.433254568482     1.007825032230
         H            0.741615681193     1.307060003703     0.808475568482     1.007825032230
         H           -2.468891318807     0.636152003703    -1.475329431518     1.007825032230
         H           -1.412579318807     1.836112003703    -0.691944431518     1.007825032230
         H           -2.286926318807    -1.986949996297    -0.741013431518     1.007825032230
         H            0.695035681193    -2.103077996297    -1.362605431518     1.007825032230
         H           -3.798773318807    -0.044138996297     0.721530568482     1.007825032230
         H            2.091985681193    -0.986710996297     1.652403568482     1.007825032230
         H           -3.202070318807     2.424919003703     0.582143568482     1.007825032230
         H            3.480373681193     1.638759003703    -1.332387431518     1.007825032230

  Basis Set: AUG-CC-PVTZ
    Blend: AUG-CC-PVTZ
  Basis Set: (AUG-CC-PVTZ AUX)
    Blend: AUG-CC-PVTZ-JKFIT
	 Reference Energy          =    -758.5135017491846838 [Eh]
	 Singles Energy            =      -0.0000000000000000 [Eh]
	 Same-Spin Energy          =      -0.7350326307369847 [Eh]
	 Opposite-Spin Energy      =      -2.2333182967832133 [Eh]
	 Correlation Energy        =      -2.9683509275201980 [Eh]
	 Total Energy              =    -761.4818526767048752 [Eh]

	 ================> DF-SCS-MP2 Energies <==================
	-----------------------------------------------------------
	 SCS Same-Spin Scale       =       0.3333333333333333 [-]
	 SCS Opposite-Spin Scale   =       1.2000000000000000 [-]
	 SCS Same-Spin Energy      =      -0.2450108769123282 [Eh]
	 SCS Opposite-Spin Energy  =      -2.6799819561398559 [Eh]
	 SCS Correlation Energy    =      -2.9249928330521842 [Eh]
	 SCS Total Energy          =    -761.4384945822368991 [Eh]
	-----------------------------------------------------------

  Dipole Moment: [D]
     X:    -0.9288      Y:     2.4732      Z:    -0.8713     Total:     2.7818

*** Psi4 exiting successfully. Buy a developer a beer!
