                               Psi4 1.4a3.dev225

  ==> Input File <==

--------------------------------------------------------------------------
#psi4
#
memory 32 gb

molecule  {
0 1
  O       -1.3621950    -1.7118670    -1.0487160
  O        1.3250660    -1.5098260    -0.8661080
  O       -3.0202870    -0.6972320     0.8011600
  O        1.4000820    -0.3698310     1.7931610
  O       -3.3935320     1.8007080    -0.1346550
  O        2.6070010     1.5395500    -0.9938350
  O        3.6924620     0.1319130     0.4259740
  C       -0.8211920    -0.9649900     0.0477000
  C        0.4956150    -0.4174700    -0.4760140
  C       -1.8427190     0.0633310     0.5156670
  C        1.2861160     0.3473610     0.5837090
  C       -2.1923660     1.1169960    -0.5276460
  C        2.6663270     0.6479390     0.0251960
  H       -0.6001840    -1.6333830     0.8895000
  H        0.3094840     0.2426950    -1.3366810
  H       -1.4776870     0.5490530     1.4357690
  H        0.8305879     1.2087152     0.7902535
  H       -2.4256530     0.6242850    -1.4728150
  H       -1.3693410     1.8242450    -0.6894300
  H       -2.2436880    -1.9988170    -0.7384990
  H        0.7382740    -2.1149450    -1.3600910
  H       -3.7555350    -0.0560060     0.7240450
  H        2.1352240    -0.9985780     1.6549180
  H       -3.1588320     2.4130520     0.5846580
  H        3.5236120     1.6268920    -1.3298730
units angstrom
no_reorient  #important for SAPT in psi4, default
symmetry c1  #important for SAPT in psi4, default
}

set PROPERTIES_ORIGIN ["COM"]
properties('MP2/aug-cc-pvtz', properties = ['dipole'])
--------------------------------------------------------------------------

    Molecular point group: c1
  Charge       = 0
  Multiplicity = 1
  Basis Set: AUG-CC-PVTZ
    Blend: AUG-CC-PVTZ
  Basis Set: (AUG-CC-PVTZ AUX)
    Blend: AUG-CC-PVTZ-JKFIT

    Orbital Energies [Eh]
    ---------------------

    Doubly Occupied:

       1A    -20.631704     2A    -20.592283     3A    -20.575535
       4A    -20.573482     5A    -20.573089     6A    -20.569903
       7A    -20.564691     8A    -11.401231     9A    -11.306222
      10A    -11.303647    11A    -11.302570    12A    -11.300762
      13A    -11.295827    14A     -1.476352    15A     -1.407848
      16A     -1.396134    17A     -1.383517    18A     -1.369437
      19A     -1.362299    20A     -1.350490    21A     -1.082864
      22A     -1.032035    23A     -0.962676    24A     -0.888545
      25A     -0.835303    26A     -0.807371    27A     -0.759742
      28A     -0.736438    29A     -0.726792    30A     -0.715573
      31A     -0.712666    32A     -0.683243    33A     -0.676529
      34A     -0.649762    35A     -0.644028    36A     -0.638932
      37A     -0.628773    38A     -0.608500    39A     -0.602853
      40A     -0.583281    41A     -0.554279    42A     -0.550273
      43A     -0.540396    44A     -0.534373    45A     -0.531964
      46A     -0.503569    47A     -0.495676    48A     -0.485596
      49A     -0.466406    50A     -0.459893    51A     -0.455515
      52A     -0.442780

  @DF-RHF Final Energy:  -758.51808101044276

   => Energetics <=

    Nuclear Repulsion Energy =            916.1704824466758055
    One-Electron Energy =               -2863.9098363502371285
    Two-Electron Energy =                1189.2212728931185666
    Total Energy =                       -758.5180810104427565
  Basis Set: (AUG-CC-PVTZ AUX)
    Blend: AUG-CC-PVTZ-RI
    Molecular point group: c1

    Geometry (in Angstrom), charge = 0, multiplicity = 1:

       Center              X                  Y                   Z               Mass
    ------------   -----------------  -----------------  -----------------  -----------------
         O           -1.400551945167    -1.702467792364    -1.052797816485    15.994914619570
         O            1.286709054833    -1.500426792364    -0.870189816485    15.994914619570
         O           -3.058643945167    -0.687832792364     0.797078183515    15.994914619570
         O            1.361725054833    -0.360431792364     1.789079183515    15.994914619570
         O           -3.431888945167     1.810107207636    -0.138736816485    15.994914619570
         O            2.568644054833     1.548949207636    -0.997916816485    15.994914619570
         O            3.654105054833     0.141312207636     0.421892183515    15.994914619570
         C           -0.859548945167    -0.955590792364     0.043618183515    12.000000000000
         C            0.457258054833    -0.408070792364    -0.480095816485    12.000000000000
         C           -1.881075945167     0.072730207636     0.511585183515    12.000000000000
         C            1.247759054833     0.356760207636     0.579627183515    12.000000000000
         C           -2.230722945167     1.126395207636    -0.531727816485    12.000000000000
         C            2.627970054833     0.657338207636     0.021114183515    12.000000000000
         H           -0.638540945167    -1.623983792364     0.885418183515     1.007825032230
         H            0.271127054833     0.252094207636    -1.340762816485     1.007825032230
         H           -1.516043945167     0.558452207636     1.431687183515     1.007825032230
         H            0.792230954833     1.218114407636     0.786171683515     1.007825032230
         H           -2.464009945167     0.633684207636    -1.476896816485     1.007825032230
         H           -1.407697945167     1.833644207636    -0.693511816485     1.007825032230
         H           -2.282044945167    -1.989417792364    -0.742580816485     1.007825032230
         H            0.699917054833    -2.105545792364    -1.364172816485     1.007825032230
         H           -3.793891945167    -0.046606792364     0.719963183515     1.007825032230
         H            2.096867054833    -0.989178792364     1.650836183515     1.007825032230
         H           -3.197188945167     2.422451207636     0.580576183515     1.007825032230
         H            3.485255054833     1.636291207636    -1.333954816485     1.007825032230

  Basis Set: AUG-CC-PVTZ
    Blend: AUG-CC-PVTZ
  Basis Set: (AUG-CC-PVTZ AUX)
    Blend: AUG-CC-PVTZ-JKFIT
	 Reference Energy          =    -758.5180810104427565 [Eh]
	 Singles Energy            =      -0.0000000000000000 [Eh]
	 Same-Spin Energy          =      -0.7341310466293365 [Eh]
	 Opposite-Spin Energy      =      -2.2303687796286806 [Eh]
	 Correlation Energy        =      -2.9644998262580171 [Eh]
	 Total Energy              =    -761.4825808367007767 [Eh]

	 ================> DF-SCS-MP2 Energies <==================
	-----------------------------------------------------------
	 SCS Same-Spin Scale       =       0.3333333333333333 [-]
	 SCS Opposite-Spin Scale   =       1.2000000000000000 [-]
	 SCS Same-Spin Energy      =      -0.2447103488764455 [Eh]
	 SCS Opposite-Spin Energy  =      -2.6764425355544166 [Eh]
	 SCS Correlation Energy    =      -2.9211528844308621 [Eh]
	 SCS Total Energy          =    -761.4392338948736096 [Eh]
	-----------------------------------------------------------

  Dipole Moment: [D]
     X:    -1.2332      Y:     2.6993      Z:    -0.8170     Total:     3.0781

*** Psi4 exiting successfully. Buy a developer a beer!
