                               Psi4 1.4a3.dev225

  ==> Input File <==

--------------------------------------------------------------------------
#psi4
#
memory 32 gb

molecule  {
0 1
  O       -1.3621950    -1.7118670    -1.0487160
  O        1.3250660    -1.5098260    -0.8661080
  O       -3.0202870    -0.6972320     0.8011600
  O        1.4000820    -0.3698310     1.7931610
  O       -3.3935320     1.8007080    -0.1346550
  O        2.6070010     1.5395500    -0.9938350
  O        3.6924620     0.1319130     0.4259740
  C       -0.8211920    -0.9649900     0.0477000
  C        0.4956150    -0.4174700    -0.4760140
  C       -1.8427190     0.0633310     0.5156670
  C        1.2861160     0.3473610     0.5837090
  C       -2.1923660     1.1169960    -0.5276460
  C        2.6663270     0.6479390     0.0251960
  H       -0.5901141    -1.6638373     0.9278553
  H        0.3094840     0.2426950    -1.3366810
  H       -1.4776870     0.5490530     1.4357690
  H        0.7848540     1.2951930     0.8109900
  H       -2.4256530     0.6242850    -1.4728150
  H       -1.3693410     1.8242450    -0.6894300
  H       -2.2436880    -1.9988170    -0.7384990
  H        0.7382740    -2.1149450    -1.3600910
  H       -3.7555350    -0.0560060     0.7240450
  H        2.1352240    -0.9985780     1.6549180
  H       -3.1588320     2.4130520     0.5846580
  H        3.5236120     1.6268920    -1.3298730
units angstrom
no_reorient  #important for SAPT in psi4, default
symmetry c1  #important for SAPT in psi4, default
}

set PROPERTIES_ORIGIN ["COM"]
properties('MP2/aug-cc-pvtz', properties = ['dipole'])
--------------------------------------------------------------------------

    Molecular point group: c1
  Charge       = 0
  Multiplicity = 1
  Basis Set: AUG-CC-PVTZ
    Blend: AUG-CC-PVTZ
  Basis Set: (AUG-CC-PVTZ AUX)
    Blend: AUG-CC-PVTZ-JKFIT

    Orbital Energies [Eh]
    ---------------------

    Doubly Occupied:

       1A    -20.631471     2A    -20.592244     3A    -20.575264
       4A    -20.574487     5A    -20.573811     6A    -20.570353
       7A    -20.565081     8A    -11.401888     9A    -11.318246
      10A    -11.304748    11A    -11.302647    12A    -11.301199
      13A    -11.300693    14A     -1.476298    15A     -1.407826
      16A     -1.396311    17A     -1.383759    18A     -1.369585
      19A     -1.362475    20A     -1.350761    21A     -1.079788
      22A     -1.028132    23A     -0.959811    24A     -0.887766
      25A     -0.830279    26A     -0.801145    27A     -0.756576
      28A     -0.736355    29A     -0.725495    30A     -0.715220
      31A     -0.711047    32A     -0.683139    33A     -0.676202
      34A     -0.649854    35A     -0.640298    36A     -0.636730
      37A     -0.627291    38A     -0.607044    39A     -0.600793
      40A     -0.580564    41A     -0.552370    42A     -0.550175
      43A     -0.539216    44A     -0.534239    45A     -0.530861
      46A     -0.503072    47A     -0.495719    48A     -0.484531
      49A     -0.466327    50A     -0.459533    51A     -0.455553
      52A     -0.440517

  @DF-RHF Final Energy:  -758.52109674389965

   => Energetics <=

    Nuclear Repulsion Energy =            915.2977314671654767
    One-Electron Energy =               -2862.2280812411527222
    Two-Electron Energy =                1188.4092530300877115
    Total Energy =                       -758.5210967438995340
  Basis Set: (AUG-CC-PVTZ AUX)
    Blend: AUG-CC-PVTZ-RI
    Molecular point group: c1

    Geometry (in Angstrom), charge = 0, multiplicity = 1:

       Center              X                  Y                   Z               Mass
    ------------   -----------------  -----------------  -----------------  -----------------
         O           -1.400368616680    -1.702755777544    -1.053101574063    15.994914619570
         O            1.286892383320    -1.500714777544    -0.870493574063    15.994914619570
         O           -3.058460616680    -0.688120777544     0.796774425937    15.994914619570
         O            1.361908383320    -0.360719777544     1.788775425937    15.994914619570
         O           -3.431705616680     1.809819222456    -0.139040574063    15.994914619570
         O            2.568827383320     1.548661222456    -0.998220574063    15.994914619570
         O            3.654288383320     0.141024222456     0.421588425937    15.994914619570
         C           -0.859365616680    -0.955878777544     0.043314425937    12.000000000000
         C            0.457441383320    -0.408358777544    -0.480399574063    12.000000000000
         C           -1.880892616680     0.072442222456     0.511281425937    12.000000000000
         C            1.247942383320     0.356472222456     0.579323425937    12.000000000000
         C           -2.230539616680     1.126107222456    -0.532031574063    12.000000000000
         C            2.628153383320     0.657050222456     0.020810425937    12.000000000000
         H           -0.628287716680    -1.654726077544     0.923469725937     1.007825032230
         H            0.271310383320     0.251806222456    -1.341066574063     1.007825032230
         H           -1.515860616680     0.558164222456     1.431383425937     1.007825032230
         H            0.746680383320     1.304304222456     0.806604425937     1.007825032230
         H           -2.463826616680     0.633396222456    -1.477200574063     1.007825032230
         H           -1.407514616680     1.833356222456    -0.693815574063     1.007825032230
         H           -2.281861616680    -1.989705777544    -0.742884574063     1.007825032230
         H            0.700100383320    -2.105833777544    -1.364476574063     1.007825032230
         H           -3.793708616680    -0.046894777544     0.719659425937     1.007825032230
         H            2.097050383320    -0.989466777544     1.650532425937     1.007825032230
         H           -3.197005616680     2.422163222456     0.580272425937     1.007825032230
         H            3.485438383320     1.636003222456    -1.334258574063     1.007825032230

  Basis Set: AUG-CC-PVTZ
    Blend: AUG-CC-PVTZ
  Basis Set: (AUG-CC-PVTZ AUX)
    Blend: AUG-CC-PVTZ-JKFIT
	 Reference Energy          =    -758.5210967438996477 [Eh]
	 Singles Energy            =      -0.0000000000000000 [Eh]
	 Same-Spin Energy          =      -0.7344854156727000 [Eh]
	 Opposite-Spin Energy      =      -2.2315453066931963 [Eh]
	 Correlation Energy        =      -2.9660307223658964 [Eh]
	 Total Energy              =    -761.4871274662655196 [Eh]

	 ================> DF-SCS-MP2 Energies <==================
	-----------------------------------------------------------
	 SCS Same-Spin Scale       =       0.3333333333333333 [-]
	 SCS Opposite-Spin Scale   =       1.2000000000000000 [-]
	 SCS Same-Spin Energy      =      -0.2448284718909000 [Eh]
	 SCS Opposite-Spin Energy  =      -2.6778543680318356 [Eh]
	 SCS Correlation Energy    =      -2.9226828399227358 [Eh]
	 SCS Total Energy          =    -761.4437795838223337 [Eh]
	-----------------------------------------------------------

  Dipole Moment: [D]
     X:    -1.2208      Y:     2.6833      Z:    -0.8204     Total:     3.0600

*** Psi4 exiting successfully. Buy a developer a beer!
