                               Psi4 1.4a3.dev225

  ==> Input File <==

--------------------------------------------------------------------------
#psi4
#
memory 32 gb

molecule  {
0 1
  O       -1.3621950    -1.7118670    -1.0487160
  O        1.3250660    -1.5098260    -0.8661080
  O       -3.0202870    -0.6972320     0.8011600
  O        1.4000820    -0.3698310     1.7931610
  O       -3.3935320     1.8007080    -0.1346550
  O        2.6070010     1.5395500    -0.9938350
  O        3.7034684     0.1431775     0.4117350
  C       -0.8211920    -0.9649900     0.0477000
  C        0.4956150    -0.4174700    -0.4760140
  C       -1.8427190     0.0633310     0.5156670
  C        1.2861160     0.3473610     0.5837090
  C       -2.1923660     1.1169960    -0.5276460
  C        2.6663270     0.6479390     0.0251960
  H       -0.6001840    -1.6333830     0.8895000
  H        0.3094840     0.2426950    -1.3366810
  H       -1.4776870     0.5490530     1.4357690
  H        0.7848540     1.2951930     0.8109900
  H       -2.4256530     0.6242850    -1.4728150
  H       -1.3693410     1.8242450    -0.6894300
  H       -2.2436880    -1.9988170    -0.7384990
  H        0.7382740    -2.1149450    -1.3600910
  H       -3.7555350    -0.0560060     0.7240450
  H        2.1352240    -0.9985780     1.6549180
  H       -3.1588320     2.4130520     0.5846580
  H        3.5236120     1.6268920    -1.3298730
units angstrom
no_reorient  #important for SAPT in psi4, default
symmetry c1  #important for SAPT in psi4, default
}

set PROPERTIES_ORIGIN ["COM"]
properties('MP2/aug-cc-pvtz', properties = ['dipole'])
--------------------------------------------------------------------------

    Molecular point group: c1
  Charge       = 0
  Multiplicity = 1
  Basis Set: AUG-CC-PVTZ
    Blend: AUG-CC-PVTZ
  Basis Set: (AUG-CC-PVTZ AUX)
    Blend: AUG-CC-PVTZ-JKFIT

    Orbital Energies [Eh]
    ---------------------

    Doubly Occupied:

       1A    -20.629703     2A    -20.592214     3A    -20.575720
       4A    -20.575515     5A    -20.573387     6A    -20.570749
       7A    -20.564679     8A    -11.401677     9A    -11.319356
      10A    -11.304791    11A    -11.302505    12A    -11.300631
      13A    -11.296194    14A     -1.476115    15A     -1.408054
      16A     -1.396542    17A     -1.383572    18A     -1.369250
      19A     -1.362573    20A     -1.350901    21A     -1.080844
      22A     -1.028637    23A     -0.961659    24A     -0.888453
      25A     -0.830535    26A     -0.803086    27A     -0.758229
      28A     -0.736493    29A     -0.725457    30A     -0.715465
      31A     -0.712311    32A     -0.683309    33A     -0.676694
      34A     -0.649837    35A     -0.640351    36A     -0.637088
      37A     -0.628745    38A     -0.607168    39A     -0.602170
      40A     -0.581359    41A     -0.553601    42A     -0.550335
      43A     -0.540214    44A     -0.534508    45A     -0.531396
      46A     -0.503523    47A     -0.494884    48A     -0.484811
      49A     -0.466699    50A     -0.460302    51A     -0.455926
      52A     -0.443201

  @DF-RHF Final Energy:  -758.52366203233964

   => Energetics <=

    Nuclear Repulsion Energy =            915.4045667651555505
    One-Electron Energy =               -2862.4136232113887672
    Two-Electron Energy =                1188.4853944138935731
    Total Energy =                       -758.5236620323396437
  Basis Set: (AUG-CC-PVTZ AUX)
    Blend: AUG-CC-PVTZ-RI
    Molecular point group: c1

    Geometry (in Angstrom), charge = 0, multiplicity = 1:

       Center              X                  Y                   Z               Mass
    ------------   -----------------  -----------------  -----------------  -----------------
         O           -1.401214781972    -1.703831311295    -1.051742758766    15.994914619570
         O            1.286046218028    -1.501790311295    -0.869134758766    15.994914619570
         O           -3.059306781972    -0.689196311295     0.798133241234    15.994914619570
         O            1.361062218028    -0.361795311295     1.790134241234    15.994914619570
         O           -3.432551781972     1.808743688705    -0.137681758766    15.994914619570
         O            2.567981218028     1.547585688705    -0.996861758766    15.994914619570
         O            3.664448618028     0.151213188705     0.408708241234    15.994914619570
         C           -0.860211781972    -0.956954311295     0.044673241234    12.000000000000
         C            0.456595218028    -0.409434311295    -0.479040758766    12.000000000000
         C           -1.881738781972     0.071366688705     0.512640241234    12.000000000000
         C            1.247096218028     0.355396688705     0.580682241234    12.000000000000
         C           -2.231385781972     1.125031688705    -0.530672758766    12.000000000000
         C            2.627307218028     0.655974688705     0.022169241234    12.000000000000
         H           -0.639203781972    -1.625347311295     0.886473241234     1.007825032230
         H            0.270464218028     0.250730688705    -1.339707758766     1.007825032230
         H           -1.516706781972     0.557088688705     1.432742241234     1.007825032230
         H            0.745834218028     1.303228688705     0.807963241234     1.007825032230
         H           -2.464672781972     0.632320688705    -1.475841758766     1.007825032230
         H           -1.408360781972     1.832280688705    -0.692456758766     1.007825032230
         H           -2.282707781972    -1.990781311295    -0.741525758766     1.007825032230
         H            0.699254218028    -2.106909311295    -1.363117758766     1.007825032230
         H           -3.794554781972    -0.047970311295     0.721018241234     1.007825032230
         H            2.096204218028    -0.990542311295     1.651891241234     1.007825032230
         H           -3.197851781972     2.421087688705     0.581631241234     1.007825032230
         H            3.484592218028     1.634927688705    -1.332899758766     1.007825032230

  Basis Set: AUG-CC-PVTZ
    Blend: AUG-CC-PVTZ
  Basis Set: (AUG-CC-PVTZ AUX)
    Blend: AUG-CC-PVTZ-JKFIT
	 Reference Energy          =    -758.5236620323396437 [Eh]
	 Singles Energy            =      -0.0000000000000000 [Eh]
	 Same-Spin Energy          =      -0.7342419817013870 [Eh]
	 Opposite-Spin Energy      =      -2.2308902568431845 [Eh]
	 Correlation Energy        =      -2.9651322385445713 [Eh]
	 Total Energy              =    -761.4887942708842274 [Eh]

	 ================> DF-SCS-MP2 Energies <==================
	-----------------------------------------------------------
	 SCS Same-Spin Scale       =       0.3333333333333333 [-]
	 SCS Opposite-Spin Scale   =       1.2000000000000000 [-]
	 SCS Same-Spin Energy      =      -0.2447473272337957 [Eh]
	 SCS Opposite-Spin Energy  =      -2.6770683082118212 [Eh]
	 SCS Correlation Energy    =      -2.9218156354456166 [Eh]
	 SCS Total Energy          =    -761.4454776677852124 [Eh]
	-----------------------------------------------------------

  Dipole Moment: [D]
     X:    -1.2632      Y:     2.6428      Z:    -0.7681     Total:     3.0282

*** Psi4 exiting successfully. Buy a developer a beer!
