                               Psi4 1.4a3.dev225

  ==> Input File <==

--------------------------------------------------------------------------
#psi4
#
memory 32 gb

molecule  {
0 1
  O       -1.3621950    -1.7118670    -1.0487160
  O        1.3250660    -1.5098260    -0.8661080
  O       -3.0202870    -0.6972320     0.8011600
  O        1.4000820    -0.3698310     1.7931610
  O       -3.3935320     1.8007080    -0.1346550
  O        2.6070010     1.5395500    -0.9938350
  O        3.6924620     0.1319130     0.4259740
  C       -0.8211920    -0.9649900     0.0477000
  C        0.4956150    -0.4174700    -0.4760140
  C       -1.8427190     0.0633310     0.5156670
  C        1.2861160     0.3473610     0.5837090
  C       -2.1808907     1.0824149    -0.4934047
  C        2.6663270     0.6479390     0.0251960
  H       -0.6001840    -1.6333830     0.8895000
  H        0.3094840     0.2426950    -1.3366810
  H       -1.4776870     0.5490530     1.4357690
  H        0.7848540     1.2951930     0.8109900
  H       -2.4256530     0.6242850    -1.4728150
  H       -1.3693410     1.8242450    -0.6894300
  H       -2.2436880    -1.9988170    -0.7384990
  H        0.7382740    -2.1149450    -1.3600910
  H       -3.7555350    -0.0560060     0.7240450
  H        2.1352240    -0.9985780     1.6549180
  H       -3.1588320     2.4130520     0.5846580
  H        3.5236120     1.6268920    -1.3298730
units angstrom
no_reorient  #important for SAPT in psi4, default
symmetry c1  #important for SAPT in psi4, default
}

set PROPERTIES_ORIGIN ["COM"]
properties('MP2/aug-cc-pvtz', properties = ['dipole'])
--------------------------------------------------------------------------

    Molecular point group: c1
  Charge       = 0
  Multiplicity = 1
  Basis Set: AUG-CC-PVTZ
    Blend: AUG-CC-PVTZ
  Basis Set: (AUG-CC-PVTZ AUX)
    Blend: AUG-CC-PVTZ-JKFIT

    Orbital Energies [Eh]
    ---------------------

    Doubly Occupied:

       1A    -20.631626     2A    -20.590706     3A    -20.576051
       4A    -20.575172     5A    -20.573897     6A    -20.570930
       7A    -20.565334     8A    -11.402151     9A    -11.318592
      10A    -11.304920    11A    -11.302152    12A    -11.301283
      13A    -11.297340    14A     -1.476498    15A     -1.408307
      16A     -1.395912    17A     -1.382701    18A     -1.368637
      19A     -1.362311    20A     -1.351003    21A     -1.084113
      22A     -1.033299    23A     -0.963531    24A     -0.886941
      25A     -0.830938    26A     -0.803225    27A     -0.759074
      28A     -0.737249    29A     -0.727140    30A     -0.713763
      31A     -0.710349    32A     -0.685581    33A     -0.676662
      34A     -0.650383    35A     -0.641331    36A     -0.637335
      37A     -0.629253    38A     -0.607501    39A     -0.595903
      40A     -0.580779    41A     -0.553858    42A     -0.551475
      43A     -0.539503    44A     -0.532038    45A     -0.530786
      46A     -0.499711    47A     -0.495936    48A     -0.485005
      49A     -0.470274    50A     -0.462104    51A     -0.456323
      52A     -0.446419

  @DF-RHF Final Energy:  -758.52003998325551

   => Energetics <=

    Nuclear Repulsion Energy =            916.3869481318689623
    One-Electron Energy =               -2864.3473703386589477
    Two-Electron Energy =                1189.4403822235344705
    Total Energy =                       -758.5200399832556286
  Basis Set: (AUG-CC-PVTZ AUX)
    Blend: AUG-CC-PVTZ-RI
    Molecular point group: c1

    Geometry (in Angstrom), charge = 0, multiplicity = 1:

       Center              X                  Y                   Z               Mass
    ------------   -----------------  -----------------  -----------------  -----------------
         O           -1.401019213472    -1.700795745305    -1.055000193827    15.994914619570
         O            1.286241786528    -1.498754745305    -0.872392193827    15.994914619570
         O           -3.059111213472    -0.686160745305     0.794875806173    15.994914619570
         O            1.361257786528    -0.358759745305     1.786876806173    15.994914619570
         O           -3.432356213472     1.811779254695    -0.140939193827    15.994914619570
         O            2.568176786528     1.550621254695    -1.000119193827    15.994914619570
         O            3.653637786528     0.142984254695     0.419689806173    15.994914619570
         C           -0.860016213472    -0.953918745305     0.041415806173    12.000000000000
         C            0.456790786528    -0.406398745305    -0.482298193827    12.000000000000
         C           -1.881543213472     0.074402254695     0.509382806173    12.000000000000
         C            1.247291786528     0.358432254695     0.577424806173    12.000000000000
         C           -2.219714913472     1.093486154695    -0.499688893827    12.000000000000
         C            2.627502786528     0.659010254695     0.018911806173    12.000000000000
         H           -0.639008213472    -1.622311745305     0.883215806173     1.007825032230
         H            0.270659786528     0.253766254695    -1.342965193827     1.007825032230
         H           -1.516511213472     0.560124254695     1.429484806173     1.007825032230
         H            0.746029786528     1.306264254695     0.804705806173     1.007825032230
         H           -2.464477213472     0.635356254695    -1.479099193827     1.007825032230
         H           -1.408165213472     1.835316254695    -0.695714193827     1.007825032230
         H           -2.282512213472    -1.987745745305    -0.744783193827     1.007825032230
         H            0.699449786528    -2.103873745305    -1.366375193827     1.007825032230
         H           -3.794359213472    -0.044934745305     0.717760806173     1.007825032230
         H            2.096399786528    -0.987506745305     1.648633806173     1.007825032230
         H           -3.197656213472     2.424123254695     0.578373806173     1.007825032230
         H            3.484787786528     1.637963254695    -1.336157193827     1.007825032230

  Basis Set: AUG-CC-PVTZ
    Blend: AUG-CC-PVTZ
  Basis Set: (AUG-CC-PVTZ AUX)
    Blend: AUG-CC-PVTZ-JKFIT
	 Reference Energy          =    -758.5200399832555149 [Eh]
	 Singles Energy            =      -0.0000000000000000 [Eh]
	 Same-Spin Energy          =      -0.7348410715303511 [Eh]
	 Opposite-Spin Energy      =      -2.2318094997381261 [Eh]
	 Correlation Energy        =      -2.9666505712684774 [Eh]
	 Total Energy              =    -761.4866905545239888 [Eh]

	 ================> DF-SCS-MP2 Energies <==================
	-----------------------------------------------------------
	 SCS Same-Spin Scale       =       0.3333333333333333 [-]
	 SCS Opposite-Spin Scale   =       1.2000000000000000 [-]
	 SCS Same-Spin Energy      =      -0.2449470238434504 [Eh]
	 SCS Opposite-Spin Energy  =      -2.6781713996857515 [Eh]
	 SCS Correlation Energy    =      -2.9231184235292016 [Eh]
	 SCS Total Energy          =    -761.4431584067847325 [Eh]
	-----------------------------------------------------------

  Dipole Moment: [D]
     X:    -1.1529      Y:     2.6002      Z:    -0.7899     Total:     2.9520

*** Psi4 exiting successfully. Buy a developer a beer!
