                               Psi4 1.4a3.dev225

  ==> Input File <==

--------------------------------------------------------------------------
#psi4
#
memory 32 gb

molecule  {
0 1
  O       -1.3621950    -1.7118670    -1.0487160
  O        1.3250660    -1.5098260    -0.8661080
  O       -3.0202870    -0.6972320     0.8011600
  O        1.4000820    -0.3698310     1.7931610
  O       -3.3935320     1.8007080    -0.1346550
  O        2.6070010     1.5395500    -0.9938350
  O        3.6924620     0.1319130     0.4259740
  C       -0.8211920    -0.9649900     0.0477000
  C        0.4956150    -0.4174700    -0.4760140
  C       -1.8427190     0.0633310     0.5156670
  C        1.2861160     0.3473610     0.5837090
  C       -2.1923660     1.1169960    -0.5276460
  C        2.6663270     0.6479390     0.0251960
  H       -0.6001840    -1.6333830     0.8895000
  H        0.3179403     0.2127025    -1.2975793
  H       -1.4776870     0.5490530     1.4357690
  H        0.7848540     1.2951930     0.8109900
  H       -2.4256530     0.6242850    -1.4728150
  H       -1.3693410     1.8242450    -0.6894300
  H       -2.2436880    -1.9988170    -0.7384990
  H        0.7382740    -2.1149450    -1.3600910
  H       -3.7555350    -0.0560060     0.7240450
  H        2.1352240    -0.9985780     1.6549180
  H       -3.1588320     2.4130520     0.5846580
  H        3.5236120     1.6268920    -1.3298730
units angstrom
no_reorient  #important for SAPT in psi4, default
symmetry c1  #important for SAPT in psi4, default
}

set PROPERTIES_ORIGIN ["COM"]
properties('MP2/aug-cc-pvtz', properties = ['dipole'])
--------------------------------------------------------------------------

    Molecular point group: c1
  Charge       = 0
  Multiplicity = 1
  Basis Set: AUG-CC-PVTZ
    Blend: AUG-CC-PVTZ
  Basis Set: (AUG-CC-PVTZ AUX)
    Blend: AUG-CC-PVTZ-JKFIT

    Orbital Energies [Eh]
    ---------------------

    Doubly Occupied:

       1A    -20.631650     2A    -20.592268     3A    -20.575304
       4A    -20.574415     5A    -20.573095     6A    -20.569522
       7A    -20.565070     8A    -11.401879     9A    -11.317886
      10A    -11.302259    11A    -11.300712    12A    -11.298448
      13A    -11.295353    14A     -1.476397    15A     -1.407814
      16A     -1.396232    17A     -1.383668    18A     -1.369504
      19A     -1.362402    20A     -1.350454    21A     -1.081645
      22A     -1.028538    23A     -0.961730    24A     -0.890476
      25A     -0.830653    26A     -0.804913    27A     -0.758862
      28A     -0.736638    29A     -0.727083    30A     -0.715732
      31A     -0.714020    32A     -0.683655    33A     -0.676483
      34A     -0.650011    35A     -0.640781    36A     -0.636799
      37A     -0.629255    38A     -0.607247    39A     -0.601998
      40A     -0.582405    41A     -0.553305    42A     -0.550151
      43A     -0.539560    44A     -0.534347    45A     -0.531389
      46A     -0.503568    47A     -0.495746    48A     -0.484359
      49A     -0.467733    50A     -0.459886    51A     -0.456413
      52A     -0.443018

  @DF-RHF Final Energy:  -758.52304464812028

   => Energetics <=

    Nuclear Repulsion Energy =            915.8754486969339723
    One-Electron Energy =               -2863.3515218582188027
    Two-Electron Energy =                1188.9530285131645542
    Total Energy =                       -758.5230446481202762
  Basis Set: (AUG-CC-PVTZ AUX)
    Blend: AUG-CC-PVTZ-RI
    Molecular point group: c1

    Geometry (in Angstrom), charge = 0, multiplicity = 1:

       Center              X                  Y                   Z               Mass
    ------------   -----------------  -----------------  -----------------  -----------------
         O           -1.400360322074    -1.702758151397    -1.053105410884    15.994914619570
         O            1.286900677926    -1.500717151397    -0.870497410884    15.994914619570
         O           -3.058452322074    -0.688123151397     0.796770589116    15.994914619570
         O            1.361916677926    -0.360722151397     1.788771589116    15.994914619570
         O           -3.431697322074     1.809816848603    -0.139044410884    15.994914619570
         O            2.568835677926     1.548658848603    -0.998224410884    15.994914619570
         O            3.654296677926     0.141021848603     0.421584589116    15.994914619570
         C           -0.859357322074    -0.955881151397     0.043310589116    12.000000000000
         C            0.457449677926    -0.408361151397    -0.480403410884    12.000000000000
         C           -1.880884322074     0.072439848603     0.511277589116    12.000000000000
         C            1.247950677926     0.356469848603     0.579319589116    12.000000000000
         C           -2.230531322074     1.126104848603    -0.532035410884    12.000000000000
         C            2.628161677926     0.657047848603     0.020806589116    12.000000000000
         H           -0.638349322074    -1.624274151397     0.885110589116     1.007825032230
         H            0.279774977926     0.221811348603    -1.301968710884     1.007825032230
         H           -1.515852322074     0.558161848603     1.431379589116     1.007825032230
         H            0.746688677926     1.304301848603     0.806600589116     1.007825032230
         H           -2.463818322074     0.633393848603    -1.477204410884     1.007825032230
         H           -1.407506322074     1.833353848603    -0.693819410884     1.007825032230
         H           -2.281853322074    -1.989708151397    -0.742888410884     1.007825032230
         H            0.700108677926    -2.105836151397    -1.364480410884     1.007825032230
         H           -3.793700322074    -0.046897151397     0.719655589116     1.007825032230
         H            2.097058677926    -0.989469151397     1.650528589116     1.007825032230
         H           -3.196997322074     2.422160848603     0.580268589116     1.007825032230
         H            3.485446677926     1.636000848603    -1.334262410884     1.007825032230

  Basis Set: AUG-CC-PVTZ
    Blend: AUG-CC-PVTZ
  Basis Set: (AUG-CC-PVTZ AUX)
    Blend: AUG-CC-PVTZ-JKFIT
	 Reference Energy          =    -758.5230446481202762 [Eh]
	 Singles Energy            =      -0.0000000000000000 [Eh]
	 Same-Spin Energy          =      -0.7341653147715163 [Eh]
	 Opposite-Spin Energy      =      -2.2305486037154494 [Eh]
	 Correlation Energy        =      -2.9647139184869657 [Eh]
	 Total Energy              =    -761.4877585666072264 [Eh]

	 ================> DF-SCS-MP2 Energies <==================
	-----------------------------------------------------------
	 SCS Same-Spin Scale       =       0.3333333333333333 [-]
	 SCS Opposite-Spin Scale   =       1.2000000000000000 [-]
	 SCS Same-Spin Energy      =      -0.2447217715905054 [Eh]
	 SCS Opposite-Spin Energy  =      -2.6766583244585394 [Eh]
	 SCS Correlation Energy    =      -2.9213800960490448 [Eh]
	 SCS Total Energy          =    -761.4444247441692823 [Eh]
	-----------------------------------------------------------

  Dipole Moment: [D]
     X:    -1.2272      Y:     2.6995      Z:    -0.8140     Total:     3.0750

*** Psi4 exiting successfully. Buy a developer a beer!
