                               Psi4 1.4a3.dev225

  ==> Input File <==

--------------------------------------------------------------------------
#psi4
#
memory 32 gb

molecule  {
0 1
  O       -1.3621950    -1.7118670    -1.0487160
  O        1.3250660    -1.5098260    -0.8661080
  O       -3.0202870    -0.6972320     0.8011600
  O        1.4000820    -0.3698310     1.7931610
  O       -3.3935320     1.8007080    -0.1346550
  O        2.6070010     1.5395500    -0.9938350
  O        3.6924620     0.1319130     0.4259740
  C       -0.8211920    -0.9649900     0.0477000
  C        0.4956150    -0.4174700    -0.4760140
  C       -1.8427190     0.0633310     0.5156670
  C        1.2861160     0.3473610     0.5837090
  C       -2.1923660     1.1169960    -0.5276460
  C        2.7085029     0.6267295     0.0416687
  H       -0.6001840    -1.6333830     0.8895000
  H        0.3094840     0.2426950    -1.3366810
  H       -1.4776870     0.5490530     1.4357690
  H        0.7848540     1.2951930     0.8109900
  H       -2.4256530     0.6242850    -1.4728150
  H       -1.3693410     1.8242450    -0.6894300
  H       -2.2436880    -1.9988170    -0.7384990
  H        0.7382740    -2.1149450    -1.3600910
  H       -3.7555350    -0.0560060     0.7240450
  H        2.1352240    -0.9985780     1.6549180
  H       -3.1588320     2.4130520     0.5846580
  H        3.5236120     1.6268920    -1.3298730
units angstrom
no_reorient  #important for SAPT in psi4, default
symmetry c1  #important for SAPT in psi4, default
}

set PROPERTIES_ORIGIN ["COM"]
properties('MP2/aug-cc-pvtz', properties = ['dipole'])
--------------------------------------------------------------------------

    Molecular point group: c1
  Charge       = 0
  Multiplicity = 1
  Basis Set: AUG-CC-PVTZ
    Blend: AUG-CC-PVTZ
  Basis Set: (AUG-CC-PVTZ AUX)
    Blend: AUG-CC-PVTZ-JKFIT

    Orbital Energies [Eh]
    ---------------------

    Doubly Occupied:

       1A    -20.622509     2A    -20.591166     3A    -20.574477
       4A    -20.574197     5A    -20.573645     6A    -20.572179
       7A    -20.569512     8A    -11.397264     9A    -11.316547
      10A    -11.302142    11A    -11.301284    12A    -11.299383
      13A    -11.294717    14A     -1.483473    15A     -1.406706
      16A     -1.395128    17A     -1.389518    18A     -1.377122
      19A     -1.364365    20A     -1.349752    21A     -1.077466
      22A     -1.022424    23A     -0.957132    24A     -0.884654
      25A     -0.823142    26A     -0.800172    27A     -0.756068
      28A     -0.734738    29A     -0.727458    30A     -0.714322
      31A     -0.713668    32A     -0.682623    33A     -0.675902
      34A     -0.651142    35A     -0.641012    36A     -0.635830
      37A     -0.627662    38A     -0.612503    39A     -0.600548
      40A     -0.579806    41A     -0.554403    42A     -0.549250
      43A     -0.539362    44A     -0.533445    45A     -0.531174
      46A     -0.511061    47A     -0.502273    48A     -0.486446
      49A     -0.465436    50A     -0.458057    51A     -0.453726
      52A     -0.440372

  @DF-RHF Final Energy:  -758.52300035983012

   => Energetics <=

    Nuclear Repulsion Energy =            915.4528209088964559
    One-Electron Energy =               -2862.5549208198440283
    Two-Electron Energy =                1188.5790995511174515
    Total Energy =                       -758.5230003598301209
  Basis Set: (AUG-CC-PVTZ AUX)
    Blend: AUG-CC-PVTZ-RI
    Molecular point group: c1

    Geometry (in Angstrom), charge = 0, multiplicity = 1:

       Center              X                  Y                   Z               Mass
    ------------   -----------------  -----------------  -----------------  -----------------
         O           -1.402898283090    -1.701614171242    -1.053912643864    15.994914619570
         O            1.284362716910    -1.499573171242    -0.871304643864    15.994914619570
         O           -3.060990283090    -0.686979171242     0.795963356136    15.994914619570
         O            1.359378716910    -0.359578171242     1.787964356136    15.994914619570
         O           -3.434235283090     1.810960828758    -0.139851643864    15.994914619570
         O            2.566297716910     1.549802828758    -0.999031643864    15.994914619570
         O            3.651758716910     0.142165828758     0.420777356136    15.994914619570
         C           -0.861895283090    -0.954737171242     0.042503356136    12.000000000000
         C            0.454911716910    -0.407217171242    -0.481210643864    12.000000000000
         C           -1.883422283090     0.073583828758     0.510470356136    12.000000000000
         C            1.245412716910     0.357613828758     0.578512356136    12.000000000000
         C           -2.233069283090     1.127248828758    -0.532842643864    12.000000000000
         C            2.667799616910     0.636982328758     0.036472056136    12.000000000000
         H           -0.640887283090    -1.623130171242     0.884303356136     1.007825032230
         H            0.268780716910     0.252947828758    -1.341877643864     1.007825032230
         H           -1.518390283090     0.559305828758     1.430572356136     1.007825032230
         H            0.744150716910     1.305445828758     0.805793356136     1.007825032230
         H           -2.466356283090     0.634537828758    -1.478011643864     1.007825032230
         H           -1.410044283090     1.834497828758    -0.694626643864     1.007825032230
         H           -2.284391283090    -1.988564171242    -0.743695643864     1.007825032230
         H            0.697570716910    -2.104692171242    -1.365287643864     1.007825032230
         H           -3.796238283090    -0.045753171242     0.718848356136     1.007825032230
         H            2.094520716910    -0.988325171242     1.649721356136     1.007825032230
         H           -3.199535283090     2.423304828758     0.579461356136     1.007825032230
         H            3.482908716910     1.637144828758    -1.335069643864     1.007825032230

  Basis Set: AUG-CC-PVTZ
    Blend: AUG-CC-PVTZ
  Basis Set: (AUG-CC-PVTZ AUX)
    Blend: AUG-CC-PVTZ-JKFIT
	 Reference Energy          =    -758.5230003598301209 [Eh]
	 Singles Energy            =      -0.0000000000000000 [Eh]
	 Same-Spin Energy          =      -0.7333139630408062 [Eh]
	 Opposite-Spin Energy      =      -2.2293020912201511 [Eh]
	 Correlation Energy        =      -2.9626160542609572 [Eh]
	 Total Energy              =    -761.4856164140910550 [Eh]

	 ================> DF-SCS-MP2 Energies <==================
	-----------------------------------------------------------
	 SCS Same-Spin Scale       =       0.3333333333333333 [-]
	 SCS Opposite-Spin Scale   =       1.2000000000000000 [-]
	 SCS Same-Spin Energy      =      -0.2444379876802687 [Eh]
	 SCS Opposite-Spin Energy  =      -2.6751625094641813 [Eh]
	 SCS Correlation Energy    =      -2.9196004971444500 [Eh]
	 SCS Total Energy          =    -761.4426008569745363 [Eh]
	-----------------------------------------------------------

  Dipole Moment: [D]
     X:    -0.9569      Y:     2.5132      Z:    -0.6267     Total:     2.7613

*** Psi4 exiting successfully. Buy a developer a beer!
