                               Psi4 1.4a3.dev225

  ==> Input File <==

--------------------------------------------------------------------------
#psi4
#
memory 32 gb

molecule  {
0 1
  O       -1.3621950    -1.7118670    -1.0487160
  O        1.3250660    -1.5098260    -0.8661080
  O       -3.0202870    -0.6972320     0.8011600
  O        1.4000820    -0.3698310     1.7931610
  O       -3.3935320     1.8007080    -0.1346550
  O        2.6070010     1.5395500    -0.9938350
  O        3.6924620     0.1319130     0.4259740
  C       -0.8211920    -0.9649900     0.0477000
  C        0.4956150    -0.4174700    -0.4760140
  C       -1.8427190     0.0633310     0.5156670
  C        1.2861160     0.3473610     0.5837090
  C       -2.1923660     1.1169960    -0.5276460
  C        2.6663270     0.6479390     0.0251960
  H       -0.6001840    -1.6333830     0.8895000
  H        0.3094840     0.2426950    -1.3366810
  H       -1.4776870     0.5490530     1.4357690
  H        0.7848540     1.2951930     0.8109900
  H       -2.4256530     0.6242850    -1.4728150
  H       -1.3693410     1.8242450    -0.6894300
  H       -2.2436880    -1.9988170    -0.7384990
  H        0.7382740    -2.1149450    -1.3600910
  H       -3.7555350    -0.0560060     0.7240450
  H        2.1352240    -0.9985780     1.6549180
  H       -3.1467760     2.4445067     0.6216074
  H        3.5236120     1.6268920    -1.3298730
units angstrom
no_reorient  #important for SAPT in psi4, default
symmetry c1  #important for SAPT in psi4, default
}

set PROPERTIES_ORIGIN ["COM"]
properties('MP2/aug-cc-pvtz', properties = ['dipole'])
--------------------------------------------------------------------------

    Molecular point group: c1
  Charge       = 0
  Multiplicity = 1
  Basis Set: AUG-CC-PVTZ
    Blend: AUG-CC-PVTZ
  Basis Set: (AUG-CC-PVTZ AUX)
    Blend: AUG-CC-PVTZ-JKFIT

    Orbital Energies [Eh]
    ---------------------

    Doubly Occupied:

       1A    -20.631388     2A    -20.596311     3A    -20.574977
       4A    -20.574706     5A    -20.572908     6A    -20.570287
       7A    -20.565033     8A    -11.401830     9A    -11.318166
      10A    -11.304187    11A    -11.301889    12A    -11.299948
      13A    -11.295605    14A     -1.476231    15A     -1.406130
      16A     -1.394353    17A     -1.381177    18A     -1.367301
      19A     -1.361013    20A     -1.349538    21A     -1.079975
      22A     -1.027261    23A     -0.959512    24A     -0.886724
      25A     -0.830222    26A     -0.801932    27A     -0.756942
      28A     -0.736278    29A     -0.725469    30A     -0.712597
      31A     -0.709267    32A     -0.681103    33A     -0.675534
      34A     -0.649886    35A     -0.639854    36A     -0.636416
      37A     -0.627652    38A     -0.607000    39A     -0.600784
      40A     -0.580863    41A     -0.552530    42A     -0.549477
      43A     -0.539212    44A     -0.533023    45A     -0.530337
      46A     -0.502166    47A     -0.495660    48A     -0.484424
      49A     -0.466133    50A     -0.459745    51A     -0.455306
      52A     -0.442479

  @DF-RHF Final Energy:  -758.51846189658374

   => Energetics <=

    Nuclear Repulsion Energy =            915.2956754014809349
    One-Electron Energy =               -2862.2707939010947484
    Two-Electron Energy =                1188.4566566030300692
    Total Energy =                       -758.5184618965838581
  Basis Set: (AUG-CC-PVTZ AUX)
    Blend: AUG-CC-PVTZ-RI
    Molecular point group: c1

    Geometry (in Angstrom), charge = 0, multiplicity = 1:

       Center              X                  Y                   Z               Mass
    ------------   -----------------  -----------------  -----------------  -----------------
         O           -1.400378826099    -1.703074016757    -1.053094347125    15.994914619570
         O            1.286882173901    -1.501033016757    -0.870486347125    15.994914619570
         O           -3.058470826099    -0.688439016757     0.796781652875    15.994914619570
         O            1.361898173901    -0.361038016757     1.788782652875    15.994914619570
         O           -3.431715826099     1.809500983243    -0.139033347125    15.994914619570
         O            2.568817173901     1.548342983243    -0.998213347125    15.994914619570
         O            3.654278173901     0.140705983243     0.421595652875    15.994914619570
         C           -0.859375826099    -0.956197016757     0.043321652875    12.000000000000
         C            0.457431173901    -0.408677016757    -0.480392347125    12.000000000000
         C           -1.880902826099     0.072123983243     0.511288652875    12.000000000000
         C            1.247932173901     0.356153983243     0.579330652875    12.000000000000
         C           -2.230549826099     1.125788983243    -0.532024347125    12.000000000000
         C            2.628143173901     0.656731983243     0.020817652875    12.000000000000
         H           -0.638367826099    -1.624590016757     0.885121652875     1.007825032230
         H            0.271300173901     0.251487983243    -1.341059347125     1.007825032230
         H           -1.515870826099     0.557845983243     1.431390652875     1.007825032230
         H            0.746670173901     1.303985983243     0.806611652875     1.007825032230
         H           -2.463836826099     0.633077983243    -1.477193347125     1.007825032230
         H           -1.407524826099     1.833037983243    -0.693808347125     1.007825032230
         H           -2.281871826099    -1.990024016757    -0.742877347125     1.007825032230
         H            0.700090173901    -2.106152016757    -1.364469347125     1.007825032230
         H           -3.793718826099    -0.047213016757     0.719666652875     1.007825032230
         H            2.097040173901    -0.989785016757     1.650539652875     1.007825032230
         H           -3.184959826099     2.453299683243     0.617229052875     1.007825032230
         H            3.485428173901     1.635684983243    -1.334251347125     1.007825032230

  Basis Set: AUG-CC-PVTZ
    Blend: AUG-CC-PVTZ
  Basis Set: (AUG-CC-PVTZ AUX)
    Blend: AUG-CC-PVTZ-JKFIT
	 Reference Energy          =    -758.5184618965837444 [Eh]
	 Singles Energy            =      -0.0000000000000000 [Eh]
	 Same-Spin Energy          =      -0.7348746947728836 [Eh]
	 Opposite-Spin Energy      =      -2.2325752357205300 [Eh]
	 Correlation Energy        =      -2.9674499304934137 [Eh]
	 Total Energy              =    -761.4859118270771887 [Eh]

	 ================> DF-SCS-MP2 Energies <==================
	-----------------------------------------------------------
	 SCS Same-Spin Scale       =       0.3333333333333333 [-]
	 SCS Opposite-Spin Scale   =       1.2000000000000000 [-]
	 SCS Same-Spin Energy      =      -0.2449582315909612 [Eh]
	 SCS Opposite-Spin Energy  =      -2.6790902828646357 [Eh]
	 SCS Correlation Energy    =      -2.9240485144555968 [Eh]
	 SCS Total Energy          =    -761.4425104110393931 [Eh]
	-----------------------------------------------------------

  Dipole Moment: [D]
     X:    -1.2183      Y:     2.7110      Z:    -0.7760     Total:     3.0718

*** Psi4 exiting successfully. Buy a developer a beer!
