                               Psi4 1.4a3.dev225

  ==> Input File <==

--------------------------------------------------------------------------
#psi4
#
memory 32 gb

molecule  {
0 1
  O       -1.3621950    -1.7118670    -1.0487160
  O        1.3250660    -1.5098260    -0.8661080
  O       -3.0202870    -0.6972320     0.8011600
  O        1.4000820    -0.3698310     1.7931610
  O       -3.3935320     1.8007080    -0.1346550
  O        2.6070010     1.5395500    -0.9938350
  O        3.6924620     0.1319130     0.4259740
  C       -0.8211920    -0.9649900     0.0477000
  C        0.4956150    -0.4174700    -0.4760140
  C       -1.8427190     0.0633310     0.5156670
  C        1.2861160     0.3473610     0.5837090
  C       -2.2341629     1.1407871    -0.5139711
  C        2.6663270     0.6479390     0.0251960
  H       -0.6001840    -1.6333830     0.8895000
  H        0.3094840     0.2426950    -1.3366810
  H       -1.4776870     0.5490530     1.4357690
  H        0.7848540     1.2951930     0.8109900
  H       -2.4256530     0.6242850    -1.4728150
  H       -1.3693410     1.8242450    -0.6894300
  H       -2.2436880    -1.9988170    -0.7384990
  H        0.7382740    -2.1149450    -1.3600910
  H       -3.7555350    -0.0560060     0.7240450
  H        2.1352240    -0.9985780     1.6549180
  H       -3.1588320     2.4130520     0.5846580
  H        3.5236120     1.6268920    -1.3298730
units angstrom
no_reorient  #important for SAPT in psi4, default
symmetry c1  #important for SAPT in psi4, default
}

set PROPERTIES_ORIGIN ["COM"]
properties('MP2/aug-cc-pvtz', properties = ['dipole'])
--------------------------------------------------------------------------

    Molecular point group: c1
  Charge       = 0
  Multiplicity = 1
  Basis Set: AUG-CC-PVTZ
    Blend: AUG-CC-PVTZ
  Basis Set: (AUG-CC-PVTZ AUX)
    Blend: AUG-CC-PVTZ-JKFIT

    Orbital Energies [Eh]
    ---------------------

    Doubly Occupied:

       1A    -20.630853     2A    -20.597454     3A    -20.574280
       4A    -20.574138     5A    -20.572213     6A    -20.569671
       7A    -20.564511     8A    -11.401277     9A    -11.317441
      10A    -11.303437    11A    -11.301301    12A    -11.300621
      13A    -11.295470    14A     -1.475696    15A     -1.416840
      16A     -1.399836    17A     -1.386454    18A     -1.371406
      19A     -1.362689    20A     -1.350447    21A     -1.077884
      22A     -1.024588    23A     -0.959053    24A     -0.887577
      25A     -0.830180    26A     -0.802678    27A     -0.759112
      28A     -0.736466    29A     -0.725240    30A     -0.720322
      31A     -0.712001    32A     -0.684958    33A     -0.676132
      34A     -0.649360    35A     -0.639988    36A     -0.636858
      37A     -0.632565    38A     -0.609593    39A     -0.606308
      40A     -0.580540    41A     -0.553245    42A     -0.552227
      43A     -0.538865    44A     -0.532000    45A     -0.528268
      46A     -0.499079    47A     -0.495137    48A     -0.483839
      49A     -0.463845    50A     -0.459256    51A     -0.453738
      52A     -0.439143

  @DF-RHF Final Energy:  -758.52225130964212

   => Energetics <=

    Nuclear Repulsion Energy =            915.4200277524792000
    One-Electron Energy =               -2862.4523950510401846
    Two-Electron Energy =                1188.5101159889188693
    Total Energy =                       -758.5222513096421153
  Basis Set: (AUG-CC-PVTZ AUX)
    Blend: AUG-CC-PVTZ-RI
    Molecular point group: c1

    Geometry (in Angstrom), charge = 0, multiplicity = 1:

       Center              X                  Y                   Z               Mass
    ------------   -----------------  -----------------  -----------------  -----------------
         O           -1.397758620112    -1.704368490709    -1.053741400925    15.994914619570
         O            1.289502379888    -1.502327490709    -0.871133400925    15.994914619570
         O           -3.055850620112    -0.689733490709     0.796134599075    15.994914619570
         O            1.364518379888    -0.362332490709     1.788135599075    15.994914619570
         O           -3.429095620112     1.808206509291    -0.139680400925    15.994914619570
         O            2.571437379888     1.547048509291    -0.998860400925    15.994914619570
         O            3.656898379888     0.139411509291     0.420948599075    15.994914619570
         C           -0.856755620112    -0.957491490709     0.042674599075    12.000000000000
         C            0.460051379888    -0.409971490709    -0.481039400925    12.000000000000
         C           -1.878282620112     0.070829509291     0.510641599075    12.000000000000
         C            1.250552379888     0.354859509291     0.578683599075    12.000000000000
         C           -2.269726520112     1.148285609291    -0.518996500925    12.000000000000
         C            2.630763379888     0.655437509291     0.020170599075    12.000000000000
         H           -0.635747620112    -1.625884490709     0.884474599075     1.007825032230
         H            0.273920379888     0.250193509291    -1.341706400925     1.007825032230
         H           -1.513250620112     0.556551509291     1.430743599075     1.007825032230
         H            0.749290379888     1.302691509291     0.805964599075     1.007825032230
         H           -2.461216620112     0.631783509291    -1.477840400925     1.007825032230
         H           -1.404904620112     1.831743509291    -0.694455400925     1.007825032230
         H           -2.279251620112    -1.991318490709    -0.743524400925     1.007825032230
         H            0.702710379888    -2.107446490709    -1.365116400925     1.007825032230
         H           -3.791098620112    -0.048507490709     0.719019599075     1.007825032230
         H            2.099660379888    -0.991079490709     1.649892599075     1.007825032230
         H           -3.194395620112     2.420550509291     0.579632599075     1.007825032230
         H            3.488048379888     1.634390509291    -1.334898400925     1.007825032230

  Basis Set: AUG-CC-PVTZ
    Blend: AUG-CC-PVTZ
  Basis Set: (AUG-CC-PVTZ AUX)
    Blend: AUG-CC-PVTZ-JKFIT
	 Reference Energy          =    -758.5222513096421153 [Eh]
	 Singles Energy            =      -0.0000000000000000 [Eh]
	 Same-Spin Energy          =      -0.7342004453502220 [Eh]
	 Opposite-Spin Energy      =      -2.2302449576947612 [Eh]
	 Correlation Energy        =      -2.9644454030449832 [Eh]
	 Total Energy              =    -761.4866967126871486 [Eh]

	 ================> DF-SCS-MP2 Energies <==================
	-----------------------------------------------------------
	 SCS Same-Spin Scale       =       0.3333333333333333 [-]
	 SCS Opposite-Spin Scale   =       1.2000000000000000 [-]
	 SCS Same-Spin Energy      =      -0.2447334817834073 [Eh]
	 SCS Opposite-Spin Energy  =      -2.6762939492337132 [Eh]
	 SCS Correlation Energy    =      -2.9210274310171207 [Eh]
	 SCS Total Energy          =    -761.4432787406592524 [Eh]
	-----------------------------------------------------------

  Dipole Moment: [D]
     X:    -1.3701      Y:     2.7792      Z:    -0.7629     Total:     3.1911

*** Psi4 exiting successfully. Buy a developer a beer!
