                               Psi4 1.4a3.dev225

  ==> Input File <==

--------------------------------------------------------------------------
#psi4
#
memory 32 gb

molecule  {
0 1
  O       -1.3621950    -1.7118670    -1.0487160
  O        1.3250660    -1.5098260    -0.8661080
  O       -3.0202870    -0.6972320     0.8011600
  O        1.4000820    -0.3698310     1.7931610
  O       -3.3935320     1.8007080    -0.1346550
  O        2.6070010     1.5395500    -0.9938350
  O        3.6924620     0.1319130     0.4259740
  C       -0.8967140    -1.0692513    -0.1053556
  C        0.4956150    -0.4174700    -0.4760140
  C       -1.8427190     0.0633310     0.5156670
  C        1.2861160     0.3473610     0.5837090
  C       -2.1923660     1.1169960    -0.5276460
  C        2.6663270     0.6479390     0.0251960
  H       -0.6001840    -1.6333830     0.8895000
  H        0.3094840     0.2426950    -1.3366810
  H       -1.4776870     0.5490530     1.4357690
  H        0.7848540     1.2951930     0.8109900
  H       -2.4256530     0.6242850    -1.4728150
  H       -1.3693410     1.8242450    -0.6894300
  H       -2.2436880    -1.9988170    -0.7384990
  H        0.7382740    -2.1149450    -1.3600910
  H       -3.7555350    -0.0560060     0.7240450
  H        2.1352240    -0.9985780     1.6549180
  H       -3.1588320     2.4130520     0.5846580
  H        3.5236120     1.6268920    -1.3298730
units angstrom
no_reorient  #important for SAPT in psi4, default
symmetry c1  #important for SAPT in psi4, default
}

set PROPERTIES_ORIGIN ["COM"]
properties('MP2/aug-cc-pvtz', properties = ['dipole'])
--------------------------------------------------------------------------

    Molecular point group: c1
  Charge       = 0
  Multiplicity = 1
  Basis Set: AUG-CC-PVTZ
    Blend: AUG-CC-PVTZ
  Basis Set: (AUG-CC-PVTZ AUX)
    Blend: AUG-CC-PVTZ-JKFIT

    Orbital Energies [Eh]
    ---------------------

    Doubly Occupied:

       1A    -20.629873     2A    -20.596851     3A    -20.588849
       4A    -20.572438     5A    -20.570565     6A    -20.566347
       7A    -20.563934     8A    -11.400914     9A    -11.317040
      10A    -11.302231    11A    -11.298896    12A    -11.296951
      13A    -11.295164    14A     -1.483719    15A     -1.474641
      16A     -1.395672    17A     -1.390608    18A     -1.369896
      19A     -1.361097    20A     -1.357766    21A     -1.062599
      22A     -1.020471    23A     -0.951788    24A     -0.876410
      25A     -0.843421    26A     -0.807780    27A     -0.764341
      28A     -0.746629    29A     -0.724685    30A     -0.713728
      31A     -0.712620    32A     -0.698559    33A     -0.686120
      34A     -0.657129    35A     -0.651080    36A     -0.636918
      37A     -0.631640    38A     -0.608669    39A     -0.606682
      40A     -0.591578    41A     -0.564128    42A     -0.551319
      43A     -0.539756    44A     -0.534713    45A     -0.518627
      46A     -0.503946    47A     -0.494188    48A     -0.479550
      49A     -0.460295    50A     -0.454427    51A     -0.428323
      52A     -0.410752

  @DF-RHF Final Energy:  -758.48008237021327

   => Energetics <=

    Nuclear Repulsion Energy =            915.7817367550700283
    One-Electron Energy =               -2862.9909959118958795
    Two-Electron Energy =                1188.7291767866124701
    Total Energy =                       -758.4800823702132675
  Basis Set: (AUG-CC-PVTZ AUX)
    Blend: AUG-CC-PVTZ-RI
    Molecular point group: c1

    Geometry (in Angstrom), charge = 0, multiplicity = 1:

       Center              X                  Y                   Z               Mass
    ------------   -----------------  -----------------  -----------------  -----------------
         O           -1.395694432090    -1.696530879251    -1.043536446724    15.994914619570
         O            1.291566567910    -1.494489879251    -0.860928446724    15.994914619570
         O           -3.053786432090    -0.681895879251     0.806339553276    15.994914619570
         O            1.366582567910    -0.354494879251     1.798340553276    15.994914619570
         O           -3.427031432090     1.816044120749    -0.129475446724    15.994914619570
         O            2.573501567910     1.554886120749    -0.988655446724    15.994914619570
         O            3.658962567910     0.147249120749     0.431153553276    15.994914619570
         C           -0.930213432090    -1.053915179251    -0.100176046724    12.000000000000
         C            0.462115567910    -0.402133879251    -0.470834446724    12.000000000000
         C           -1.876218432090     0.078667120749     0.520846553276    12.000000000000
         C            1.252616567910     0.362697120749     0.588888553276    12.000000000000
         C           -2.225865432090     1.132332120749    -0.522466446724    12.000000000000
         C            2.632827567910     0.663275120749     0.030375553276    12.000000000000
         H           -0.633683432090    -1.618046879251     0.894679553276     1.007825032230
         H            0.275984567910     0.258031120749    -1.331501446724     1.007825032230
         H           -1.511186432090     0.564389120749     1.440948553276     1.007825032230
         H            0.751354567910     1.310529120749     0.816169553276     1.007825032230
         H           -2.459152432090     0.639621120749    -1.467635446724     1.007825032230
         H           -1.402840432090     1.839581120749    -0.684250446724     1.007825032230
         H           -2.277187432090    -1.983480879251    -0.733319446724     1.007825032230
         H            0.704774567910    -2.099608879251    -1.354911446724     1.007825032230
         H           -3.789034432090    -0.040669879251     0.729224553276     1.007825032230
         H            2.101724567910    -0.983241879251     1.660097553276     1.007825032230
         H           -3.192331432090     2.428388120749     0.589837553276     1.007825032230
         H            3.490112567910     1.642228120749    -1.324693446724     1.007825032230

  Basis Set: AUG-CC-PVTZ
    Blend: AUG-CC-PVTZ
  Basis Set: (AUG-CC-PVTZ AUX)
    Blend: AUG-CC-PVTZ-JKFIT
	 Reference Energy          =    -758.4800823702132675 [Eh]
	 Singles Energy            =      -0.0000000000000000 [Eh]
	 Same-Spin Energy          =      -0.7351507083762571 [Eh]
	 Opposite-Spin Energy      =      -2.2304776595527440 [Eh]
	 Correlation Energy        =      -2.9656283679290012 [Eh]
	 Total Energy              =    -761.4457107381422247 [Eh]

	 ================> DF-SCS-MP2 Energies <==================
	-----------------------------------------------------------
	 SCS Same-Spin Scale       =       0.3333333333333333 [-]
	 SCS Opposite-Spin Scale   =       1.2000000000000000 [-]
	 SCS Same-Spin Energy      =      -0.2450502361254190 [Eh]
	 SCS Opposite-Spin Energy  =      -2.6765731914632926 [Eh]
	 SCS Correlation Energy    =      -2.9216234275887119 [Eh]
	 SCS Total Energy          =    -761.4017057978019238 [Eh]
	-----------------------------------------------------------

  Dipole Moment: [D]
     X:    -1.4935      Y:     2.2852      Z:    -1.3101     Total:     3.0281

*** Psi4 exiting successfully. Buy a developer a beer!
