                               Psi4 1.4a3.dev225

  ==> Input File <==

--------------------------------------------------------------------------
#psi4
#
memory 32 gb

molecule  {
0 1
  O       -1.3621950    -1.7118670    -1.0487160
  O        1.3250660    -1.5098260    -0.8661080
  O       -3.0202870    -0.6972320     0.8011600
  O        1.4000820    -0.3698310     1.7931610
  O       -3.3935320     1.8007080    -0.1346550
  O        2.6070010     1.5395500    -0.9938350
  O        3.6924620     0.1319130     0.4259740
  C       -0.8211920    -0.9649900     0.0477000
  C        0.4956150    -0.4174700    -0.4760140
  C       -1.8427190     0.0633310     0.5156670
  C        1.2861160     0.3473610     0.5837090
  C       -2.1923660     1.1169960    -0.5276460
  C        2.6663270     0.6479390     0.0251960
  H       -0.6001840    -1.6333830     0.8895000
  H        0.3094840     0.2426950    -1.3366810
  H       -1.4942400     0.5270271     1.3940454
  H        0.7848540     1.2951930     0.8109900
  H       -2.4256530     0.6242850    -1.4728150
  H       -1.3693410     1.8242450    -0.6894300
  H       -2.2436880    -1.9988170    -0.7384990
  H        0.7382740    -2.1149450    -1.3600910
  H       -3.7555350    -0.0560060     0.7240450
  H        2.1352240    -0.9985780     1.6549180
  H       -3.1588320     2.4130520     0.5846580
  H        3.5236120     1.6268920    -1.3298730
units angstrom
no_reorient  #important for SAPT in psi4, default
symmetry c1  #important for SAPT in psi4, default
}

set PROPERTIES_ORIGIN ["COM"]
properties('MP2/aug-cc-pvtz', properties = ['dipole'])
--------------------------------------------------------------------------

    Molecular point group: c1
  Charge       = 0
  Multiplicity = 1
  Basis Set: AUG-CC-PVTZ
    Blend: AUG-CC-PVTZ
  Basis Set: (AUG-CC-PVTZ AUX)
    Blend: AUG-CC-PVTZ-JKFIT

    Orbital Energies [Eh]
    ---------------------

    Doubly Occupied:

       1A    -20.631554     2A    -20.592014     3A    -20.575000
       4A    -20.574301     5A    -20.572640     6A    -20.570361
       7A    -20.565233     8A    -11.402055     9A    -11.318508
      10A    -11.304305    11A    -11.300000    12A    -11.296053
      13A    -11.295224    14A     -1.476411    15A     -1.407552
      16A     -1.396389    17A     -1.383637    18A     -1.369454
      19A     -1.362545    20A     -1.350256    21A     -1.081229
      22A     -1.029338    23A     -0.961224    24A     -0.889898
      25A     -0.831961    26A     -0.804091    27A     -0.758862
      28A     -0.736631    29A     -0.726567    30A     -0.715077
      31A     -0.713641    32A     -0.684874    33A     -0.676212
      34A     -0.650014    35A     -0.641062    36A     -0.636986
      37A     -0.629647    38A     -0.607320    39A     -0.601737
      40A     -0.581034    41A     -0.553514    42A     -0.549696
      43A     -0.539697    44A     -0.534266    45A     -0.531039
      46A     -0.504047    47A     -0.495842    48A     -0.484644
      49A     -0.467757    50A     -0.459960    51A     -0.456052
      52A     -0.442815

  @DF-RHF Final Energy:  -758.52297765706885

   => Energetics <=

    Nuclear Repulsion Energy =            915.8610068493495646
    One-Electron Energy =               -2863.3275127111287475
    Two-Electron Energy =                1188.9435282047104465
    Total Energy =                       -758.5229776570688500
  Basis Set: (AUG-CC-PVTZ AUX)
    Blend: AUG-CC-PVTZ-RI
    Molecular point group: c1

    Geometry (in Angstrom), charge = 0, multiplicity = 1:

       Center              X                  Y                   Z               Mass
    ------------   -----------------  -----------------  -----------------  -----------------
         O           -1.400231763384    -1.702799103190    -1.052689933654    15.994914619570
         O            1.287029236616    -1.500758103190    -0.870081933654    15.994914619570
         O           -3.058323763384    -0.688164103190     0.797186066346    15.994914619570
         O            1.362045236616    -0.360763103190     1.789187066346    15.994914619570
         O           -3.431568763384     1.809775896810    -0.138628933654    15.994914619570
         O            2.568964236616     1.548617896810    -0.997808933654    15.994914619570
         O            3.654425236616     0.140980896810     0.422000066346    15.994914619570
         C           -0.859228763384    -0.955922103190     0.043726066346    12.000000000000
         C            0.457578236616    -0.408402103190    -0.479987933654    12.000000000000
         C           -1.880755763384     0.072398896810     0.511693066346    12.000000000000
         C            1.248079236616     0.356428896810     0.579735066346    12.000000000000
         C           -2.230402763384     1.126063896810    -0.531619933654    12.000000000000
         C            2.628290236616     0.657006896810     0.021222066346    12.000000000000
         H           -0.638220763384    -1.624315103190     0.885526066346     1.007825032230
         H            0.271447236616     0.251762896810    -1.340654933654     1.007825032230
         H           -1.532276763384     0.536094996810     1.390071466346     1.007825032230
         H            0.746817236616     1.304260896810     0.807016066346     1.007825032230
         H           -2.463689763384     0.633352896810    -1.476788933654     1.007825032230
         H           -1.407377763384     1.833312896810    -0.693403933654     1.007825032230
         H           -2.281724763384    -1.989749103190    -0.742472933654     1.007825032230
         H            0.700237236616    -2.105877103190    -1.364064933654     1.007825032230
         H           -3.793571763384    -0.046938103190     0.720071066346     1.007825032230
         H            2.097187236616    -0.989510103190     1.650944066346     1.007825032230
         H           -3.196868763384     2.422119896810     0.580684066346     1.007825032230
         H            3.485575236616     1.635959896810    -1.333846933654     1.007825032230

  Basis Set: AUG-CC-PVTZ
    Blend: AUG-CC-PVTZ
  Basis Set: (AUG-CC-PVTZ AUX)
    Blend: AUG-CC-PVTZ-JKFIT
	 Reference Energy          =    -758.5229776570688500 [Eh]
	 Singles Energy            =      -0.0000000000000000 [Eh]
	 Same-Spin Energy          =      -0.7342149198185062 [Eh]
	 Opposite-Spin Energy      =      -2.2306009313329809 [Eh]
	 Correlation Energy        =      -2.9648158511514868 [Eh]
	 Total Energy              =    -761.4877935082203066 [Eh]

	 ================> DF-SCS-MP2 Energies <==================
	-----------------------------------------------------------
	 SCS Same-Spin Scale       =       0.3333333333333333 [-]
	 SCS Opposite-Spin Scale   =       1.2000000000000000 [-]
	 SCS Same-Spin Energy      =      -0.2447383066061687 [Eh]
	 SCS Opposite-Spin Energy  =      -2.6767211175995769 [Eh]
	 SCS Correlation Energy    =      -2.9214594242057457 [Eh]
	 SCS Total Energy          =    -761.4444370812746001 [Eh]
	-----------------------------------------------------------

  Dipole Moment: [D]
     X:    -1.1901      Y:     2.6981      Z:    -0.7829     Total:     3.0511

*** Psi4 exiting successfully. Buy a developer a beer!
