                               Psi4 1.4a3.dev225

  ==> Input File <==

--------------------------------------------------------------------------
#psi4
#
memory 32 gb

molecule  {
0 1
  O       -1.3621950    -1.7118670    -1.0487160
  O        1.3250660    -1.5098260    -0.8661080
  O       -3.0202870    -0.6972320     0.8011600
  O        1.4000820    -0.3698310     1.7931610
  O       -3.3935320     1.8007080    -0.1346550
  O        2.6070010     1.5395500    -0.9938350
  O        3.6924620     0.1319130     0.4259740
  C       -0.8211920    -0.9649900     0.0477000
  C        0.5822914    -0.3814305    -0.5104865
  C       -1.8427190     0.0633310     0.5156670
  C        1.2861160     0.3473610     0.5837090
  C       -2.1923660     1.1169960    -0.5276460
  C        2.6663270     0.6479390     0.0251960
  H       -0.6001840    -1.6333830     0.8895000
  H        0.3094840     0.2426950    -1.3366810
  H       -1.4776870     0.5490530     1.4357690
  H        0.7848540     1.2951930     0.8109900
  H       -2.4256530     0.6242850    -1.4728150
  H       -1.3693410     1.8242450    -0.6894300
  H       -2.2436880    -1.9988170    -0.7384990
  H        0.7382740    -2.1149450    -1.3600910
  H       -3.7555350    -0.0560060     0.7240450
  H        2.1352240    -0.9985780     1.6549180
  H       -3.1588320     2.4130520     0.5846580
  H        3.5236120     1.6268920    -1.3298730
units angstrom
no_reorient  #important for SAPT in psi4, default
symmetry c1  #important for SAPT in psi4, default
}

set PROPERTIES_ORIGIN ["COM"]
properties('MP2/aug-cc-pvtz', properties = ['dipole'])
--------------------------------------------------------------------------

    Molecular point group: c1
  Charge       = 0
  Multiplicity = 1
  Basis Set: AUG-CC-PVTZ
    Blend: AUG-CC-PVTZ
  Basis Set: (AUG-CC-PVTZ AUX)
    Blend: AUG-CC-PVTZ-JKFIT

    Orbital Energies [Eh]
    ---------------------

    Doubly Occupied:

       1A    -20.631765     2A    -20.591028     3A    -20.576715
       4A    -20.573283     5A    -20.572189     6A    -20.571360
       7A    -20.564786     8A    -11.400676     9A    -11.317854
      10A    -11.305018    11A    -11.299676    12A    -11.299037
      13A    -11.295967    14A     -1.476947    15A     -1.407450
      16A     -1.398421    17A     -1.383734    18A     -1.371308
      19A     -1.363796    20A     -1.350833    21A     -1.077180
      22A     -1.031777    23A     -0.950434    24A     -0.888251
      25A     -0.827724    26A     -0.806473    27A     -0.760612
      28A     -0.735176    29A     -0.726856    30A     -0.714166
      31A     -0.712360    32A     -0.683870    33A     -0.677683
      34A     -0.657139    35A     -0.642649    36A     -0.635940
      37A     -0.628392    38A     -0.609495    39A     -0.600021
      40A     -0.581295    41A     -0.552792    42A     -0.547215
      43A     -0.541628    44A     -0.533028    45A     -0.530456
      46A     -0.502776    47A     -0.495979    48A     -0.487721
      49A     -0.466385    50A     -0.458502    51A     -0.451734
      52A     -0.429769

  @DF-RHF Final Energy:  -758.51541659209033

   => Energetics <=

    Nuclear Repulsion Energy =            915.2100307804421391
    One-Electron Energy =               -2862.0562572787011959
    Two-Electron Energy =                1188.3308099061687244
    Total Energy =                       -758.5154165920903324
  Basis Set: (AUG-CC-PVTZ AUX)
    Blend: AUG-CC-PVTZ-RI
    Molecular point group: c1

    Geometry (in Angstrom), charge = 0, multiplicity = 1:

       Center              X                  Y                   Z               Mass
    ------------   -----------------  -----------------  -----------------  -----------------
         O           -1.405621993295    -1.705118169748    -1.050794477525    15.994914619570
         O            1.281639006705    -1.503077169748    -0.868186477525    15.994914619570
         O           -3.063713993295    -0.690483169748     0.799081522475    15.994914619570
         O            1.356655006705    -0.363082169748     1.791082522475    15.994914619570
         O           -3.436958993295     1.807456830252    -0.136733477525    15.994914619570
         O            2.563574006705     1.546298830252    -0.995913477525    15.994914619570
         O            3.649035006705     0.138661830252     0.423895522475    15.994914619570
         C           -0.864618993295    -0.958241169748     0.045621522475    12.000000000000
         C            0.538864406705    -0.374681669748    -0.512564977525    12.000000000000
         C           -1.886145993295     0.070079830252     0.513588522475    12.000000000000
         C            1.242689006705     0.354109830252     0.581630522475    12.000000000000
         C           -2.235792993295     1.123744830252    -0.529724477525    12.000000000000
         C            2.622900006705     0.654687830252     0.023117522475    12.000000000000
         H           -0.643610993295    -1.626634169748     0.887421522475     1.007825032230
         H            0.266057006705     0.249443830252    -1.338759477525     1.007825032230
         H           -1.521113993295     0.555801830252     1.433690522475     1.007825032230
         H            0.741427006705     1.301941830252     0.808911522475     1.007825032230
         H           -2.469079993295     0.631033830252    -1.474893477525     1.007825032230
         H           -1.412767993295     1.830993830252    -0.691508477525     1.007825032230
         H           -2.287114993295    -1.992068169748    -0.740577477525     1.007825032230
         H            0.694847006705    -2.108196169748    -1.362169477525     1.007825032230
         H           -3.798961993295    -0.049257169748     0.721966522475     1.007825032230
         H            2.091797006705    -0.991829169748     1.652839522475     1.007825032230
         H           -3.202258993295     2.419800830252     0.582579522475     1.007825032230
         H            3.480185006705     1.633640830252    -1.331951477525     1.007825032230

  Basis Set: AUG-CC-PVTZ
    Blend: AUG-CC-PVTZ
  Basis Set: (AUG-CC-PVTZ AUX)
    Blend: AUG-CC-PVTZ-JKFIT
	 Reference Energy          =    -758.5154165920903324 [Eh]
	 Singles Energy            =      -0.0000000000000000 [Eh]
	 Same-Spin Energy          =      -0.7343955228428150 [Eh]
	 Opposite-Spin Energy      =      -2.2308281976185222 [Eh]
	 Correlation Energy        =      -2.9652237204613372 [Eh]
	 Total Energy              =    -761.4806403125517136 [Eh]

	 ================> DF-SCS-MP2 Energies <==================
	-----------------------------------------------------------
	 SCS Same-Spin Scale       =       0.3333333333333333 [-]
	 SCS Opposite-Spin Scale   =       1.2000000000000000 [-]
	 SCS Same-Spin Energy      =      -0.2447985076142716 [Eh]
	 SCS Opposite-Spin Energy  =      -2.6769938371422266 [Eh]
	 SCS Correlation Energy    =      -2.9217923447564984 [Eh]
	 SCS Total Energy          =    -761.4372089368467869 [Eh]
	-----------------------------------------------------------

  Dipole Moment: [D]
     X:    -1.0785      Y:     2.6602      Z:    -0.8672     Total:     2.9987

*** Psi4 exiting successfully. Buy a developer a beer!
