                               Psi4 1.4a3.dev225

  ==> Input File <==

--------------------------------------------------------------------------
#psi4
#
memory 32 gb

molecule  {
0 1
  O       -1.3621950    -1.7118670    -1.0487160
  O        1.3250660    -1.5098260    -0.8661080
  O       -3.0202870    -0.6972320     0.8011600
  O        1.4000820    -0.3698310     1.7931610
  O       -3.3935320     1.8007080    -0.1346550
  O        2.6070010     1.5395500    -0.9938350
  O        3.7536980     0.2017363     0.3388620
  C       -0.8211920    -0.9649900     0.0477000
  C        0.4956150    -0.4174700    -0.4760140
  C       -1.8427190     0.0633310     0.5156670
  C        1.2861160     0.3473610     0.5837090
  C       -2.1923660     1.1169960    -0.5276460
  C        2.6663270     0.6479390     0.0251960
  H       -0.6001840    -1.6333830     0.8895000
  H        0.3094840     0.2426950    -1.3366810
  H       -1.4776870     0.5490530     1.4357690
  H        0.7848540     1.2951930     0.8109900
  H       -2.4256530     0.6242850    -1.4728150
  H       -1.3693410     1.8242450    -0.6894300
  H       -2.2436880    -1.9988170    -0.7384990
  H        0.7382740    -2.1149450    -1.3600910
  H       -3.7555350    -0.0560060     0.7240450
  H        2.1352240    -0.9985780     1.6549180
  H       -3.1588320     2.4130520     0.5846580
  H        3.5236120     1.6268920    -1.3298730
units angstrom
no_reorient  #important for SAPT in psi4, default
symmetry c1  #important for SAPT in psi4, default
}

set PROPERTIES_ORIGIN ["COM"]
properties('MP2/aug-cc-pvtz', properties = ['dipole'])
--------------------------------------------------------------------------

    Molecular point group: c1
  Charge       = 0
  Multiplicity = 1
  Basis Set: AUG-CC-PVTZ
    Blend: AUG-CC-PVTZ
  Basis Set: (AUG-CC-PVTZ AUX)
    Blend: AUG-CC-PVTZ-JKFIT

    Orbital Energies [Eh]
    ---------------------

    Doubly Occupied:

       1A    -20.620649     2A    -20.592998     3A    -20.580126
       4A    -20.576608     5A    -20.574759     6A    -20.572366
       7A    -20.562328     8A    -11.400682     9A    -11.324762
      10A    -11.306957    11A    -11.303816    12A    -11.301561
      13A    -11.297925    14A     -1.475734    15A     -1.409369
      16A     -1.398016    17A     -1.384080    18A     -1.368558
      19A     -1.359295    20A     -1.352263    21A     -1.083002
      22A     -1.030884    23A     -0.963275    24A     -0.889522
      25A     -0.829909    26A     -0.805051    27A     -0.759345
      28A     -0.735846    29A     -0.725037    30A     -0.716378
      31A     -0.710330    32A     -0.684277    33A     -0.678236
      34A     -0.649545    35A     -0.640563    36A     -0.638251
      37A     -0.629442    38A     -0.607606    39A     -0.603324
      40A     -0.582755    41A     -0.555122    42A     -0.551406
      43A     -0.543166    44A     -0.535632    45A     -0.532644
      46A     -0.504661    47A     -0.490292    48A     -0.485564
      49A     -0.468024    50A     -0.461024    51A     -0.457899
      52A     -0.444633

  @DF-RHF Final Energy:  -758.52152268926227

   => Energetics <=

    Nuclear Repulsion Energy =            914.6234803170727901
    One-Electron Energy =               -2860.7790066256652608
    Two-Electron Energy =                1187.6340036193303149
    Total Energy =                       -758.5215226892621558
  Basis Set: (AUG-CC-PVTZ AUX)
    Blend: AUG-CC-PVTZ-RI
    Molecular point group: c1

    Geometry (in Angstrom), charge = 0, multiplicity = 1:

       Center              X                  Y                   Z               Mass
    ------------   -----------------  -----------------  -----------------  -----------------
         O           -1.405312635275    -1.708608681053    -1.045797601653    15.994914619570
         O            1.281948364725    -1.506567681053    -0.863189601653    15.994914619570
         O           -3.063404635275    -0.693973681053     0.804078398347    15.994914619570
         O            1.356964364725    -0.366572681053     1.796079398347    15.994914619570
         O           -3.436649635275     1.803966318947    -0.131736601653    15.994914619570
         O            2.563883364725     1.542808318947    -0.990916601653    15.994914619570
         O            3.710580364725     0.204994618947     0.341780398347    15.994914619570
         C           -0.864309635275    -0.961731681053     0.050618398347    12.000000000000
         C            0.452497364725    -0.414211681053    -0.473095601653    12.000000000000
         C           -1.885836635275     0.066589318947     0.518585398347    12.000000000000
         C            1.242998364725     0.350619318947     0.586627398347    12.000000000000
         C           -2.235483635275     1.120254318947    -0.524727601653    12.000000000000
         C            2.623209364725     0.651197318947     0.028114398347    12.000000000000
         H           -0.643301635275    -1.630124681053     0.892418398347     1.007825032230
         H            0.266366364725     0.245953318947    -1.333762601653     1.007825032230
         H           -1.520804635275     0.552311318947     1.438687398347     1.007825032230
         H            0.741736364725     1.298451318947     0.813908398347     1.007825032230
         H           -2.468770635275     0.627543318947    -1.469896601653     1.007825032230
         H           -1.412458635275     1.827503318947    -0.686511601653     1.007825032230
         H           -2.286805635275    -1.995558681053    -0.735580601653     1.007825032230
         H            0.695156364725    -2.111686681053    -1.357172601653     1.007825032230
         H           -3.798652635275    -0.052747681053     0.726963398347     1.007825032230
         H            2.092106364725    -0.995319681053     1.657836398347     1.007825032230
         H           -3.201949635275     2.416310318947     0.587576398347     1.007825032230
         H            3.480494364725     1.630150318947    -1.326954601653     1.007825032230

  Basis Set: AUG-CC-PVTZ
    Blend: AUG-CC-PVTZ
  Basis Set: (AUG-CC-PVTZ AUX)
    Blend: AUG-CC-PVTZ-JKFIT
	 Reference Energy          =    -758.5215226892622695 [Eh]
	 Singles Energy            =      -0.0000000000000000 [Eh]
	 Same-Spin Energy          =      -0.7339741901723507 [Eh]
	 Opposite-Spin Energy      =      -2.2304955688810471 [Eh]
	 Correlation Energy        =      -2.9644697590533977 [Eh]
	 Total Energy              =    -761.4859924483156419 [Eh]

	 ================> DF-SCS-MP2 Energies <==================
	-----------------------------------------------------------
	 SCS Same-Spin Scale       =       0.3333333333333333 [-]
	 SCS Opposite-Spin Scale   =       1.2000000000000000 [-]
	 SCS Same-Spin Energy      =      -0.2446580633907836 [Eh]
	 SCS Opposite-Spin Energy  =      -2.6765946826572562 [Eh]
	 SCS Correlation Energy    =      -2.9212527460480398 [Eh]
	 SCS Total Energy          =    -761.4427754353102955 [Eh]
	-----------------------------------------------------------

  Dipole Moment: [D]
     X:    -1.4998      Y:     2.4743      Z:    -0.5867     Total:     2.9523

*** Psi4 exiting successfully. Buy a developer a beer!
