                               Psi4 1.4a3.dev225

  ==> Input File <==

--------------------------------------------------------------------------
#psi4
#
memory 32 gb

molecule  {
0 1
  O       -1.3621950    -1.7118670    -1.0487160
  O        1.3250660    -1.5098260    -0.8661080
  O       -3.0202870    -0.6972320     0.8011600
  O        1.4000820    -0.3698310     1.7931610
  O       -3.3935320     1.8007080    -0.1346550
  O        2.6070010     1.5395500    -0.9938350
  O        3.6924620     0.1319130     0.4259740
  C       -0.8211920    -0.9649900     0.0477000
  C        0.4956150    -0.4174700    -0.4760140
  C       -1.8427190     0.0633310     0.5156670
  C        1.2861160     0.3473610     0.5837090
  C       -2.1923660     1.1169960    -0.5276460
  C        2.6663270     0.6479390     0.0251960
  H       -0.6001840    -1.6333830     0.8895000
  H        0.3094840     0.2426950    -1.3366810
  H       -1.4114750     0.6371566     1.6026634
  H        0.7848540     1.2951930     0.8109900
  H       -2.4256530     0.6242850    -1.4728150
  H       -1.3693410     1.8242450    -0.6894300
  H       -2.2436880    -1.9988170    -0.7384990
  H        0.7382740    -2.1149450    -1.3600910
  H       -3.7555350    -0.0560060     0.7240450
  H        2.1352240    -0.9985780     1.6549180
  H       -3.1588320     2.4130520     0.5846580
  H        3.5236120     1.6268920    -1.3298730
units angstrom
no_reorient  #important for SAPT in psi4, default
symmetry c1  #important for SAPT in psi4, default
}

set PROPERTIES_ORIGIN ["COM"]
properties('MP2/aug-cc-pvtz', properties = ['dipole'])
--------------------------------------------------------------------------

    Molecular point group: c1
  Charge       = 0
  Multiplicity = 1
  Basis Set: AUG-CC-PVTZ
    Blend: AUG-CC-PVTZ
  Basis Set: (AUG-CC-PVTZ AUX)
    Blend: AUG-CC-PVTZ-JKFIT

    Orbital Energies [Eh]
    ---------------------

    Doubly Occupied:

       1A    -20.630971     2A    -20.592455     3A    -20.580451
       4A    -20.575594     5A    -20.573728     6A    -20.570819
       7A    -20.564465     8A    -11.401175     9A    -11.325121
      10A    -11.317079    11A    -11.304677    12A    -11.303318
      13A    -11.298404    14A     -1.475755    15A     -1.409596
      16A     -1.396481    17A     -1.384107    18A     -1.370351
      19A     -1.362644    20A     -1.352466    21A     -1.078815
      22A     -1.025711    23A     -0.962271    24A     -0.885032
      25A     -0.827556    26A     -0.799257    27A     -0.755924
      28A     -0.736525    29A     -0.723771    30A     -0.716526
      31A     -0.709770    32A     -0.679545    33A     -0.674589
      34A     -0.649935    35A     -0.638324    36A     -0.636541
      37A     -0.622575    38A     -0.605982    39A     -0.602914
      40A     -0.581257    41A     -0.553412    42A     -0.551694
      43A     -0.539314    44A     -0.534594    45A     -0.531660
      46A     -0.501201    47A     -0.495195    48A     -0.484107
      49A     -0.462758    50A     -0.459888    51A     -0.449978
      52A     -0.441592

  @DF-RHF Final Energy:  -758.50341593450105

   => Energetics <=

    Nuclear Repulsion Energy =            914.5997873012269110
    One-Electron Energy =               -2860.7906603874448592
    Two-Electron Energy =                1187.6874571517168988
    Total Energy =                       -758.5034159345009357
  Basis Set: (AUG-CC-PVTZ AUX)
    Blend: AUG-CC-PVTZ-RI
    Molecular point group: c1

    Geometry (in Angstrom), charge = 0, multiplicity = 1:

       Center              X                  Y                   Z               Mass
    ------------   -----------------  -----------------  -----------------  -----------------
         O           -1.400657211516    -1.703365216766    -1.053762320998    15.994914619570
         O            1.286603788484    -1.501324216766    -0.871154320998    15.994914619570
         O           -3.058749211516    -0.688730216766     0.796113679002    15.994914619570
         O            1.361619788484    -0.361329216766     1.788114679002    15.994914619570
         O           -3.431994211516     1.809209783234    -0.139701320998    15.994914619570
         O            2.568538788484     1.548051783234    -0.998881320998    15.994914619570
         O            3.653999788484     0.140414783234     0.420927679002    15.994914619570
         C           -0.859654211516    -0.956488216766     0.042653679002    12.000000000000
         C            0.457152788484    -0.408968216766    -0.481060320998    12.000000000000
         C           -1.881181211516     0.071832783234     0.510620679002    12.000000000000
         C            1.247653788484     0.355862783234     0.578662679002    12.000000000000
         C           -2.230828211516     1.125497783234    -0.532692320998    12.000000000000
         C            2.627864788484     0.656440783234     0.020149679002    12.000000000000
         H           -0.638646211516    -1.624881216766     0.884453679002     1.007825032230
         H            0.271021788484     0.251196783234    -1.341727320998     1.007825032230
         H           -1.449937211516     0.645658383234     1.597617079002     1.007825032230
         H            0.746391788484     1.303694783234     0.805943679002     1.007825032230
         H           -2.464115211516     0.632786783234    -1.477861320998     1.007825032230
         H           -1.407803211516     1.832746783234    -0.694476320998     1.007825032230
         H           -2.282150211516    -1.990315216766    -0.743545320998     1.007825032230
         H            0.699811788484    -2.106443216766    -1.365137320998     1.007825032230
         H           -3.793997211516    -0.047504216766     0.718998679002     1.007825032230
         H            2.096761788484    -0.990076216766     1.649871679002     1.007825032230
         H           -3.197294211516     2.421553783234     0.579611679002     1.007825032230
         H            3.485149788484     1.635393783234    -1.334919320998     1.007825032230

  Basis Set: AUG-CC-PVTZ
    Blend: AUG-CC-PVTZ
  Basis Set: (AUG-CC-PVTZ AUX)
    Blend: AUG-CC-PVTZ-JKFIT
	 Reference Energy          =    -758.5034159345010494 [Eh]
	 Singles Energy            =      -0.0000000000000000 [Eh]
	 Same-Spin Energy          =      -0.7348377968871095 [Eh]
	 Opposite-Spin Energy      =      -2.2331918511019699 [Eh]
	 Correlation Energy        =      -2.9680296479890793 [Eh]
	 Total Energy              =    -761.4714455824901052 [Eh]

	 ================> DF-SCS-MP2 Energies <==================
	-----------------------------------------------------------
	 SCS Same-Spin Scale       =       0.3333333333333333 [-]
	 SCS Opposite-Spin Scale   =       1.2000000000000000 [-]
	 SCS Same-Spin Energy      =      -0.2449459322957032 [Eh]
	 SCS Opposite-Spin Energy  =      -2.6798302213223639 [Eh]
	 SCS Correlation Energy    =      -2.9247761536180672 [Eh]
	 SCS Total Energy          =    -761.4281920881190899 [Eh]
	-----------------------------------------------------------

  Dipole Moment: [D]
     X:    -1.3294      Y:     2.5583      Z:    -0.9284     Total:     3.0289

*** Psi4 exiting successfully. Buy a developer a beer!
