                               Psi4 1.4a3.dev225

  ==> Input File <==

--------------------------------------------------------------------------
#psi4
#
memory 32 gb

molecule  {
0 1
  O       -1.3621950    -1.7118670    -1.0487160
  O        1.3250660    -1.5098260    -0.8661080
  O       -3.0202870    -0.6972320     0.8011600
  O        1.4000820    -0.3698310     1.7931610
  O       -3.3935320     1.8007080    -0.1346550
  O        2.6070010     1.5395500    -0.9938350
  O        3.6924620     0.1319130     0.4259740
  C       -0.8211920    -0.9649900     0.0477000
  C        0.4956150    -0.4174700    -0.4760140
  C       -1.8427190     0.0633310     0.5156670
  C        1.2674657     0.3602260     0.5933458
  C       -2.1923660     1.1169960    -0.5276460
  C        2.6663270     0.6479390     0.0251960
  H       -0.6001840    -1.6333830     0.8895000
  H        0.3094840     0.2426950    -1.3366810
  H       -1.4776870     0.5490530     1.4357690
  H        0.7848540     1.2951930     0.8109900
  H       -2.4256530     0.6242850    -1.4728150
  H       -1.3693410     1.8242450    -0.6894300
  H       -2.2436880    -1.9988170    -0.7384990
  H        0.7382740    -2.1149450    -1.3600910
  H       -3.7555350    -0.0560060     0.7240450
  H        2.1352240    -0.9985780     1.6549180
  H       -3.1588320     2.4130520     0.5846580
  H        3.5236120     1.6268920    -1.3298730
units angstrom
no_reorient  #important for SAPT in psi4, default
symmetry c1  #important for SAPT in psi4, default
}

set PROPERTIES_ORIGIN ["COM"]
properties('MP2/aug-cc-pvtz', properties = ['dipole'])
--------------------------------------------------------------------------

    Molecular point group: c1
  Charge       = 0
  Multiplicity = 1
  Basis Set: AUG-CC-PVTZ
    Blend: AUG-CC-PVTZ
  Basis Set: (AUG-CC-PVTZ AUX)
    Blend: AUG-CC-PVTZ-JKFIT

    Orbital Energies [Eh]
    ---------------------

    Doubly Occupied:

       1A    -20.631081     2A    -20.592158     3A    -20.575348
       4A    -20.573959     5A    -20.572816     6A    -20.570765
       7A    -20.565025     8A    -11.401971     9A    -11.318273
      10A    -11.304332    11A    -11.302325    12A    -11.300567
      13A    -11.295469    14A     -1.475550    15A     -1.407685
      16A     -1.395840    17A     -1.383265    18A     -1.369384
      19A     -1.362276    20A     -1.350478    21A     -1.080314
      22A     -1.026865    23A     -0.960301    24A     -0.887378
      25A     -0.831396    26A     -0.803759    27A     -0.757547
      28A     -0.734256    29A     -0.725579    30A     -0.715378
      31A     -0.712352    32A     -0.683094    33A     -0.676939
      34A     -0.649412    35A     -0.641123    36A     -0.638491
      37A     -0.628476    38A     -0.607446    39A     -0.602303
      40A     -0.582255    41A     -0.553059    42A     -0.550093
      43A     -0.538284    44A     -0.534145    45A     -0.531475
      46A     -0.503393    47A     -0.495617    48A     -0.484947
      49A     -0.466462    50A     -0.458830    51A     -0.455264
      52A     -0.441700

  @DF-RHF Final Energy:  -758.52316621965099

   => Energetics <=

    Nuclear Repulsion Energy =            915.3828819056369639
    One-Electron Energy =               -2862.3990911928613059
    Two-Electron Energy =                1188.4930430675731259
    Total Energy =                       -758.5231662196511024
  Basis Set: (AUG-CC-PVTZ AUX)
    Blend: AUG-CC-PVTZ-RI
    Molecular point group: c1

    Geometry (in Angstrom), charge = 0, multiplicity = 1:

       Center              X                  Y                   Z               Mass
    ------------   -----------------  -----------------  -----------------  -----------------
         O           -1.399175337467    -1.703699744738    -1.053494243832    15.994914619570
         O            1.288085662533    -1.501658744738    -0.870886243832    15.994914619570
         O           -3.057267337467    -0.689064744738     0.796381756168    15.994914619570
         O            1.363101662533    -0.361663744738     1.788382756168    15.994914619570
         O           -3.430512337467     1.808875255262    -0.139433243832    15.994914619570
         O            2.570020662533     1.547717255262    -0.998613243832    15.994914619570
         O            3.655481662533     0.140080255262     0.421195756168    15.994914619570
         C           -0.858172337467    -0.956822744738     0.042921756168    12.000000000000
         C            0.458634662533    -0.409302744738    -0.480792243832    12.000000000000
         C           -1.879699337467     0.071498255262     0.510888756168    12.000000000000
         C            1.230485362533     0.368393255262     0.588567556168    12.000000000000
         C           -2.229346337467     1.125163255262    -0.532424243832    12.000000000000
         C            2.629346662533     0.656106255262     0.020417756168    12.000000000000
         H           -0.637164337467    -1.625215744738     0.884721756168     1.007825032230
         H            0.272503662533     0.250862255262    -1.341459243832     1.007825032230
         H           -1.514667337467     0.557220255262     1.430990756168     1.007825032230
         H            0.747873662533     1.303360255262     0.806211756168     1.007825032230
         H           -2.462633337467     0.632452255262    -1.477593243832     1.007825032230
         H           -1.406321337467     1.832412255262    -0.694208243832     1.007825032230
         H           -2.280668337467    -1.990649744738    -0.743277243832     1.007825032230
         H            0.701293662533    -2.106777744738    -1.364869243832     1.007825032230
         H           -3.792515337467    -0.047838744738     0.719266756168     1.007825032230
         H            2.098243662533    -0.990410744738     1.650139756168     1.007825032230
         H           -3.195812337467     2.421219255262     0.579879756168     1.007825032230
         H            3.486631662533     1.635059255262    -1.334651243832     1.007825032230

  Basis Set: AUG-CC-PVTZ
    Blend: AUG-CC-PVTZ
  Basis Set: (AUG-CC-PVTZ AUX)
    Blend: AUG-CC-PVTZ-JKFIT
	 Reference Energy          =    -758.5231662196509888 [Eh]
	 Singles Energy            =      -0.0000000000000000 [Eh]
	 Same-Spin Energy          =      -0.7342128221973291 [Eh]
	 Opposite-Spin Energy      =      -2.2308540835494290 [Eh]
	 Correlation Energy        =      -2.9650669057467582 [Eh]
	 Total Energy              =    -761.4882331253977554 [Eh]

	 ================> DF-SCS-MP2 Energies <==================
	-----------------------------------------------------------
	 SCS Same-Spin Scale       =       0.3333333333333333 [-]
	 SCS Opposite-Spin Scale   =       1.2000000000000000 [-]
	 SCS Same-Spin Energy      =      -0.2447376073991097 [Eh]
	 SCS Opposite-Spin Energy  =      -2.6770249002593149 [Eh]
	 SCS Correlation Energy    =      -2.9217625076584248 [Eh]
	 SCS Total Energy          =    -761.4449287273093887 [Eh]
	-----------------------------------------------------------

  Dipole Moment: [D]
     X:    -1.2146      Y:     2.6959      Z:    -0.7994     Total:     3.0630

*** Psi4 exiting successfully. Buy a developer a beer!
