                               Psi4 1.4a3.dev225

  ==> Input File <==

--------------------------------------------------------------------------
#psi4
#
memory 32 gb

molecule  {
0 1
  O       -1.3621950    -1.7118670    -1.0487160
  O        1.3250660    -1.5098260    -0.8661080
  O       -3.0202870    -0.6972320     0.8011600
  O        1.4000820    -0.3698310     1.7931610
  O       -3.3935320     1.8007080    -0.1346550
  O        2.6070010     1.5395500    -0.9938350
  O        3.6924620     0.1319130     0.4259740
  C       -0.8211920    -0.9649900     0.0477000
  C        0.4956150    -0.4174700    -0.4760140
  C       -1.8427190     0.0633310     0.5156670
  C        1.2861160     0.3473610     0.5837090
  C       -2.1923660     1.1169960    -0.5276460
  C        2.6663270     0.6479390     0.0251960
  H       -0.6001840    -1.6333830     0.8895000
  H        0.2756589     0.3626650    -1.4930877
  H       -1.4776870     0.5490530     1.4357690
  H        0.7848540     1.2951930     0.8109900
  H       -2.4256530     0.6242850    -1.4728150
  H       -1.3693410     1.8242450    -0.6894300
  H       -2.2436880    -1.9988170    -0.7384990
  H        0.7382740    -2.1149450    -1.3600910
  H       -3.7555350    -0.0560060     0.7240450
  H        2.1352240    -0.9985780     1.6549180
  H       -3.1588320     2.4130520     0.5846580
  H        3.5236120     1.6268920    -1.3298730
units angstrom
no_reorient  #important for SAPT in psi4, default
symmetry c1  #important for SAPT in psi4, default
}

set PROPERTIES_ORIGIN ["COM"]
properties('MP2/aug-cc-pvtz', properties = ['dipole'])
--------------------------------------------------------------------------

    Molecular point group: c1
  Charge       = 0
  Multiplicity = 1
  Basis Set: AUG-CC-PVTZ
    Blend: AUG-CC-PVTZ
  Basis Set: (AUG-CC-PVTZ AUX)
    Blend: AUG-CC-PVTZ-JKFIT

    Orbital Energies [Eh]
    ---------------------

    Doubly Occupied:

       1A    -20.630538     2A    -20.590980     3A    -20.576841
       4A    -20.575293     5A    -20.575150     6A    -20.573352
       7A    -20.565352     8A    -11.402148     9A    -11.325970
      10A    -11.320319    11A    -11.302269    12A    -11.299030
      13A    -11.298323    14A     -1.475900    15A     -1.408105
      16A     -1.397317    17A     -1.384137    18A     -1.370074
      19A     -1.363446    20A     -1.351490    21A     -1.077844
      22A     -1.027482    23A     -0.960706    24A     -0.883007
      25A     -0.830935    26A     -0.798250    27A     -0.755775
      28A     -0.736848    29A     -0.722703    30A     -0.714100
      31A     -0.705611    32A     -0.681308    33A     -0.675849
      34A     -0.650321    35A     -0.639112    36A     -0.637467
      37A     -0.625517    38A     -0.607128    39A     -0.601529
      40A     -0.575414    41A     -0.553331    42A     -0.550044
      43A     -0.539916    44A     -0.533923    45A     -0.530003
      46A     -0.502315    47A     -0.495690    48A     -0.485703
      49A     -0.462889    50A     -0.460905    51A     -0.449254
      52A     -0.439486

  @DF-RHF Final Energy:  -758.50259736884743

   => Energetics <=

    Nuclear Repulsion Energy =            914.5365199537352510
    One-Electron Energy =               -2860.6854281586156503
    Two-Electron Energy =                1187.6463108360330807
    Total Energy =                       -758.5025973688473186
  Basis Set: (AUG-CC-PVTZ AUX)
    Blend: AUG-CC-PVTZ-RI
    Molecular point group: c1

    Geometry (in Angstrom), charge = 0, multiplicity = 1:

       Center              X                  Y                   Z               Mass
    ------------   -----------------  -----------------  -----------------  -----------------
         O           -1.400142977270    -1.703529023935    -1.052100412591    15.994914619570
         O            1.287118022730    -1.501488023935    -0.869492412591    15.994914619570
         O           -3.058234977270    -0.688894023935     0.797775587409    15.994914619570
         O            1.362134022730    -0.361493023935     1.789776587409    15.994914619570
         O           -3.431479977270     1.809045976065    -0.138039412591    15.994914619570
         O            2.569053022730     1.547887976065    -0.997219412591    15.994914619570
         O            3.654514022730     0.140250976065     0.422589587409    15.994914619570
         C           -0.859139977270    -0.956652023935     0.044315587409    12.000000000000
         C            0.457667022730    -0.409132023935    -0.479398412591    12.000000000000
         C           -1.880666977270     0.071668976065     0.512282587409    12.000000000000
         C            1.248168022730     0.355698976065     0.580324587409    12.000000000000
         C           -2.230313977270     1.125333976065    -0.531030412591    12.000000000000
         C            2.628379022730     0.656276976065     0.021811587409    12.000000000000
         H           -0.638131977270    -1.625045023935     0.886115587409     1.007825032230
         H            0.237710922730     0.371002976065    -1.496472112591     1.007825032230
         H           -1.515634977270     0.557390976065     1.432384587409     1.007825032230
         H            0.746906022730     1.303530976065     0.807605587409     1.007825032230
         H           -2.463600977270     0.632622976065    -1.476199412591     1.007825032230
         H           -1.407288977270     1.832582976065    -0.692814412591     1.007825032230
         H           -2.281635977270    -1.990479023935    -0.741883412591     1.007825032230
         H            0.700326022730    -2.106607023935    -1.363475412591     1.007825032230
         H           -3.793482977270    -0.047668023935     0.720660587409     1.007825032230
         H            2.097276022730    -0.990240023935     1.651533587409     1.007825032230
         H           -3.196779977270     2.421389976065     0.581273587409     1.007825032230
         H            3.485664022730     1.635229976065    -1.333257412591     1.007825032230

  Basis Set: AUG-CC-PVTZ
    Blend: AUG-CC-PVTZ
  Basis Set: (AUG-CC-PVTZ AUX)
    Blend: AUG-CC-PVTZ-JKFIT
	 Reference Energy          =    -758.5025973688474323 [Eh]
	 Singles Energy            =      -0.0000000000000000 [Eh]
	 Same-Spin Energy          =      -0.7350611802759041 [Eh]
	 Opposite-Spin Energy      =      -2.2334949150727721 [Eh]
	 Correlation Energy        =      -2.9685560953486760 [Eh]
	 Total Energy              =    -761.4711534641961634 [Eh]

	 ================> DF-SCS-MP2 Energies <==================
	-----------------------------------------------------------
	 SCS Same-Spin Scale       =       0.3333333333333333 [-]
	 SCS Opposite-Spin Scale   =       1.2000000000000000 [-]
	 SCS Same-Spin Energy      =      -0.2450203934253014 [Eh]
	 SCS Opposite-Spin Energy  =      -2.6801938980873263 [Eh]
	 SCS Correlation Energy    =      -2.9252142915126278 [Eh]
	 SCS Total Energy          =    -761.4278116603600211 [Eh]
	-----------------------------------------------------------

  Dipole Moment: [D]
     X:    -1.1441      Y:     2.5483      Z:    -0.7277     Total:     2.8866

*** Psi4 exiting successfully. Buy a developer a beer!
