                               Psi4 1.4a3.dev225

  ==> Input File <==

--------------------------------------------------------------------------
#psi4
#
memory 32 gb

molecule  {
0 1
  O       -1.3621950    -1.7118670    -1.0487160
  O        1.3250660    -1.5098260    -0.8661080
  O       -3.0202870    -0.6972320     0.8011600
  O        1.4000820    -0.3698310     1.7931610
  O       -3.3935320     1.8007080    -0.1346550
  O        2.6070010     1.5395500    -0.9938350
  O        3.6924620     0.1319130     0.4259740
  C       -0.8211920    -0.9649900     0.0477000
  C        0.4956150    -0.4174700    -0.4760140
  C       -1.8427190     0.0633310     0.5156670
  C        1.2861160     0.3473610     0.5837090
  C       -2.1464646     0.9786718    -0.3906808
  C        2.6663270     0.6479390     0.0251960
  H       -0.6001840    -1.6333830     0.8895000
  H        0.3094840     0.2426950    -1.3366810
  H       -1.4776870     0.5490530     1.4357690
  H        0.7848540     1.2951930     0.8109900
  H       -2.4256530     0.6242850    -1.4728150
  H       -1.3693410     1.8242450    -0.6894300
  H       -2.2436880    -1.9988170    -0.7384990
  H        0.7382740    -2.1149450    -1.3600910
  H       -3.7555350    -0.0560060     0.7240450
  H        2.1352240    -0.9985780     1.6549180
  H       -3.1588320     2.4130520     0.5846580
  H        3.5236120     1.6268920    -1.3298730
units angstrom
no_reorient  #important for SAPT in psi4, default
symmetry c1  #important for SAPT in psi4, default
}

set PROPERTIES_ORIGIN ["COM"]
properties('MP2/aug-cc-pvtz', properties = ['dipole'])
--------------------------------------------------------------------------

    Molecular point group: c1
  Charge       = 0
  Multiplicity = 1
  Basis Set: AUG-CC-PVTZ
    Blend: AUG-CC-PVTZ
  Basis Set: (AUG-CC-PVTZ AUX)
    Blend: AUG-CC-PVTZ-JKFIT

    Orbital Energies [Eh]
    ---------------------

    Doubly Occupied:

       1A    -20.632136     2A    -20.586654     3A    -20.578951
       4A    -20.576508     5A    -20.576325     6A    -20.572517
       7A    -20.566032     8A    -11.402893     9A    -11.319554
      10A    -11.308367    11A    -11.306684    12A    -11.302827
      13A    -11.296590    14A     -1.477093    15A     -1.412524
      16A     -1.396893    17A     -1.381918    18A     -1.366929
      19A     -1.358680    20A     -1.348028    21A     -1.105061
      22A     -1.049115    23A     -0.971258    24A     -0.882659
      25A     -0.830935    26A     -0.803644    27A     -0.762909
      28A     -0.739519    29A     -0.731985    30A     -0.717004
      31A     -0.703400    32A     -0.692579    33A     -0.674718
      34A     -0.651612    35A     -0.645269    36A     -0.638874
      37A     -0.631786    38A     -0.608710    39A     -0.587517
      40A     -0.570870    41A     -0.563783    42A     -0.551718
      43A     -0.540493    44A     -0.531710    45A     -0.520904
      46A     -0.496605    47A     -0.487446    48A     -0.485138
      49A     -0.475062    50A     -0.465809    51A     -0.457338
      52A     -0.451025

  @DF-RHF Final Energy:  -758.47111427039169

   => Energetics <=

    Nuclear Repulsion Energy =            918.9282605491143840
    One-Electron Energy =               -2869.2096306175717473
    Two-Electron Energy =                1191.8102557980657821
    Total Energy =                       -758.4711142703915812
  Basis Set: (AUG-CC-PVTZ AUX)
    Blend: AUG-CC-PVTZ-RI
    Molecular point group: c1

    Geometry (in Angstrom), charge = 0, multiplicity = 1:

       Center              X                  Y                   Z               Mass
    ------------   -----------------  -----------------  -----------------  -----------------
         O           -1.403126307098    -1.694446015747    -1.061287541942    15.994914619570
         O            1.284134692902    -1.492405015747    -0.878679541942    15.994914619570
         O           -3.061218307098    -0.679811015747     0.788588458058    15.994914619570
         O            1.359150692902    -0.352410015747     1.780589458058    15.994914619570
         O           -3.434463307098     1.818128984253    -0.147226541942    15.994914619570
         O            2.566069692902     1.556970984253    -1.006406541942    15.994914619570
         O            3.651530692902     0.149333984253     0.413402458058    15.994914619570
         C           -0.862123307098    -0.947569015747     0.035128458058    12.000000000000
         C            0.454683692902    -0.400049015747    -0.488585541942    12.000000000000
         C           -1.883650307098     0.080751984253     0.503095458058    12.000000000000
         C            1.245184692902     0.364781984253     0.571137458058    12.000000000000
         C           -2.187395907098     0.996092784253    -0.403252341942    12.000000000000
         C            2.625395692902     0.665359984253     0.012624458058    12.000000000000
         H           -0.641115307098    -1.615962015747     0.876928458058     1.007825032230
         H            0.268552692902     0.260115984253    -1.349252541942     1.007825032230
         H           -1.518618307098     0.566473984253     1.423197458058     1.007825032230
         H            0.743922692902     1.312613984253     0.798418458058     1.007825032230
         H           -2.466584307098     0.641705984253    -1.485386541942     1.007825032230
         H           -1.410272307098     1.841665984253    -0.702001541942     1.007825032230
         H           -2.284619307098    -1.981396015747    -0.751070541942     1.007825032230
         H            0.697342692902    -2.097524015747    -1.372662541942     1.007825032230
         H           -3.796466307098    -0.038585015747     0.711473458058     1.007825032230
         H            2.094292692902    -0.981157015747     1.642346458058     1.007825032230
         H           -3.199763307098     2.430472984253     0.572086458058     1.007825032230
         H            3.482680692902     1.644312984253    -1.342444541942     1.007825032230

  Basis Set: AUG-CC-PVTZ
    Blend: AUG-CC-PVTZ
  Basis Set: (AUG-CC-PVTZ AUX)
    Blend: AUG-CC-PVTZ-JKFIT
	 Reference Energy          =    -758.4711142703916948 [Eh]
	 Singles Energy            =      -0.0000000000000000 [Eh]
	 Same-Spin Energy          =      -0.7380508230888012 [Eh]
	 Opposite-Spin Energy      =      -2.2370161827235253 [Eh]
	 Correlation Energy        =      -2.9750670058123267 [Eh]
	 Total Energy              =    -761.4461812762040154 [Eh]

	 ================> DF-SCS-MP2 Energies <==================
	-----------------------------------------------------------
	 SCS Same-Spin Scale       =       0.3333333333333333 [-]
	 SCS Opposite-Spin Scale   =       1.2000000000000000 [-]
	 SCS Same-Spin Energy      =      -0.2460169410296004 [Eh]
	 SCS Opposite-Spin Energy  =      -2.6844194192682305 [Eh]
	 SCS Correlation Energy    =      -2.9304363602978309 [Eh]
	 SCS Total Energy          =    -761.4015506306894849 [Eh]
	-----------------------------------------------------------

  Dipole Moment: [D]
     X:    -0.9719      Y:     2.3583      Z:    -0.7394     Total:     2.6557

*** Psi4 exiting successfully. Buy a developer a beer!
