                               Psi4 1.4a3.dev225

  ==> Input File <==

--------------------------------------------------------------------------
#psi4
#
memory 32 gb

molecule  {
0 1
  O       -1.3621950    -1.7118670    -1.0487160
  O        1.3250660    -1.5098260    -0.8661080
  O       -3.0202870    -0.6972320     0.8011600
  O        1.4000820    -0.3698310     1.7931610
  O       -3.3935320     1.8007080    -0.1346550
  O        2.6070010     1.5395500    -0.9938350
  O        3.6924620     0.1319130     0.4259740
  C       -0.8211920    -0.9649900     0.0477000
  C        0.6119496    -0.5706783    -0.5307266
  C       -1.8427190     0.0633310     0.5156670
  C        1.2861160     0.3473610     0.5837090
  C       -2.1923660     1.1169960    -0.5276460
  C        2.6663270     0.6479390     0.0251960
  H       -0.6001840    -1.6333830     0.8895000
  H        0.3094840     0.2426950    -1.3366810
  H       -1.4776870     0.5490530     1.4357690
  H        0.7848540     1.2951930     0.8109900
  H       -2.4256530     0.6242850    -1.4728150
  H       -1.3693410     1.8242450    -0.6894300
  H       -2.2436880    -1.9988170    -0.7384990
  H        0.7382740    -2.1149450    -1.3600910
  H       -3.7555350    -0.0560060     0.7240450
  H        2.1352240    -0.9985780     1.6549180
  H       -3.1588320     2.4130520     0.5846580
  H        3.5236120     1.6268920    -1.3298730
units angstrom
no_reorient  #important for SAPT in psi4, default
symmetry c1  #important for SAPT in psi4, default
}

set PROPERTIES_ORIGIN ["COM"]
properties('MP2/aug-cc-pvtz', properties = ['dipole'])
--------------------------------------------------------------------------

    Molecular point group: c1
  Charge       = 0
  Multiplicity = 1
  Basis Set: AUG-CC-PVTZ
    Blend: AUG-CC-PVTZ
  Basis Set: (AUG-CC-PVTZ AUX)
    Blend: AUG-CC-PVTZ-JKFIT

    Orbital Energies [Eh]
    ---------------------

    Doubly Occupied:

       1A    -20.628568     2A    -20.595052     3A    -20.588744
       4A    -20.573643     5A    -20.571251     6A    -20.570282
       7A    -20.562603     8A    -11.396675     9A    -11.313326
      10A    -11.312835    11A    -11.300942    12A    -11.296373
      13A    -11.290503    14A     -1.487536    15A     -1.471079
      16A     -1.401603    17A     -1.385225    18A     -1.375803
      19A     -1.362276    20A     -1.353174    21A     -1.060348
      22A     -1.020482    23A     -0.950708    24A     -0.886279
      25A     -0.829726    26A     -0.821059    27A     -0.763124
      28A     -0.734134    29A     -0.724344    30A     -0.713320
      31A     -0.710912    32A     -0.699806    33A     -0.687006
      34A     -0.661128    35A     -0.656250    36A     -0.637958
      37A     -0.627591    38A     -0.615922    39A     -0.602105
      40A     -0.591131    41A     -0.554471    42A     -0.548646
      43A     -0.541029    44A     -0.533983    45A     -0.531974
      46A     -0.501059    47A     -0.494060    48A     -0.480012
      49A     -0.460779    50A     -0.455063    51A     -0.424889
      52A     -0.415731

  @DF-RHF Final Energy:  -758.48004958762044

   => Energetics <=

    Nuclear Repulsion Energy =            915.9154985987476039
    One-Electron Energy =               -2863.2460614636183891
    Two-Electron Energy =                1188.8505132772504567
    Total Energy =                       -758.4800495876204423
  Basis Set: (AUG-CC-PVTZ AUX)
    Blend: AUG-CC-PVTZ-RI
    Molecular point group: c1

    Geometry (in Angstrom), charge = 0, multiplicity = 1:

       Center              X                  Y                   Z               Mass
    ------------   -----------------  -----------------  -----------------  -----------------
         O           -1.407437261484    -1.693535015307    -1.049555656232    15.994914619570
         O            1.279823738516    -1.491494015307    -0.866947656232    15.994914619570
         O           -3.065529261484    -0.678900015307     0.800320343768    15.994914619570
         O            1.354839738516    -0.351499015307     1.792321343768    15.994914619570
         O           -3.438774261484     1.819039984693    -0.135494656232    15.994914619570
         O            2.561758738516     1.557881984693    -0.994674656232    15.994914619570
         O            3.647219738516     0.150244984693     0.425134343768    15.994914619570
         C           -0.866434261484    -0.946658015307     0.046860343768    12.000000000000
         C            0.566707338516    -0.552346315307    -0.531566256232    12.000000000000
         C           -1.887961261484     0.081662984693     0.514827343768    12.000000000000
         C            1.240873738516     0.365692984693     0.582869343768    12.000000000000
         C           -2.237608261484     1.135327984693    -0.528485656232    12.000000000000
         C            2.621084738516     0.666270984693     0.024356343768    12.000000000000
         H           -0.645426261484    -1.615051015307     0.888660343768     1.007825032230
         H            0.264241738516     0.261026984693    -1.337520656232     1.007825032230
         H           -1.522929261484     0.567384984693     1.434929343768     1.007825032230
         H            0.739611738516     1.313524984693     0.810150343768     1.007825032230
         H           -2.470895261484     0.642616984693    -1.473654656232     1.007825032230
         H           -1.414583261484     1.842576984693    -0.690269656232     1.007825032230
         H           -2.288930261484    -1.980485015307    -0.739338656232     1.007825032230
         H            0.693031738516    -2.096613015307    -1.360930656232     1.007825032230
         H           -3.800777261484    -0.037674015307     0.723205343768     1.007825032230
         H            2.089981738516    -0.980246015307     1.654078343768     1.007825032230
         H           -3.204074261484     2.431383984693     0.583818343768     1.007825032230
         H            3.478369738516     1.645223984693    -1.330712656232     1.007825032230

  Basis Set: AUG-CC-PVTZ
    Blend: AUG-CC-PVTZ
  Basis Set: (AUG-CC-PVTZ AUX)
    Blend: AUG-CC-PVTZ-JKFIT
	 Reference Energy          =    -758.4800495876204423 [Eh]
	 Singles Energy            =      -0.0000000000000000 [Eh]
	 Same-Spin Energy          =      -0.7352835702648485 [Eh]
	 Opposite-Spin Energy      =      -2.2302267422865700 [Eh]
	 Correlation Energy        =      -2.9655103125514186 [Eh]
	 Total Energy              =    -761.4455599001718156 [Eh]

	 ================> DF-SCS-MP2 Energies <==================
	-----------------------------------------------------------
	 SCS Same-Spin Scale       =       0.3333333333333333 [-]
	 SCS Opposite-Spin Scale   =       1.2000000000000000 [-]
	 SCS Same-Spin Energy      =      -0.2450945234216161 [Eh]
	 SCS Opposite-Spin Energy  =      -2.6762720907438839 [Eh]
	 SCS Correlation Energy    =      -2.9213666141655001 [Eh]
	 SCS Total Energy          =    -761.4014162017859917 [Eh]
	-----------------------------------------------------------

  Dipole Moment: [D]
     X:    -0.8394      Y:     2.0422      Z:    -1.0080     Total:     2.4272

*** Psi4 exiting successfully. Buy a developer a beer!
