                               Psi4 1.4a3.dev225

  ==> Input File <==

--------------------------------------------------------------------------
#psi4
#
memory 32 gb

molecule  {
0 1
  O       -1.3621950    -1.7118670    -1.0487160
  O        1.3070823    -1.5256276    -0.8593043
  O       -3.0202870    -0.6972320     0.8011600
  O        1.4000820    -0.3698310     1.7931610
  O       -3.3935320     1.8007080    -0.1346550
  O        2.6070010     1.5395500    -0.9938350
  O        3.6924620     0.1319130     0.4259740
  C       -0.8211920    -0.9649900     0.0477000
  C        0.4956150    -0.4174700    -0.4760140
  C       -1.8427190     0.0633310     0.5156670
  C        1.2861160     0.3473610     0.5837090
  C       -2.1923660     1.1169960    -0.5276460
  C        2.6663270     0.6479390     0.0251960
  H       -0.6001840    -1.6333830     0.8895000
  H        0.3094840     0.2426950    -1.3366810
  H       -1.4776870     0.5490530     1.4357690
  H        0.7848540     1.2951930     0.8109900
  H       -2.4256530     0.6242850    -1.4728150
  H       -1.3693410     1.8242450    -0.6894300
  H       -2.2436880    -1.9988170    -0.7384990
  H        0.7382740    -2.1149450    -1.3600910
  H       -3.7555350    -0.0560060     0.7240450
  H        2.1352240    -0.9985780     1.6549180
  H       -3.1588320     2.4130520     0.5846580
  H        3.5236120     1.6268920    -1.3298730
units angstrom
no_reorient  #important for SAPT in psi4, default
symmetry c1  #important for SAPT in psi4, default
}

set PROPERTIES_ORIGIN ["COM"]
properties('MP2/aug-cc-pvtz', properties = ['dipole'])
--------------------------------------------------------------------------

    Molecular point group: c1
  Charge       = 0
  Multiplicity = 1
  Basis Set: AUG-CC-PVTZ
    Blend: AUG-CC-PVTZ
  Basis Set: (AUG-CC-PVTZ AUX)
    Blend: AUG-CC-PVTZ-JKFIT

    Orbital Energies [Eh]
    ---------------------

    Doubly Occupied:

       1A    -20.631908     2A    -20.591899     3A    -20.575003
       4A    -20.574910     5A    -20.572470     6A    -20.568402
       7A    -20.565602     8A    -11.402323     9A    -11.318893
      10A    -11.304733    11A    -11.301728    12A    -11.300257
      13A    -11.295143    14A     -1.476746    15A     -1.407973
      16A     -1.396922    17A     -1.384066    18A     -1.370135
      19A     -1.363141    20A     -1.350748    21A     -1.080887
      22A     -1.028467    23A     -0.961265    24A     -0.888699
      25A     -0.830820    26A     -0.803476    27A     -0.758485
      28A     -0.736922    29A     -0.726186    30A     -0.715111
      31A     -0.712837    32A     -0.682983    33A     -0.677534
      34A     -0.651146    35A     -0.640388    36A     -0.636804
      37A     -0.628564    38A     -0.607393    39A     -0.601806
      40A     -0.582025    41A     -0.552882    42A     -0.549793
      43A     -0.539714    44A     -0.533931    45A     -0.530947
      46A     -0.503070    47A     -0.496231    48A     -0.484739
      49A     -0.466543    50A     -0.459638    51A     -0.455793
      52A     -0.442671

  @DF-RHF Final Energy:  -758.52446201269333

   => Energetics <=

    Nuclear Repulsion Energy =            915.6428221389123792
    One-Electron Energy =               -2862.8930631349412579
    Two-Electron Energy =                1188.7257789833356583
    Total Energy =                       -758.5244620126932205
  Basis Set: (AUG-CC-PVTZ AUX)
    Blend: AUG-CC-PVTZ-RI
    Molecular point group: c1

    Geometry (in Angstrom), charge = 0, multiplicity = 1:

       Center              X                  Y                   Z               Mass
    ------------   -----------------  -----------------  -----------------  -----------------
         O           -1.398849698893    -1.701623192829    -1.053459473566    15.994914619570
         O            1.270427601107    -1.515383792829    -0.864047773566    15.994914619570
         O           -3.056941698893    -0.686988192829     0.796416526434    15.994914619570
         O            1.363427301107    -0.359587192829     1.788417526434    15.994914619570
         O           -3.430186698893     1.810951807171    -0.139398473566    15.994914619570
         O            2.570346301107     1.549793807171    -0.998578473566    15.994914619570
         O            3.655807301107     0.142156807171     0.421230526434    15.994914619570
         C           -0.857846698893    -0.954746192829     0.042956526434    12.000000000000
         C            0.458960301107    -0.407226192829    -0.480757473566    12.000000000000
         C           -1.879373698893     0.073574807171     0.510923526434    12.000000000000
         C            1.249461301107     0.357604807171     0.578965526434    12.000000000000
         C           -2.229020698893     1.127239807171    -0.532389473566    12.000000000000
         C            2.629672301107     0.658182807171     0.020452526434    12.000000000000
         H           -0.636838698893    -1.623139192829     0.884756526434     1.007825032230
         H            0.272829301107     0.252938807171    -1.341424473566     1.007825032230
         H           -1.514341698893     0.559296807171     1.431025526434     1.007825032230
         H            0.748199301107     1.305436807171     0.806246526434     1.007825032230
         H           -2.462307698893     0.634528807171    -1.477558473566     1.007825032230
         H           -1.405995698893     1.834488807171    -0.694173473566     1.007825032230
         H           -2.280342698893    -1.988573192829    -0.743242473566     1.007825032230
         H            0.701619301107    -2.104701192829    -1.364834473566     1.007825032230
         H           -3.792189698893    -0.045762192829     0.719301526434     1.007825032230
         H            2.098569301107    -0.988334192829     1.650174526434     1.007825032230
         H           -3.195486698893     2.423295807171     0.579914526434     1.007825032230
         H            3.486957301107     1.637135807171    -1.334616473566     1.007825032230

  Basis Set: AUG-CC-PVTZ
    Blend: AUG-CC-PVTZ
  Basis Set: (AUG-CC-PVTZ AUX)
    Blend: AUG-CC-PVTZ-JKFIT
	 Reference Energy          =    -758.5244620126933341 [Eh]
	 Singles Energy            =      -0.0000000000000000 [Eh]
	 Same-Spin Energy          =      -0.7340357685982427 [Eh]
	 Opposite-Spin Energy      =      -2.2303559312196128 [Eh]
	 Correlation Energy        =      -2.9643916998178557 [Eh]
	 Total Energy              =    -761.4888537125111725 [Eh]

	 ================> DF-SCS-MP2 Energies <==================
	-----------------------------------------------------------
	 SCS Same-Spin Scale       =       0.3333333333333333 [-]
	 SCS Opposite-Spin Scale   =       1.2000000000000000 [-]
	 SCS Same-Spin Energy      =      -0.2446785895327476 [Eh]
	 SCS Opposite-Spin Energy  =      -2.6764271174635352 [Eh]
	 SCS Correlation Energy    =      -2.9211057069962827 [Eh]
	 SCS Total Energy          =    -761.4455677196896204 [Eh]
	-----------------------------------------------------------

  Dipole Moment: [D]
     X:    -1.1668      Y:     2.7124      Z:    -0.8176     Total:     3.0638

*** Psi4 exiting successfully. Buy a developer a beer!
