                               Psi4 1.4a3.dev225

  ==> Input File <==

--------------------------------------------------------------------------
#psi4
#
memory 32 gb

molecule  {
0 1
  O       -1.3621950    -1.7118670    -1.0487160
  O        1.3250660    -1.5098260    -0.8661080
  O       -3.0202870    -0.6972320     0.8011600
  O        1.4000820    -0.3698310     1.7931610
  O       -3.3935320     1.8007080    -0.1346550
  O        2.6070010     1.5395500    -0.9938350
  O        3.6924620     0.1319130     0.4259740
  C       -0.8211920    -0.9649900     0.0477000
  C        0.4956150    -0.4174700    -0.4760140
  C       -1.8427190     0.0633310     0.5156670
  C        1.3235151     0.3209796     0.5655434
  C       -2.1923660     1.1169960    -0.5276460
  C        2.6663270     0.6479390     0.0251960
  H       -0.6001840    -1.6333830     0.8895000
  H        0.3094840     0.2426950    -1.3366810
  H       -1.4776870     0.5490530     1.4357690
  H        0.7848540     1.2951930     0.8109900
  H       -2.4256530     0.6242850    -1.4728150
  H       -1.3693410     1.8242450    -0.6894300
  H       -2.2436880    -1.9988170    -0.7384990
  H        0.7382740    -2.1149450    -1.3600910
  H       -3.7555350    -0.0560060     0.7240450
  H        2.1352240    -0.9985780     1.6549180
  H       -3.1588320     2.4130520     0.5846580
  H        3.5236120     1.6268920    -1.3298730
units angstrom
no_reorient  #important for SAPT in psi4, default
symmetry c1  #important for SAPT in psi4, default
}

set PROPERTIES_ORIGIN ["COM"]
properties('MP2/aug-cc-pvtz', properties = ['dipole'])
--------------------------------------------------------------------------

    Molecular point group: c1
  Charge       = 0
  Multiplicity = 1
  Basis Set: AUG-CC-PVTZ
    Blend: AUG-CC-PVTZ
  Basis Set: (AUG-CC-PVTZ AUX)
    Blend: AUG-CC-PVTZ-JKFIT

    Orbital Energies [Eh]
    ---------------------

    Doubly Occupied:

       1A    -20.632076     2A    -20.591837     3A    -20.576691
       4A    -20.575195     5A    -20.573708     6A    -20.569805
       7A    -20.565134     8A    -11.401555     9A    -11.318667
      10A    -11.304692    11A    -11.302082    12A    -11.300179
      13A    -11.296610    14A     -1.477722    15A     -1.408116
      16A     -1.397558    17A     -1.384569    18A     -1.369938
      19A     -1.363116    20A     -1.350923    21A     -1.080673
      22A     -1.031112    23A     -0.963568    24A     -0.890064
      25A     -0.829663    26A     -0.800419    27A     -0.758954
      28A     -0.741209    29A     -0.725769    30A     -0.715063
      31A     -0.712979    32A     -0.683190    33A     -0.675483
      34A     -0.651060    35A     -0.639897    36A     -0.633749
      37A     -0.628787    38A     -0.606711    39A     -0.601195
      40A     -0.579240    41A     -0.553002    42A     -0.550179
      43A     -0.541594    44A     -0.534363    45A     -0.530157
      46A     -0.503085    47A     -0.495849    48A     -0.482901
      49A     -0.466391    50A     -0.463104    51A     -0.455317
      52A     -0.444451

  @DF-RHF Final Energy:  -758.52009673651287

   => Energetics <=

    Nuclear Repulsion Energy =            915.9784125579269585
    One-Electron Energy =               -2863.5383127464383506
    Two-Electron Energy =                1189.0398034519985231
    Total Energy =                       -758.5200967365128690
  Basis Set: (AUG-CC-PVTZ AUX)
    Blend: AUG-CC-PVTZ-RI
    Molecular point group: c1

    Geometry (in Angstrom), charge = 0, multiplicity = 1:

       Center              X                  Y                   Z               Mass
    ------------   -----------------  -----------------  -----------------  -----------------
         O           -1.402605912916    -1.701297618465    -1.051792562264    15.994914619570
         O            1.284655087084    -1.499256618465    -0.869184562264    15.994914619570
         O           -3.060697912916    -0.686662618465     0.798083437736    15.994914619570
         O            1.359671087084    -0.359261618465     1.790084437736    15.994914619570
         O           -3.433942912916     1.811277381535    -0.137731562264    15.994914619570
         O            2.566590087084     1.550119381535    -0.996911562264    15.994914619570
         O            3.652051087084     0.142482381535     0.422897437736    15.994914619570
         C           -0.861602912916    -0.954420618465     0.044623437736    12.000000000000
         C            0.455204087084    -0.406900618465    -0.479090562264    12.000000000000
         C           -1.883129912916     0.073900381535     0.512590437736    12.000000000000
         C            1.283104187084     0.331548981535     0.562466837736    12.000000000000
         C           -2.232776912916     1.127565381535    -0.530722562264    12.000000000000
         C            2.625916087084     0.658508381535     0.022119437736    12.000000000000
         H           -0.640594912916    -1.622813618465     0.886423437736     1.007825032230
         H            0.269073087084     0.253264381535    -1.339757562264     1.007825032230
         H           -1.518097912916     0.559622381535     1.432692437736     1.007825032230
         H            0.744443087084     1.305762381535     0.807913437736     1.007825032230
         H           -2.466063912916     0.634854381535    -1.475891562264     1.007825032230
         H           -1.409751912916     1.834814381535    -0.692506562264     1.007825032230
         H           -2.284098912916    -1.988247618465    -0.741575562264     1.007825032230
         H            0.697863087084    -2.104375618465    -1.363167562264     1.007825032230
         H           -3.795945912916    -0.045436618465     0.720968437736     1.007825032230
         H            2.094813087084    -0.988008618465     1.651841437736     1.007825032230
         H           -3.199242912916     2.423621381535     0.581581437736     1.007825032230
         H            3.483201087084     1.637461381535    -1.332949562264     1.007825032230

  Basis Set: AUG-CC-PVTZ
    Blend: AUG-CC-PVTZ
  Basis Set: (AUG-CC-PVTZ AUX)
    Blend: AUG-CC-PVTZ-JKFIT
	 Reference Energy          =    -758.5200967365128690 [Eh]
	 Singles Energy            =      -0.0000000000000000 [Eh]
	 Same-Spin Energy          =      -0.7346546008244016 [Eh]
	 Opposite-Spin Energy      =      -2.2315989080103638 [Eh]
	 Correlation Energy        =      -2.9662535088347655 [Eh]
	 Total Energy              =    -761.4863502453475803 [Eh]

	 ================> DF-SCS-MP2 Energies <==================
	-----------------------------------------------------------
	 SCS Same-Spin Scale       =       0.3333333333333333 [-]
	 SCS Opposite-Spin Scale   =       1.2000000000000000 [-]
	 SCS Same-Spin Energy      =      -0.2448848669414672 [Eh]
	 SCS Opposite-Spin Energy  =      -2.6779186896124365 [Eh]
	 SCS Correlation Energy    =      -2.9228035565539039 [Eh]
	 SCS Total Energy          =    -761.4429002930668275 [Eh]
	-----------------------------------------------------------

  Dipole Moment: [D]
     X:    -1.2131      Y:     2.6279      Z:    -0.8082     Total:     3.0051

*** Psi4 exiting successfully. Buy a developer a beer!
