                               Psi4 1.4a3.dev225

  ==> Input File <==

--------------------------------------------------------------------------
#psi4
#
memory 32 gb

molecule  {
0 1
  O       -1.3621950    -1.7118670    -1.0487160
  O        1.3250660    -1.5098260    -0.8661080
  O       -3.0202870    -0.6972320     0.8011600
  O        1.4000820    -0.3698310     1.7931610
  O       -3.3935320     1.8007080    -0.1346550
  O        2.6070010     1.5395500    -0.9938350
  O        3.6924620     0.1319130     0.4259740
  C       -0.8211920    -0.9649900     0.0477000
  C        0.4956150    -0.4174700    -0.4760140
  C       -1.8427190     0.0633310     0.5156670
  C        1.2861160     0.3473610     0.5837090
  C       -2.1923660     1.1169960    -0.5276460
  C        2.6663270     0.6479390     0.0251960
  H       -0.6001840    -1.6333830     0.8895000
  H        0.3094840     0.2426950    -1.3366810
  H       -1.4776870     0.5490530     1.4357690
  H        0.7848540     1.2951930     0.8109900
  H       -2.4256530     0.6242850    -1.4728150
  H       -1.3693410     1.8242450    -0.6894300
  H       -2.2436880    -1.9988170    -0.7384990
  H        0.7382740    -2.1149450    -1.3600910
  H       -3.7705611    -0.0429014     0.7224690
  H        2.1352240    -0.9985780     1.6549180
  H       -3.1588320     2.4130520     0.5846580
  H        3.5236120     1.6268920    -1.3298730
units angstrom
no_reorient  #important for SAPT in psi4, default
symmetry c1  #important for SAPT in psi4, default
}

set PROPERTIES_ORIGIN ["COM"]
properties('MP2/aug-cc-pvtz', properties = ['dipole'])
--------------------------------------------------------------------------

    Molecular point group: c1
  Charge       = 0
  Multiplicity = 1
  Basis Set: AUG-CC-PVTZ
    Blend: AUG-CC-PVTZ
  Basis Set: (AUG-CC-PVTZ AUX)
    Blend: AUG-CC-PVTZ-JKFIT

    Orbital Energies [Eh]
    ---------------------

    Doubly Occupied:

       1A    -20.631396     2A    -20.592443     3A    -20.576319
       4A    -20.574700     5A    -20.572922     6A    -20.570325
       7A    -20.565036     8A    -11.401834     9A    -11.318173
      10A    -11.304239    11A    -11.301920    12A    -11.300385
      13A    -11.295670    14A     -1.476237    15A     -1.406641
      16A     -1.396001    17A     -1.383699    18A     -1.368873
      19A     -1.361776    20A     -1.349027    21A     -1.079957
      22A     -1.027617    23A     -0.961243    24A     -0.887407
      25A     -0.830371    26A     -0.802369    27A     -0.757473
      28A     -0.736437    29A     -0.725042    30A     -0.715347
      31A     -0.711879    32A     -0.682246    33A     -0.675374
      34A     -0.649868    35A     -0.639938    36A     -0.636464
      37A     -0.628385    38A     -0.607000    39A     -0.601908
      40A     -0.580799    41A     -0.553216    42A     -0.548647
      43A     -0.539397    44A     -0.533941    45A     -0.530720
      46A     -0.503319    47A     -0.495666    48A     -0.484433
      49A     -0.465998    50A     -0.459892    51A     -0.455207
      52A     -0.442735

  @DF-RHF Final Energy:  -758.52189009884580

   => Energetics <=

    Nuclear Repulsion Energy =            915.4678991521152511
    One-Electron Energy =               -2862.5837595390303250
    Two-Electron Energy =                1188.5939702880693858
    Total Energy =                       -758.5218900988456880
  Basis Set: (AUG-CC-PVTZ AUX)
    Blend: AUG-CC-PVTZ-RI
    Molecular point group: c1

    Geometry (in Angstrom), charge = 0, multiplicity = 1:

       Center              X                  Y                   Z               Mass
    ------------   -----------------  -----------------  -----------------  -----------------
         O           -1.400239612314    -1.702979689254    -1.052896309796    15.994914619570
         O            1.287021387686    -1.500938689254    -0.870288309796    15.994914619570
         O           -3.058331612314    -0.688344689254     0.796979690204    15.994914619570
         O            1.362037387686    -0.360943689254     1.788980690204    15.994914619570
         O           -3.431576612314     1.809595310746    -0.138835309796    15.994914619570
         O            2.568956387686     1.548437310746    -0.998015309796    15.994914619570
         O            3.654417387686     0.140800310746     0.421793690204    15.994914619570
         C           -0.859236612314    -0.956102689254     0.043519690204    12.000000000000
         C            0.457570387686    -0.408582689254    -0.480194309796    12.000000000000
         C           -1.880763612314     0.072218310746     0.511486690204    12.000000000000
         C            1.248071387686     0.356248310746     0.579528690204    12.000000000000
         C           -2.230410612314     1.125883310746    -0.531826309796    12.000000000000
         C            2.628282387686     0.656826310746     0.021015690204    12.000000000000
         H           -0.638228612314    -1.624495689254     0.885319690204     1.007825032230
         H            0.271439387686     0.251582310746    -1.340861309796     1.007825032230
         H           -1.515731612314     0.557940310746     1.431588690204     1.007825032230
         H            0.746809387686     1.304080310746     0.806809690204     1.007825032230
         H           -2.463697612314     0.633172310746    -1.476995309796     1.007825032230
         H           -1.407385612314     1.833132310746    -0.693610309796     1.007825032230
         H           -2.281732612314    -1.989929689254    -0.742679309796     1.007825032230
         H            0.700229387686    -2.106057689254    -1.364271309796     1.007825032230
         H           -3.808605712314    -0.034014089254     0.718288690204     1.007825032230
         H            2.097179387686    -0.989690689254     1.650737690204     1.007825032230
         H           -3.196876612314     2.421939310746     0.580477690204     1.007825032230
         H            3.485567387686     1.635779310746    -1.334053309796     1.007825032230

  Basis Set: AUG-CC-PVTZ
    Blend: AUG-CC-PVTZ
  Basis Set: (AUG-CC-PVTZ AUX)
    Blend: AUG-CC-PVTZ-JKFIT
	 Reference Energy          =    -758.5218900988458017 [Eh]
	 Singles Energy            =      -0.0000000000000000 [Eh]
	 Same-Spin Energy          =      -0.7346169878809622 [Eh]
	 Opposite-Spin Energy      =      -2.2316745314119175 [Eh]
	 Correlation Energy        =      -2.9662915192928798 [Eh]
	 Total Energy              =    -761.4881816181386966 [Eh]

	 ================> DF-SCS-MP2 Energies <==================
	-----------------------------------------------------------
	 SCS Same-Spin Scale       =       0.3333333333333333 [-]
	 SCS Opposite-Spin Scale   =       1.2000000000000000 [-]
	 SCS Same-Spin Energy      =      -0.2448723292936540 [Eh]
	 SCS Opposite-Spin Energy  =      -2.6780094376943011 [Eh]
	 SCS Correlation Energy    =      -2.9228817669879552 [Eh]
	 SCS Total Energy          =    -761.4447718658337863 [Eh]
	-----------------------------------------------------------

  Dipole Moment: [D]
     X:    -1.2342      Y:     2.6954      Z:    -0.8072     Total:     3.0725

*** Psi4 exiting successfully. Buy a developer a beer!
