                               Psi4 1.4a3.dev225

  ==> Input File <==

--------------------------------------------------------------------------
#psi4
#
memory 32 gb

molecule  {
0 1
  O       -1.3621950    -1.7118670    -1.0487160
  O        1.3250660    -1.5098260    -0.8661080
  O       -3.0202870    -0.6972320     0.8011600
  O        1.4000820    -0.3698310     1.7931610
  O       -3.3935320     1.8007080    -0.1346550
  O        2.6070010     1.5395500    -0.9938350
  O        3.6924620     0.1319130     0.4259740
  C       -0.8211920    -0.9649900     0.0477000
  C        0.4956150    -0.4174700    -0.4760140
  C       -1.8427190     0.0633310     0.5156670
  C        1.2861160     0.3473610     0.5837090
  C       -2.1923660     1.1169960    -0.5276460
  C        2.6494566     0.6564228     0.0186069
  H       -0.6001840    -1.6333830     0.8895000
  H        0.3094840     0.2426950    -1.3366810
  H       -1.4776870     0.5490530     1.4357690
  H        0.7848540     1.2951930     0.8109900
  H       -2.4256530     0.6242850    -1.4728150
  H       -1.3693410     1.8242450    -0.6894300
  H       -2.2436880    -1.9988170    -0.7384990
  H        0.7382740    -2.1149450    -1.3600910
  H       -3.7555350    -0.0560060     0.7240450
  H        2.1352240    -0.9985780     1.6549180
  H       -3.1588320     2.4130520     0.5846580
  H        3.5236120     1.6268920    -1.3298730
units angstrom
no_reorient  #important for SAPT in psi4, default
symmetry c1  #important for SAPT in psi4, default
}

set PROPERTIES_ORIGIN ["COM"]
properties('MP2/aug-cc-pvtz', properties = ['dipole'])
--------------------------------------------------------------------------

    Molecular point group: c1
  Charge       = 0
  Multiplicity = 1
  Basis Set: AUG-CC-PVTZ
    Blend: AUG-CC-PVTZ
  Basis Set: (AUG-CC-PVTZ AUX)
    Blend: AUG-CC-PVTZ-JKFIT

    Orbital Energies [Eh]
    ---------------------

    Doubly Occupied:

       1A    -20.634882     2A    -20.592396     3A    -20.575606
       4A    -20.575262     5A    -20.573469     6A    -20.570779
       7A    -20.561396     8A    -11.403621     9A    -11.318900
      10A    -11.305236    11A    -11.302605    12A    -11.300848
      13A    -11.296278    14A     -1.477639    15A     -1.408226
      16A     -1.396758    17A     -1.383038    18A     -1.367512
      19A     -1.356014    20A     -1.350781    21A     -1.081718
      22A     -1.030543    23A     -0.962930    24A     -0.889673
      25A     -0.833853    26A     -0.803661    27A     -0.758879
      28A     -0.738061    29A     -0.725527    30A     -0.715653
      31A     -0.712297    32A     -0.683374    33A     -0.676680
      34A     -0.650241    35A     -0.640477    36A     -0.636993
      37A     -0.629048    38A     -0.604122    39A     -0.602435
      40A     -0.581800    41A     -0.553030    42A     -0.550435
      43A     -0.540139    44A     -0.534644    45A     -0.530811
      46A     -0.503681    47A     -0.488936    48A     -0.483170
      49A     -0.466787    50A     -0.460412    51A     -0.456028
      52A     -0.443597

  @DF-RHF Final Energy:  -758.52125784615964

   => Energetics <=

    Nuclear Repulsion Energy =            915.6568022119471379
    One-Electron Energy =               -2862.9143598161449518
    Two-Electron Energy =                1188.7362997580380579
    Total Energy =                       -758.5212578461596422
  Basis Set: (AUG-CC-PVTZ AUX)
    Blend: AUG-CC-PVTZ-RI
    Molecular point group: c1

    Geometry (in Angstrom), charge = 0, multiplicity = 1:

       Center              X                  Y                   Z               Mass
    ------------   -----------------  -----------------  -----------------  -----------------
         O           -1.399284278530    -1.703431587770    -1.052501116802    15.994914619570
         O            1.287976721470    -1.501390587770    -0.869893116802    15.994914619570
         O           -3.057376278530    -0.688796587770     0.797374883198    15.994914619570
         O            1.362992721470    -0.361395587770     1.789375883198    15.994914619570
         O           -3.430621278530     1.809143412230    -0.138440116802    15.994914619570
         O            2.569911721470     1.547985412230    -0.997620116802    15.994914619570
         O            3.655372721470     0.140348412230     0.422188883198    15.994914619570
         C           -0.858281278530    -0.956554587770     0.043914883198    12.000000000000
         C            0.458525721470    -0.409034587770    -0.479799116802    12.000000000000
         C           -1.879808278530     0.071766412230     0.511881883198    12.000000000000
         C            1.249026721470     0.355796412230     0.579923883198    12.000000000000
         C           -2.229455278530     1.125431412230    -0.531431116802    12.000000000000
         C            2.612367321470     0.664858212230     0.014821783198    12.000000000000
         H           -0.637273278530    -1.624947587770     0.885714883198     1.007825032230
         H            0.272394721470     0.251130412230    -1.340466116802     1.007825032230
         H           -1.514776278530     0.557488412230     1.431983883198     1.007825032230
         H            0.747764721470     1.303628412230     0.807204883198     1.007825032230
         H           -2.462742278530     0.632720412230    -1.476600116802     1.007825032230
         H           -1.406430278530     1.832680412230    -0.693215116802     1.007825032230
         H           -2.280777278530    -1.990381587770    -0.742284116802     1.007825032230
         H            0.701184721470    -2.106509587770    -1.363876116802     1.007825032230
         H           -3.792624278530    -0.047570587770     0.720259883198     1.007825032230
         H            2.098134721470    -0.990142587770     1.651132883198     1.007825032230
         H           -3.195921278530     2.421487412230     0.580872883198     1.007825032230
         H            3.486522721470     1.635327412230    -1.333658116802     1.007825032230

  Basis Set: AUG-CC-PVTZ
    Blend: AUG-CC-PVTZ
  Basis Set: (AUG-CC-PVTZ AUX)
    Blend: AUG-CC-PVTZ-JKFIT
	 Reference Energy          =    -758.5212578461596422 [Eh]
	 Singles Energy            =      -0.0000000000000000 [Eh]
	 Same-Spin Energy          =      -0.7347562850533506 [Eh]
	 Opposite-Spin Energy      =      -2.2317510399668512 [Eh]
	 Correlation Energy        =      -2.9665073250202019 [Eh]
	 Total Energy              =    -761.4877651711798308 [Eh]

	 ================> DF-SCS-MP2 Energies <==================
	-----------------------------------------------------------
	 SCS Same-Spin Scale       =       0.3333333333333333 [-]
	 SCS Opposite-Spin Scale   =       1.2000000000000000 [-]
	 SCS Same-Spin Energy      =      -0.2449187616844502 [Eh]
	 SCS Opposite-Spin Energy  =      -2.6781012479602215 [Eh]
	 SCS Correlation Energy    =      -2.9230200096446719 [Eh]
	 SCS Total Energy          =    -761.4442778558043301 [Eh]
	-----------------------------------------------------------

  Dipole Moment: [D]
     X:    -1.3108      Y:     2.7367      Z:    -0.8707     Total:     3.1569

*** Psi4 exiting successfully. Buy a developer a beer!
