                               Psi4 1.4a3.dev225

  ==> Input File <==

--------------------------------------------------------------------------
#psi4
#
memory 32 gb

molecule  {
0 1
  O       -1.3621950    -1.7118670    -1.0487160
  O        1.3250660    -1.5098260    -0.8661080
  O       -3.0202870    -0.6972320     0.8011600
  O        1.4000820    -0.3698310     1.7931610
  O       -3.3935320     1.8007080    -0.1346550
  O        2.6070010     1.5395500    -0.9938350
  O        3.6924620     0.1319130     0.4259740
  C       -0.8211920    -0.9649900     0.0477000
  C        0.4956150    -0.4174700    -0.4760140
  C       -1.8427190     0.0633310     0.5156670
  C        1.2861160     0.3473610     0.5837090
  C       -2.1923660     1.1169960    -0.5276460
  C        2.6663270     0.6479390     0.0251960
  H       -0.6001840    -1.6333830     0.8895000
  H        0.3094840     0.2426950    -1.3366810
  H       -1.4776870     0.5490530     1.4357690
  H        0.7848540     1.2951930     0.8109900
  H       -2.4256530     0.6242850    -1.4728150
  H       -1.3693410     1.8242450    -0.6894300
  H       -2.2436880    -1.9988170    -0.7384990
  H        0.7382740    -2.1149450    -1.3600910
  H       -3.7555350    -0.0560060     0.7240450
  H        2.1352240    -0.9985780     1.6549180
  H       -3.1708880     2.3815973     0.5477086
  H        3.5236120     1.6268920    -1.3298730
units angstrom
no_reorient  #important for SAPT in psi4, default
symmetry c1  #important for SAPT in psi4, default
}

set PROPERTIES_ORIGIN ["COM"]
properties('MP2/aug-cc-pvtz', properties = ['dipole'])
--------------------------------------------------------------------------

    Molecular point group: c1
  Charge       = 0
  Multiplicity = 1
  Basis Set: AUG-CC-PVTZ
    Blend: AUG-CC-PVTZ
  Basis Set: (AUG-CC-PVTZ AUX)
    Blend: AUG-CC-PVTZ-JKFIT

    Orbital Energies [Eh]
    ---------------------

    Doubly Occupied:

       1A    -20.631517     2A    -20.587336     3A    -20.575613
       4A    -20.574875     5A    -20.573315     6A    -20.570564
       7A    -20.565168     8A    -11.401974     9A    -11.318360
      10A    -11.304513    11A    -11.302596    12A    -11.300973
      13A    -11.296082    14A     -1.476364    15A     -1.411836
      16A     -1.399206    17A     -1.386300    18A     -1.371615
      19A     -1.363298    20A     -1.351315    21A     -1.080890
      22A     -1.029242    23A     -0.963426    24A     -0.889948
      25A     -0.831176    26A     -0.803559    27A     -0.759358
      28A     -0.737051    29A     -0.725859    30A     -0.721241
      31A     -0.712888    32A     -0.684858    33A     -0.676903
      34A     -0.650104    35A     -0.640841    36A     -0.637198
      37A     -0.629445    38A     -0.607235    39A     -0.603071
      40A     -0.581253    41A     -0.554107    42A     -0.550814
      43A     -0.540029    44A     -0.535464    45A     -0.531696
      46A     -0.504426    47A     -0.495796    48A     -0.484678
      49A     -0.466745    50A     -0.460341    51A     -0.455716
      52A     -0.443282

  @DF-RHF Final Energy:  -758.52419924535195

   => Energetics <=

    Nuclear Repulsion Energy =            915.8983101192633285
    One-Electron Energy =               -2863.3420920962462333
    Two-Electron Energy =                1188.9195827316309533
    Total Energy =                       -758.5241992453518378
  Basis Set: (AUG-CC-PVTZ AUX)
    Blend: AUG-CC-PVTZ-RI
    Molecular point group: c1

    Geometry (in Angstrom), charge = 0, multiplicity = 1:

       Center              X                  Y                   Z               Mass
    ------------   -----------------  -----------------  -----------------  -----------------
         O           -1.400254879921    -1.702750635053    -1.052714475120    15.994914619570
         O            1.287006120079    -1.500709635053    -0.870106475120    15.994914619570
         O           -3.058346879921    -0.688115635053     0.797161524880    15.994914619570
         O            1.362022120079    -0.360714635053     1.789162524880    15.994914619570
         O           -3.431591879921     1.809824364947    -0.138653475120    15.994914619570
         O            2.568941120079     1.548666364947    -0.997833475120    15.994914619570
         O            3.654402120079     0.141029364947     0.421975524880    15.994914619570
         C           -0.859251879921    -0.955873635053     0.043701524880    12.000000000000
         C            0.457555120079    -0.408353635053    -0.480012475120    12.000000000000
         C           -1.880778879921     0.072447364947     0.511668524880    12.000000000000
         C            1.248056120079     0.356477364947     0.579710524880    12.000000000000
         C           -2.230425879921     1.126112364947    -0.531644475120    12.000000000000
         C            2.628267120079     0.657055364947     0.021197524880    12.000000000000
         H           -0.638243879921    -1.624266635053     0.885501524880     1.007825032230
         H            0.271424120079     0.251811364947    -1.340679475120     1.007825032230
         H           -1.515746879921     0.558169364947     1.431770524880     1.007825032230
         H            0.746794120079     1.304309364947     0.806991524880     1.007825032230
         H           -2.463712879921     0.633401364947    -1.476813475120     1.007825032230
         H           -1.407400879921     1.833361364947    -0.693428475120     1.007825032230
         H           -2.281747879921    -1.989700635053    -0.742497475120     1.007825032230
         H            0.700214120079    -2.105828635053    -1.364089475120     1.007825032230
         H           -3.793594879921    -0.046889635053     0.720046524880     1.007825032230
         H            2.097164120079    -0.989461635053     1.650919524880     1.007825032230
         H           -3.208947879921     2.390713664947     0.543710124880     1.007825032230
         H            3.485552120079     1.636008364947    -1.333871475120     1.007825032230

  Basis Set: AUG-CC-PVTZ
    Blend: AUG-CC-PVTZ
  Basis Set: (AUG-CC-PVTZ AUX)
    Blend: AUG-CC-PVTZ-JKFIT
	 Reference Energy          =    -758.5241992453519515 [Eh]
	 Singles Energy            =      -0.0000000000000000 [Eh]
	 Same-Spin Energy          =      -0.7337434223451691 [Eh]
	 Opposite-Spin Energy      =      -2.2295043607848419 [Eh]
	 Correlation Energy        =      -2.9632477831300110 [Eh]
	 Total Energy              =    -761.4874470284819381 [Eh]

	 ================> DF-SCS-MP2 Energies <==================
	-----------------------------------------------------------
	 SCS Same-Spin Scale       =       0.3333333333333333 [-]
	 SCS Opposite-Spin Scale   =       1.2000000000000000 [-]
	 SCS Same-Spin Energy      =      -0.2445811407817230 [Eh]
	 SCS Opposite-Spin Energy  =      -2.6754052329418103 [Eh]
	 SCS Correlation Energy    =      -2.9199863737235332 [Eh]
	 SCS Total Energy          =    -761.4441856190754834 [Eh]
	-----------------------------------------------------------

  Dipole Moment: [D]
     X:    -1.2064      Y:     2.6379      Z:    -0.8321     Total:     3.0176

*** Psi4 exiting successfully. Buy a developer a beer!
