                               Psi4 1.4a3.dev225

  ==> Input File <==

--------------------------------------------------------------------------
#psi4
#
memory 32 gb

molecule  {
0 1
  O       -1.3621950    -1.7118670    -1.0487160
  O        1.3250660    -1.5098260    -0.8661080
  O       -3.0202870    -0.6972320     0.8011600
  O        1.4000820    -0.3698310     1.7931610
  O       -3.3935320     1.8007080    -0.1346550
  O        2.6070010     1.5395500    -0.9938350
  O        3.6924620     0.1319130     0.4259740
  C       -0.8211920    -0.9649900     0.0477000
  C        0.4956150    -0.4174700    -0.4760140
  C       -1.8427190     0.0633310     0.5156670
  C        1.2861160     0.3473610     0.5837090
  C       -2.1923660     1.1169960    -0.5276460
  C        2.6663270     0.6479390     0.0251960
  H       -0.6001840    -1.6333830     0.8895000
  H        0.3094840     0.2426950    -1.3366810
  H       -1.4776870     0.5490530     1.4357690
  H        0.7848540     1.2951930     0.8109900
  H       -2.4256530     0.6242850    -1.4728150
  H       -1.3693410     1.8242450    -0.6894300
  H       -2.2436880    -1.9988170    -0.7384990
  H        0.7382740    -2.1149450    -1.3600910
  H       -3.7555350    -0.0560060     0.7240450
  H        2.1352240    -0.9985780     1.6549180
  H       -3.1829440     2.3501427     0.5107592
  H        3.5236120     1.6268920    -1.3298730
units angstrom
no_reorient  #important for SAPT in psi4, default
symmetry c1  #important for SAPT in psi4, default
}

set PROPERTIES_ORIGIN ["COM"]
properties('MP2/aug-cc-pvtz', properties = ['dipole'])
--------------------------------------------------------------------------

    Molecular point group: c1
  Charge       = 0
  Multiplicity = 1
  Basis Set: AUG-CC-PVTZ
    Blend: AUG-CC-PVTZ
  Basis Set: (AUG-CC-PVTZ AUX)
    Blend: AUG-CC-PVTZ-JKFIT

    Orbital Energies [Eh]
    ---------------------

    Doubly Occupied:

       1A    -20.631591     2A    -20.582157     3A    -20.575952
       4A    -20.574969     5A    -20.573542     6A    -20.570720
       7A    -20.565244     8A    -11.402056     9A    -11.318468
      10A    -11.304696    11A    -11.302982    12A    -11.301562
      13A    -11.296343    14A     -1.476440    15A     -1.420565
      16A     -1.401476    17A     -1.388113    18A     -1.373029
      19A     -1.363724    20A     -1.351838    21A     -1.081449
      22A     -1.030493    23A     -0.965823    24A     -0.891840
      25A     -0.831765    26A     -0.804564    27A     -0.761132
      28A     -0.737766    29A     -0.726923    30A     -0.726057
      31A     -0.713139    32A     -0.686359    33A     -0.677348
      34A     -0.650226    35A     -0.641348    36A     -0.637504
      37A     -0.630286    38A     -0.607362    39A     -0.604238
      40A     -0.581461    41A     -0.555016    42A     -0.551585
      43A     -0.540598    44A     -0.536475    45A     -0.532186
      46A     -0.505592    47A     -0.495872    48A     -0.484820
      49A     -0.467091    50A     -0.460673    51A     -0.455941
      52A     -0.443716

  @DF-RHF Final Energy:  -758.51856233601643

   => Energetics <=

    Nuclear Repulsion Energy =            916.2380364018224554
    One-Electron Energy =               -2863.9289646988218010
    Two-Electron Energy =                1189.1723659609829156
    Total Energy =                       -758.5185623360164300
  Basis Set: (AUG-CC-PVTZ AUX)
    Blend: AUG-CC-PVTZ-RI
    Molecular point group: c1

    Geometry (in Angstrom), charge = 0, multiplicity = 1:

       Center              X                  Y                   Z               Mass
    ------------   -----------------  -----------------  -----------------  -----------------
         O           -1.400192906833    -1.702588944715    -1.052524539118    15.994914619570
         O            1.287068093167    -1.500547944715    -0.869916539118    15.994914619570
         O           -3.058284906833    -0.687953944715     0.797351460882    15.994914619570
         O            1.362084093167    -0.360552944715     1.789352460882    15.994914619570
         O           -3.431529906833     1.809986055285    -0.138463539118    15.994914619570
         O            2.569003093167     1.548828055285    -0.997643539118    15.994914619570
         O            3.654464093167     0.141191055285     0.422165460882    15.994914619570
         C           -0.859189906833    -0.955711944715     0.043891460882    12.000000000000
         C            0.457617093167    -0.408191944715    -0.479822539118    12.000000000000
         C           -1.880716906833     0.072609055285     0.511858460882    12.000000000000
         C            1.248118093167     0.356639055285     0.579900460882    12.000000000000
         C           -2.230363906833     1.126274055285    -0.531454539118    12.000000000000
         C            2.628329093167     0.657217055285     0.021387460882    12.000000000000
         H           -0.638181906833    -1.624104944715     0.885691460882     1.007825032230
         H            0.271486093167     0.251973055285    -1.340489539118     1.007825032230
         H           -1.515684906833     0.558331055285     1.431960460882     1.007825032230
         H            0.746856093167     1.304471055285     0.807181460882     1.007825032230
         H           -2.463650906833     0.633563055285    -1.476623539118     1.007825032230
         H           -1.407338906833     1.833523055285    -0.693238539118     1.007825032230
         H           -2.281685906833    -1.989538944715    -0.742307539118     1.007825032230
         H            0.700276093167    -2.105666944715    -1.363899539118     1.007825032230
         H           -3.793532906833    -0.046727944715     0.720236460882     1.007825032230
         H            2.097226093167    -0.989299944715     1.651109460882     1.007825032230
         H           -3.220941906833     2.359420755285     0.506950660882     1.007825032230
         H            3.485614093167     1.636170055285    -1.333681539118     1.007825032230

  Basis Set: AUG-CC-PVTZ
    Blend: AUG-CC-PVTZ
  Basis Set: (AUG-CC-PVTZ AUX)
    Blend: AUG-CC-PVTZ-JKFIT
	 Reference Energy          =    -758.5185623360164300 [Eh]
	 Singles Energy            =      -0.0000000000000000 [Eh]
	 Same-Spin Energy          =      -0.7331650274419028 [Eh]
	 Opposite-Spin Energy      =      -2.2280785921809891 [Eh]
	 Correlation Energy        =      -2.9612436196228922 [Eh]
	 Total Energy              =    -761.4798059556393355 [Eh]

	 ================> DF-SCS-MP2 Energies <==================
	-----------------------------------------------------------
	 SCS Same-Spin Scale       =       0.3333333333333333 [-]
	 SCS Opposite-Spin Scale   =       1.2000000000000000 [-]
	 SCS Same-Spin Energy      =      -0.2443883424806343 [Eh]
	 SCS Opposite-Spin Energy  =      -2.6736943106171869 [Eh]
	 SCS Correlation Energy    =      -2.9180826530978212 [Eh]
	 SCS Total Energy          =    -761.4366449891142565 [Eh]
	-----------------------------------------------------------

  Dipole Moment: [D]
     X:    -1.1977      Y:     2.5984      Z:    -0.8619     Total:     2.9882

*** Psi4 exiting successfully. Buy a developer a beer!
