                               Psi4 1.4a3.dev225

  ==> Input File <==

--------------------------------------------------------------------------
#psi4
#
memory 32 gb

molecule  {
0 1
  O       -1.3621950    -1.7118670    -1.0487160
  O        1.3250660    -1.5098260    -0.8661080
  O       -3.0202870    -0.6972320     0.8011600
  O        1.4000820    -0.3698310     1.7931610
  O       -3.3935320     1.8007080    -0.1346550
  O        2.6070010     1.5395500    -0.9938350
  O        3.6695149     0.1098589     0.4540814
  C       -0.8211920    -0.9649900     0.0477000
  C        0.4956150    -0.4174700    -0.4760140
  C       -1.8427190     0.0633310     0.5156670
  C        1.2861160     0.3473610     0.5837090
  C       -2.1923660     1.1169960    -0.5276460
  C        2.6663270     0.6479390     0.0251960
  H       -0.6001840    -1.6333830     0.8895000
  H        0.3094840     0.2426950    -1.3366810
  H       -1.4776870     0.5490530     1.4357690
  H        0.7848540     1.2951930     0.8109900
  H       -2.4256530     0.6242850    -1.4728150
  H       -1.3693410     1.8242450    -0.6894300
  H       -2.2436880    -1.9988170    -0.7384990
  H        0.7382740    -2.1149450    -1.3600910
  H       -3.7555350    -0.0560060     0.7240450
  H        2.1352240    -0.9985780     1.6549180
  H       -3.1588320     2.4130520     0.5846580
  H        3.5236120     1.6268920    -1.3298730
units angstrom
no_reorient  #important for SAPT in psi4, default
symmetry c1  #important for SAPT in psi4, default
}

set PROPERTIES_ORIGIN ["COM"]
properties('MP2/aug-cc-pvtz', properties = ['dipole'])
--------------------------------------------------------------------------

    Molecular point group: c1
  Charge       = 0
  Multiplicity = 1
  Basis Set: AUG-CC-PVTZ
    Blend: AUG-CC-PVTZ
  Basis Set: (AUG-CC-PVTZ AUX)
    Blend: AUG-CC-PVTZ-JKFIT

    Orbital Energies [Eh]
    ---------------------

    Doubly Occupied:

       1A    -20.634881     2A    -20.591706     3A    -20.574819
       4A    -20.572864     5A    -20.572524     6A    -20.569754
       7A    -20.565882     8A    -11.402363     9A    -11.316052
      10A    -11.303434    11A    -11.301673    12A    -11.300026
      13A    -11.295106    14A     -1.476746    15A     -1.407293
      16A     -1.396214    17A     -1.384199    18A     -1.369995
      19A     -1.362088    20A     -1.350001    21A     -1.079506
      22A     -1.027231    23A     -0.960653    24A     -0.887817
      25A     -0.830918    26A     -0.801876    27A     -0.757516
      28A     -0.736800    29A     -0.726182    30A     -0.714875
      31A     -0.712939    32A     -0.682655    33A     -0.675649
      34A     -0.650386    35A     -0.640373    36A     -0.636322
      37A     -0.628213    38A     -0.607031    39A     -0.601394
      40A     -0.580415    41A     -0.552608    42A     -0.549663
      43A     -0.538245    44A     -0.533744    45A     -0.530579
      46A     -0.502814    47A     -0.497329    48A     -0.483884
      49A     -0.465872    50A     -0.459388    51A     -0.454631
      52A     -0.442158

  @DF-RHF Final Energy:  -758.52281440629235

   => Energetics <=

    Nuclear Repulsion Energy =            915.9722549213203138
    One-Electron Energy =               -2863.5955676382923230
    Two-Electron Energy =                1189.1004983106797681
    Total Energy =                       -758.5228144062923548
  Basis Set: (AUG-CC-PVTZ AUX)
    Blend: AUG-CC-PVTZ-RI
    Molecular point group: c1

    Geometry (in Angstrom), charge = 0, multiplicity = 1:

       Center              X                  Y                   Z               Mass
    ------------   -----------------  -----------------  -----------------  -----------------
         O           -1.398444772613    -1.701113098626    -1.055197481382    15.994914619570
         O            1.288816227387    -1.499072098626    -0.872589481382    15.994914619570
         O           -3.056536772613    -0.686478098626     0.794678518618    15.994914619570
         O            1.363832227387    -0.359077098626     1.786679518618    15.994914619570
         O           -3.429781772613     1.811461901374    -0.141136481382    15.994914619570
         O            2.570751227387     1.550303901374    -1.000316481382    15.994914619570
         O            3.633265127387     0.120612801374     0.447599918618    15.994914619570
         C           -0.857441772613    -0.954236098626     0.041218518618    12.000000000000
         C            0.459365227387    -0.406716098626    -0.482495481382    12.000000000000
         C           -1.878968772613     0.074084901374     0.509185518618    12.000000000000
         C            1.249866227387     0.358114901374     0.577227518618    12.000000000000
         C           -2.228615772613     1.127749901374    -0.534127481382    12.000000000000
         C            2.630077227387     0.658692901374     0.018714518618    12.000000000000
         H           -0.636433772613    -1.622629098626     0.883018518618     1.007825032230
         H            0.273234227387     0.253448901374    -1.343162481382     1.007825032230
         H           -1.513936772613     0.559806901374     1.429287518618     1.007825032230
         H            0.748604227387     1.305946901374     0.804508518618     1.007825032230
         H           -2.461902772613     0.635038901374    -1.479296481382     1.007825032230
         H           -1.405590772613     1.834998901374    -0.695911481382     1.007825032230
         H           -2.279937772613    -1.988063098626    -0.744980481382     1.007825032230
         H            0.702024227387    -2.104191098626    -1.366572481382     1.007825032230
         H           -3.791784772613    -0.045252098626     0.717563518618     1.007825032230
         H            2.098974227387    -0.987824098626     1.648436518618     1.007825032230
         H           -3.195081772613     2.423805901374     0.578176518618     1.007825032230
         H            3.487362227387     1.637645901374    -1.336354481382     1.007825032230

  Basis Set: AUG-CC-PVTZ
    Blend: AUG-CC-PVTZ
  Basis Set: (AUG-CC-PVTZ AUX)
    Blend: AUG-CC-PVTZ-JKFIT
	 Reference Energy          =    -758.5228144062923548 [Eh]
	 Singles Energy            =      -0.0000000000000000 [Eh]
	 Same-Spin Energy          =      -0.7344894736172538 [Eh]
	 Opposite-Spin Energy      =      -2.2312756913725833 [Eh]
	 Correlation Energy        =      -2.9657651649898371 [Eh]
	 Total Energy              =    -761.4885795712822301 [Eh]

	 ================> DF-SCS-MP2 Energies <==================
	-----------------------------------------------------------
	 SCS Same-Spin Scale       =       0.3333333333333333 [-]
	 SCS Opposite-Spin Scale   =       1.2000000000000000 [-]
	 SCS Same-Spin Energy      =      -0.2448298245390846 [Eh]
	 SCS Opposite-Spin Energy  =      -2.6775308296470999 [Eh]
	 SCS Correlation Energy    =      -2.9223606541861846 [Eh]
	 SCS Total Energy          =    -761.4451750604785047 [Eh]
	-----------------------------------------------------------

  Dipole Moment: [D]
     X:    -1.1109      Y:     2.7397      Z:    -0.8729     Total:     3.0825

*** Psi4 exiting successfully. Buy a developer a beer!
