                               Psi4 1.4a3.dev225

  ==> Input File <==

--------------------------------------------------------------------------
#psi4
#
memory 32 gb

molecule  {
0 1
  O       -1.3621950    -1.7118670    -1.0487160
  O        1.3250660    -1.5098260    -0.8661080
  O       -3.0202870    -0.6972320     0.8011600
  O        1.4000820    -0.3698310     1.7931610
  O       -3.3935320     1.8007080    -0.1346550
  O        2.6070010     1.5395500    -0.9938350
  O        3.6924620     0.1319130     0.4259740
  C       -0.8211920    -0.9649900     0.0477000
  C        0.4956150    -0.4174700    -0.4760140
  C       -1.8427190     0.0633310     0.5156670
  C        1.2861160     0.3473610     0.5837090
  C       -2.1923660     1.1169960    -0.5276460
  C        2.6663270     0.6479390     0.0251960
  H       -0.6001840    -1.6333830     0.8895000
  H        0.3094840     0.2426950    -1.3366810
  H       -1.4776870     0.5490530     1.4357690
  H        0.7619871     1.3384319     0.8213583
  H       -2.4256530     0.6242850    -1.4728150
  H       -1.3693410     1.8242450    -0.6894300
  H       -2.2436880    -1.9988170    -0.7384990
  H        0.7382740    -2.1149450    -1.3600910
  H       -3.7555350    -0.0560060     0.7240450
  H        2.1352240    -0.9985780     1.6549180
  H       -3.1588320     2.4130520     0.5846580
  H        3.5236120     1.6268920    -1.3298730
units angstrom
no_reorient  #important for SAPT in psi4, default
symmetry c1  #important for SAPT in psi4, default
}

set PROPERTIES_ORIGIN ["COM"]
properties('MP2/aug-cc-pvtz', properties = ['dipole'])
--------------------------------------------------------------------------

    Molecular point group: c1
  Charge       = 0
  Multiplicity = 1
  Basis Set: AUG-CC-PVTZ
    Blend: AUG-CC-PVTZ
  Basis Set: (AUG-CC-PVTZ AUX)
    Blend: AUG-CC-PVTZ-JKFIT

    Orbital Energies [Eh]
    ---------------------

    Doubly Occupied:

       1A    -20.631354     2A    -20.591902     3A    -20.575571
       4A    -20.575141     5A    -20.573123     6A    -20.570751
       7A    -20.565379     8A    -11.402329     9A    -11.324055
      10A    -11.304763    11A    -11.302033    12A    -11.300232
      13A    -11.295858    14A     -1.476320    15A     -1.407788
      16A     -1.396558    17A     -1.383845    18A     -1.369653
      19A     -1.362750    20A     -1.350683    21A     -1.079573
      22A     -1.026716    23A     -0.960802    24A     -0.888145
      25A     -0.829285    26A     -0.800562    27A     -0.757134
      28A     -0.736766    29A     -0.725105    30A     -0.715094
      31A     -0.712544    32A     -0.683020    33A     -0.676318
      34A     -0.650155    35A     -0.640160    36A     -0.634757
      37A     -0.628429    38A     -0.606660    39A     -0.601229
      40A     -0.579787    41A     -0.552707    42A     -0.550018
      43A     -0.539133    44A     -0.534195    45A     -0.530383
      46A     -0.503118    47A     -0.495790    48A     -0.483798
      49A     -0.466455    50A     -0.460157    51A     -0.455458
      52A     -0.442929

  @DF-RHF Final Energy:  -758.52121205476931

   => Energetics <=

    Nuclear Repulsion Energy =            915.3140286613668195
    One-Electron Energy =               -2862.2575413140243654
    Two-Electron Energy =                1188.4223005978883521
    Total Energy =                       -758.5212120547691939
  Basis Set: (AUG-CC-PVTZ AUX)
    Blend: AUG-CC-PVTZ-RI
    Molecular point group: c1

    Geometry (in Angstrom), charge = 0, multiplicity = 1:

       Center              X                  Y                   Z               Mass
    ------------   -----------------  -----------------  -----------------  -----------------
         O           -1.400199307189    -1.703134592676    -1.052957708698    15.994914619570
         O            1.287061692811    -1.501093592676    -0.870349708698    15.994914619570
         O           -3.058291307189    -0.688499592676     0.796918291302    15.994914619570
         O            1.362077692811    -0.361098592676     1.788919291302    15.994914619570
         O           -3.431536307189     1.809440407324    -0.138896708698    15.994914619570
         O            2.568996692811     1.548282407324    -0.998076708698    15.994914619570
         O            3.654457692811     0.140645407324     0.421732291302    15.994914619570
         C           -0.859196307189    -0.956257592676     0.043458291302    12.000000000000
         C            0.457610692811    -0.408737592676    -0.480255708698    12.000000000000
         C           -1.880723307189     0.072063407324     0.511425291302    12.000000000000
         C            1.248111692811     0.356093407324     0.579467291302    12.000000000000
         C           -2.230370307189     1.125728407324    -0.531887708698    12.000000000000
         C            2.628322692811     0.656671407324     0.020954291302    12.000000000000
         H           -0.638188307189    -1.624650592676     0.885258291302     1.007825032230
         H            0.271479692811     0.251427407324    -1.340922708698     1.007825032230
         H           -1.515691307189     0.557785407324     1.431527291302     1.007825032230
         H            0.723982792811     1.347164307324     0.817116591302     1.007825032230
         H           -2.463657307189     0.633017407324    -1.477056708698     1.007825032230
         H           -1.407345307189     1.832977407324    -0.693671708698     1.007825032230
         H           -2.281692307189    -1.990084592676    -0.742740708698     1.007825032230
         H            0.700269692811    -2.106212592676    -1.364332708698     1.007825032230
         H           -3.793539307189    -0.047273592676     0.719803291302     1.007825032230
         H            2.097219692811    -0.989845592676     1.650676291302     1.007825032230
         H           -3.196836307189     2.421784407324     0.580416291302     1.007825032230
         H            3.485607692811     1.635624407324    -1.334114708698     1.007825032230

  Basis Set: AUG-CC-PVTZ
    Blend: AUG-CC-PVTZ
  Basis Set: (AUG-CC-PVTZ AUX)
    Blend: AUG-CC-PVTZ-JKFIT
	 Reference Energy          =    -758.5212120547693075 [Eh]
	 Singles Energy            =      -0.0000000000000000 [Eh]
	 Same-Spin Energy          =      -0.7344329405267070 [Eh]
	 Opposite-Spin Energy      =      -2.2314423661150125 [Eh]
	 Correlation Energy        =      -2.9658753066417196 [Eh]
	 Total Energy              =    -761.4870873614109996 [Eh]

	 ================> DF-SCS-MP2 Energies <==================
	-----------------------------------------------------------
	 SCS Same-Spin Scale       =       0.3333333333333333 [-]
	 SCS Opposite-Spin Scale   =       1.2000000000000000 [-]
	 SCS Same-Spin Energy      =      -0.2448109801755690 [Eh]
	 SCS Opposite-Spin Energy  =      -2.6777308393380150 [Eh]
	 SCS Correlation Energy    =      -2.9225418195135839 [Eh]
	 SCS Total Energy          =    -761.4437538742829474 [Eh]
	-----------------------------------------------------------

  Dipole Moment: [D]
     X:    -1.1996      Y:     2.6590      Z:    -0.7976     Total:     3.0242

*** Psi4 exiting successfully. Buy a developer a beer!
