                               Psi4 1.3.2 release

  ==> Input File <==

--------------------------------------------------------------------------
#psi4
#
memory 32 gb

molecule  {
0 1
 Cl       -1.7654740    -0.3100940    -0.0000140
  O        0.1191480     1.5182110     0.0000140
  C        0.9469300    -0.7644922    -0.0499590
  C        2.3654940    -0.2123180    -0.0000340
  C       -0.0820610     0.3337550     0.0000080
  H        0.7528550    -1.3956680     0.8744030
  H        0.7528050    -1.3957990    -0.8742120
  H        2.5431970     0.4048060    -0.8827890
  H        2.5432490     0.4048980     0.8826450
  H        3.0855950    -1.0339960    -0.0000140
units angstrom
no_reorient  #important for SAPT in psi4, default
symmetry c1  #important for SAPT in psi4, default
}

set PROPERTIES_ORIGIN ["COM"]
properties('MP2/aug-cc-pvtz', properties = ['dipole'])
--------------------------------------------------------------------------

    Molecular point group: c1
  Charge       = 0
  Multiplicity = 1
  Basis Set: AUG-CC-PVTZ
    Blend: AUG-CC-PVTZ
  Basis Set: (AUG-CC-PVTZ AUX)
    Blend: AUG-CC-PVTZ-JKFIT

    Orbital Energies [Eh]
    ---------------------

    Doubly Occupied:

       1A   -104.849391     2A    -20.593036     3A    -11.411107
       4A    -11.271729     5A    -11.238470     6A    -10.573906
       7A     -8.040535     8A     -8.038858     9A     -8.038713
      10A     -1.436612    11A     -1.136882    12A     -1.072304
      13A     -0.912744    14A     -0.765430    15A     -0.685221
      16A     -0.661269    17A     -0.653840    18A     -0.571573
      19A     -0.564138    20A     -0.544286    21A     -0.513165
      22A     -0.466663    23A     -0.465872    24A     -0.450755

  @DF-RHF Final Energy:  -650.97373973062668

   => Energetics <=

    Nuclear Repulsion Energy =            212.7352797951928096
    One-Electron Energy =               -1317.5050392047367041
    Two-Electron Energy =                 453.7960196789172187
    Total Energy =                       -650.9737397306266757
  Basis Set: (AUG-CC-PVTZ AUX)
    Blend: AUG-CC-PVTZ-RI
    Molecular point group: c1

    Geometry (in Angstrom), charge = 0, multiplicity = 1:

       Center              X                  Y                   Z               Mass
    ------------   -----------------  -----------------  -----------------  -----------------
         CL          -1.642509900636    -0.339267040463     0.006508103391    34.968852682000
         O            0.242112099364     1.489037959537     0.006536103391    15.994914619570
         C            1.069894099364    -0.793665240463    -0.043436896609    12.000000000000
         C            2.488458099364    -0.241491040463     0.006488103391    12.000000000000
         C            0.040903099364     0.304581959537     0.006530103391    12.000000000000
         H            0.875819099364    -1.424841040463     0.880925103391     1.007825032230
         H            0.875769099364    -1.424972040463    -0.867689896609     1.007825032230
         H            2.666161099364     0.375632959537    -0.876266896609     1.007825032230
         H            2.666213099364     0.375724959537     0.889167103391     1.007825032230
         H            3.208559099364    -1.063169040463     0.006508103391     1.007825032230

  Basis Set: AUG-CC-PVTZ
    Blend: AUG-CC-PVTZ
  Basis Set: (AUG-CC-PVTZ AUX)
    Blend: AUG-CC-PVTZ-JKFIT
	 Reference Energy          =    -650.9737397306266757 [Eh]
	 Singles Energy            =      -0.0000000000000000 [Eh]
	 Same-Spin Energy          =      -0.2528543710309240 [Eh]
	 Opposite-Spin Energy      =      -0.7999780565116372 [Eh]
	 Correlation Energy        =      -1.0528324275425613 [Eh]
	 Total Energy              =    -652.0265721581691878 [Eh]

	 ================> DF-SCS-MP2 Energies <==================
	-----------------------------------------------------------
	 SCS Same-Spin Scale       =       0.3333333333333333 [-]
	 SCS Opposite-Spin Scale   =       1.2000000000000000 [-]
	 SCS Same-Spin Energy      =      -0.0842847903436413 [Eh]
	 SCS Opposite-Spin Energy  =      -0.9599736678139646 [Eh]
	 SCS Correlation Energy    =      -1.0442584581576060 [Eh]
	 SCS Total Energy          =    -652.0179981887843041 [Eh]
	-----------------------------------------------------------

  Dipole Moment: [D]
     X:     1.9526      Y:    -2.0384      Z:    -0.0223     Total:     2.8228

*** Psi4 exiting successfully. Buy a developer a beer!
