                               Psi4 1.3.2 release

  ==> Input File <==

--------------------------------------------------------------------------
#psi4
#
memory 32 gb

molecule  {
0 1
 Cl       -1.7654740    -0.3100940    -0.0000140
  O        0.1191480     1.5182110     0.0000140
  C        0.9469319    -0.7644927    -0.1499590
  C        2.3654940    -0.2123180    -0.0000340
  C       -0.0820610     0.3337550     0.0000080
  H        0.7528550    -1.3956680     0.8744030
  H        0.7528050    -1.3957990    -0.8742120
  H        2.5431970     0.4048060    -0.8827890
  H        2.5432490     0.4048980     0.8826450
  H        3.0855950    -1.0339960    -0.0000140
units angstrom
no_reorient  #important for SAPT in psi4, default
symmetry c1  #important for SAPT in psi4, default
}

set PROPERTIES_ORIGIN ["COM"]
properties('MP2/aug-cc-pvtz', properties = ['dipole'])
--------------------------------------------------------------------------

    Molecular point group: c1
  Charge       = 0
  Multiplicity = 1
  Basis Set: AUG-CC-PVTZ
    Blend: AUG-CC-PVTZ
  Basis Set: (AUG-CC-PVTZ AUX)
    Blend: AUG-CC-PVTZ-JKFIT

    Orbital Energies [Eh]
    ---------------------

    Doubly Occupied:

       1A   -104.849349     2A    -20.593046     3A    -11.412405
       4A    -11.274163     5A    -11.240219     6A    -10.573855
       7A     -8.040484     8A     -8.038803     9A     -8.038657
      10A     -1.436690    11A     -1.136684    12A     -1.072437
      13A     -0.913859    14A     -0.772699    15A     -0.691814
      16A     -0.660166    17A     -0.646761    18A     -0.574773
      19A     -0.565641    20A     -0.555219    21A     -0.494458
      22A     -0.466998    23A     -0.464041    24A     -0.449751

  @DF-RHF Final Energy:  -650.95253079228985

   => Energetics <=

    Nuclear Repulsion Energy =            212.6198898564601052
    One-Electron Energy =               -1317.2189016890133644
    Two-Electron Energy =                 453.6464810402634384
    Total Energy =                       -650.9525307922898492
  Basis Set: (AUG-CC-PVTZ AUX)
    Blend: AUG-CC-PVTZ-RI
    Molecular point group: c1

    Geometry (in Angstrom), charge = 0, multiplicity = 1:

       Center              X                  Y                   Z               Mass
    ------------   -----------------  -----------------  -----------------  -----------------
         CL          -1.642510148454    -0.339266975248     0.019551171580    34.968852682000
         O            0.242111851546     1.489038024752     0.019579171580    15.994914619570
         C            1.069895751546    -0.793665675248    -0.130393828420    12.000000000000
         C            2.488457851546    -0.241490975248     0.019531171580    12.000000000000
         C            0.040902851546     0.304582024752     0.019573171580    12.000000000000
         H            0.875818851546    -1.424840975248     0.893968171580     1.007825032230
         H            0.875768851546    -1.424971975248    -0.854646828420     1.007825032230
         H            2.666160851546     0.375633024752    -0.863223828420     1.007825032230
         H            2.666212851546     0.375725024752     0.902210171580     1.007825032230
         H            3.208558851546    -1.063168975248     0.019551171580     1.007825032230

  Basis Set: AUG-CC-PVTZ
    Blend: AUG-CC-PVTZ
  Basis Set: (AUG-CC-PVTZ AUX)
    Blend: AUG-CC-PVTZ-JKFIT
	 Reference Energy          =    -650.9525307922898492 [Eh]
	 Singles Energy            =      -0.0000000000000000 [Eh]
	 Same-Spin Energy          =      -0.2531235860808486 [Eh]
	 Opposite-Spin Energy      =      -0.8010136308140450 [Eh]
	 Correlation Energy        =      -1.0541372168948935 [Eh]
	 Total Energy              =    -652.0066680091847502 [Eh]

	 ================> DF-SCS-MP2 Energies <==================
	-----------------------------------------------------------
	 SCS Same-Spin Scale       =       0.3333333333333333 [-]
	 SCS Opposite-Spin Scale   =       1.2000000000000000 [-]
	 SCS Same-Spin Energy      =      -0.0843745286936162 [Eh]
	 SCS Opposite-Spin Energy  =      -0.9612163569768539 [Eh]
	 SCS Correlation Energy    =      -1.0455908856704701 [Eh]
	 SCS Total Energy          =    -651.9981216779602846 [Eh]
	-----------------------------------------------------------

  Dipole Moment: [D]
     X:     1.9707      Y:    -2.0232      Z:    -0.0664     Total:     2.8251

*** Psi4 exiting successfully. Buy a developer a beer!
