                               Psi4 1.3.2 release

  ==> Input File <==

--------------------------------------------------------------------------
#psi4
#
memory 32 gb

molecule  {
0 1
 Cl       -1.7654740    -0.3100940    -0.0000140
  O        0.1191480     1.5182110     0.0000140
  C        0.9469339    -0.7644932    -0.2499590
  C        2.3654940    -0.2123180    -0.0000340
  C       -0.0820610     0.3337550     0.0000080
  H        0.7528550    -1.3956680     0.8744030
  H        0.7528050    -1.3957990    -0.8742120
  H        2.5431970     0.4048060    -0.8827890
  H        2.5432490     0.4048980     0.8826450
  H        3.0855950    -1.0339960    -0.0000140
units angstrom
no_reorient  #important for SAPT in psi4, default
symmetry c1  #important for SAPT in psi4, default
}

set PROPERTIES_ORIGIN ["COM"]
properties('MP2/aug-cc-pvtz', properties = ['dipole'])
--------------------------------------------------------------------------

    Molecular point group: c1
  Charge       = 0
  Multiplicity = 1
  Basis Set: AUG-CC-PVTZ
    Blend: AUG-CC-PVTZ
  Basis Set: (AUG-CC-PVTZ AUX)
    Blend: AUG-CC-PVTZ-JKFIT

    Orbital Energies [Eh]
    ---------------------

    Doubly Occupied:

       1A   -104.849269     2A    -20.593052     3A    -11.414916
       4A    -11.279008     5A    -11.243609     6A    -10.573755
       7A     -8.040384     8A     -8.038695     9A     -8.038548
      10A     -1.436822    11A     -1.136308    12A     -1.072805
      13A     -0.916573    14A     -0.785556    15A     -0.698027
      16A     -0.659450    17A     -0.637563    18A     -0.583824
      19A     -0.570234    20A     -0.556085    21A     -0.477684
      22A     -0.467212    23A     -0.458493    24A     -0.446821

  @DF-RHF Final Energy:  -650.90951799842844

   => Energetics <=

    Nuclear Repulsion Energy =            212.3912580394024303
    One-Electron Energy =               -1316.6521647791623764
    Two-Electron Energy =                 453.3513887413315615
    Total Energy =                       -650.9095179984284414
  Basis Set: (AUG-CC-PVTZ AUX)
    Blend: AUG-CC-PVTZ-RI
    Molecular point group: c1

    Geometry (in Angstrom), charge = 0, multiplicity = 1:

       Center              X                  Y                   Z               Mass
    ------------   -----------------  -----------------  -----------------  -----------------
         CL          -1.642510409316    -0.339266910033     0.032594239769    34.968852682000
         O            0.242111590684     1.489038089967     0.032622239769    15.994914619570
         C            1.069897490684    -0.793666110033    -0.217350760231    12.000000000000
         C            2.488457590684    -0.241490910033     0.032574239769    12.000000000000
         C            0.040902590684     0.304582089967     0.032616239769    12.000000000000
         H            0.875818590684    -1.424840910033     0.907011239769     1.007825032230
         H            0.875768590684    -1.424971910033    -0.841603760231     1.007825032230
         H            2.666160590684     0.375633089967    -0.850180760231     1.007825032230
         H            2.666212590684     0.375725089967     0.915253239769     1.007825032230
         H            3.208558590684    -1.063168910033     0.032594239769     1.007825032230

  Basis Set: AUG-CC-PVTZ
    Blend: AUG-CC-PVTZ
  Basis Set: (AUG-CC-PVTZ AUX)
    Blend: AUG-CC-PVTZ-JKFIT
	 Reference Energy          =    -650.9095179984284414 [Eh]
	 Singles Energy            =      -0.0000000000000000 [Eh]
	 Same-Spin Energy          =      -0.2536782678227935 [Eh]
	 Opposite-Spin Energy      =      -0.8031370091503969 [Eh]
	 Correlation Energy        =      -1.0568152769731904 [Eh]
	 Total Energy              =    -651.9663332754016665 [Eh]

	 ================> DF-SCS-MP2 Energies <==================
	-----------------------------------------------------------
	 SCS Same-Spin Scale       =       0.3333333333333333 [-]
	 SCS Opposite-Spin Scale   =       1.2000000000000000 [-]
	 SCS Same-Spin Energy      =      -0.0845594226075978 [Eh]
	 SCS Opposite-Spin Energy  =      -0.9637644109804762 [Eh]
	 SCS Correlation Energy    =      -1.0483238335880740 [Eh]
	 SCS Total Energy          =    -651.9578418320164701 [Eh]
	-----------------------------------------------------------

  Dipole Moment: [D]
     X:     2.0047      Y:    -1.9968      Z:    -0.1069     Total:     2.8315

*** Psi4 exiting successfully. Buy a developer a beer!
