                               Psi4 1.3.2 release

  ==> Input File <==

--------------------------------------------------------------------------
#psi4
#
memory 32 gb

molecule  {
0 1
 Cl       -1.7654740    -0.3100940    -0.0000140
  O        0.1191480     1.5182110     0.0000140
  C        0.9469309    -0.7644925    -0.0999590
  C        2.3654940    -0.2123180    -0.0000340
  C       -0.0820610     0.3337550     0.0000080
  H        0.7528550    -1.3956680     0.8744030
  H        0.7528050    -1.3957990    -0.8742120
  H        2.5431970     0.4048060    -0.8827890
  H        2.5432490     0.4048980     0.8826450
  H        3.0855950    -1.0339960    -0.0000140
units angstrom
no_reorient  #important for SAPT in psi4, default
symmetry c1  #important for SAPT in psi4, default
}

set PROPERTIES_ORIGIN ["COM"]
properties('MP2/aug-cc-pvtz', properties = ['dipole'])
--------------------------------------------------------------------------

    Molecular point group: c1
  Charge       = 0
  Multiplicity = 1
  Basis Set: AUG-CC-PVTZ
    Blend: AUG-CC-PVTZ
  Basis Set: (AUG-CC-PVTZ AUX)
    Blend: AUG-CC-PVTZ-JKFIT

    Orbital Energies [Eh]
    ---------------------

    Doubly Occupied:

       1A   -104.849375     2A    -20.593040     3A    -11.411597
       4A    -11.272642     5A    -11.239130     6A    -10.573887
       7A     -8.040516     8A     -8.038837     9A     -8.038692
      10A     -1.436642    11A     -1.136807    12A     -1.072350
      13A     -0.913142    14A     -0.768207    15A     -0.688242
      16A     -0.660633    17A     -0.650897    18A     -0.572648
      19A     -0.564336    20A     -0.550579    21A     -0.504335
      22A     -0.466852    23A     -0.465188    24A     -0.450398

  @DF-RHF Final Energy:  -650.96581466037230

   => Energetics <=

    Nuclear Repulsion Energy =            212.6919186941591704
    One-Electron Energy =               -1317.3975218664972999
    Two-Electron Energy =                 453.7397885119658554
    Total Energy =                       -650.9658146603724163
  Basis Set: (AUG-CC-PVTZ AUX)
    Blend: AUG-CC-PVTZ-RI
    Molecular point group: c1

    Geometry (in Angstrom), charge = 0, multiplicity = 1:

       Center              X                  Y                   Z               Mass
    ------------   -----------------  -----------------  -----------------  -----------------
         CL          -1.642510018024    -0.339267001334     0.013029637486    34.968852682000
         O            0.242111981976     1.489037998666     0.013057637486    15.994914619570
         C            1.069894881976    -0.793665501334    -0.086915362514    12.000000000000
         C            2.488457981976    -0.241491001334     0.013009637486    12.000000000000
         C            0.040902981976     0.304581998666     0.013051637486    12.000000000000
         H            0.875818981976    -1.424841001334     0.887446637486     1.007825032230
         H            0.875768981976    -1.424972001334    -0.861168362514     1.007825032230
         H            2.666160981976     0.375632998666    -0.869745362514     1.007825032230
         H            2.666212981976     0.375724998666     0.895688637486     1.007825032230
         H            3.208558981976    -1.063169001334     0.013029637486     1.007825032230

  Basis Set: AUG-CC-PVTZ
    Blend: AUG-CC-PVTZ
  Basis Set: (AUG-CC-PVTZ AUX)
    Blend: AUG-CC-PVTZ-JKFIT
	 Reference Energy          =    -650.9658146603723026 [Eh]
	 Singles Energy            =      -0.0000000000000000 [Eh]
	 Same-Spin Energy          =      -0.2529546263321943 [Eh]
	 Opposite-Spin Energy      =      -0.8003633508730535 [Eh]
	 Correlation Energy        =      -1.0533179772052479 [Eh]
	 Total Energy              =    -652.0191326375775134 [Eh]

	 ================> DF-SCS-MP2 Energies <==================
	-----------------------------------------------------------
	 SCS Same-Spin Scale       =       0.3333333333333333 [-]
	 SCS Opposite-Spin Scale   =       1.2000000000000000 [-]
	 SCS Same-Spin Energy      =      -0.0843182087773981 [Eh]
	 SCS Opposite-Spin Energy  =      -0.9604360210476642 [Eh]
	 SCS Correlation Energy    =      -1.0447542298250623 [Eh]
	 SCS Total Energy          =    -652.0105688901974190 [Eh]
	-----------------------------------------------------------

  Dipole Moment: [D]
     X:     1.9595      Y:    -2.0325      Z:    -0.0446     Total:     2.8236

*** Psi4 exiting successfully. Buy a developer a beer!
