                               Psi4 1.3.2 release

  ==> Input File <==

--------------------------------------------------------------------------
#psi4
#
memory 32 gb

molecule  {
0 1
 Cl       -1.7654740    -0.3100940    -0.0000140
  O        0.1191480     1.5182110     0.0000140
  C        0.9469348    -0.7644934    -0.2999590
  C        2.3654940    -0.2123180    -0.0000340
  C       -0.0820610     0.3337550     0.0000080
  H        0.7528550    -1.3956680     0.8744030
  H        0.7528050    -1.3957990    -0.8742120
  H        2.5431970     0.4048060    -0.8827890
  H        2.5432490     0.4048980     0.8826450
  H        3.0855950    -1.0339960    -0.0000140
units angstrom
no_reorient  #important for SAPT in psi4, default
symmetry c1  #important for SAPT in psi4, default
}

set PROPERTIES_ORIGIN ["COM"]
properties('MP2/aug-cc-pvtz', properties = ['dipole'])
--------------------------------------------------------------------------

    Molecular point group: c1
  Charge       = 0
  Multiplicity = 1
  Basis Set: AUG-CC-PVTZ
    Blend: AUG-CC-PVTZ
  Basis Set: (AUG-CC-PVTZ AUX)
    Blend: AUG-CC-PVTZ-JKFIT

    Orbital Energies [Eh]
    ---------------------

    Doubly Occupied:

       1A   -104.849216     2A    -20.593043     3A    -11.416573
       4A    -11.282304     5A    -11.245854     6A    -10.573688
       7A     -8.040317     8A     -8.038621     9A     -8.038475
      10A     -1.436893    11A     -1.136065    12A     -1.073131
      13A     -0.918770    14A     -0.792876    15A     -0.700253
      16A     -0.659070    17A     -0.633116    18A     -0.589510
      19A     -0.571795    20A     -0.554822    21A     -0.473103
      22A     -0.467289    23A     -0.453906    24A     -0.443083

  @DF-RHF Final Energy:  -650.87965505663669

   => Energetics <=

    Nuclear Repulsion Energy =            212.2354516625608767
    One-Electron Energy =               -1316.2666622598364938
    Two-Electron Energy =                 453.1515555406390376
    Total Energy =                       -650.8796550566366932
  Basis Set: (AUG-CC-PVTZ AUX)
    Blend: AUG-CC-PVTZ-RI
    Molecular point group: c1

    Geometry (in Angstrom), charge = 0, multiplicity = 1:

       Center              X                  Y                   Z               Mass
    ------------   -----------------  -----------------  -----------------  -----------------
         CL          -1.642510526703    -0.339266883946     0.039115773864    34.968852682000
         O            0.242111473297     1.489038116054     0.039143773864    15.994914619570
         C            1.069898273297    -0.793666283946    -0.260829226136    12.000000000000
         C            2.488457473297    -0.241490883946     0.039095773864    12.000000000000
         C            0.040902473297     0.304582116054     0.039137773864    12.000000000000
         H            0.875818473297    -1.424840883946     0.913532773864     1.007825032230
         H            0.875768473297    -1.424971883946    -0.835082226136     1.007825032230
         H            2.666160473297     0.375633116054    -0.843659226136     1.007825032230
         H            2.666212473297     0.375725116054     0.921774773864     1.007825032230
         H            3.208558473297    -1.063168883946     0.039115773864     1.007825032230

  Basis Set: AUG-CC-PVTZ
    Blend: AUG-CC-PVTZ
  Basis Set: (AUG-CC-PVTZ AUX)
    Blend: AUG-CC-PVTZ-JKFIT
	 Reference Energy          =    -650.8796550566366932 [Eh]
	 Singles Energy            =      -0.0000000000000000 [Eh]
	 Same-Spin Energy          =      -0.2540709474991449 [Eh]
	 Opposite-Spin Energy      =      -0.8046118908009620 [Eh]
	 Correlation Energy        =      -1.0586828383001068 [Eh]
	 Total Energy              =    -651.9383378949368080 [Eh]

	 ================> DF-SCS-MP2 Energies <==================
	-----------------------------------------------------------
	 SCS Same-Spin Scale       =       0.3333333333333333 [-]
	 SCS Opposite-Spin Scale   =       1.2000000000000000 [-]
	 SCS Same-Spin Energy      =      -0.0846903158330483 [Eh]
	 SCS Opposite-Spin Energy  =      -0.9655342689611544 [Eh]
	 SCS Correlation Energy    =      -1.0502245847942027 [Eh]
	 SCS Total Energy          =    -651.9298796414309436 [Eh]
	-----------------------------------------------------------

  Dipole Moment: [D]
     X:     2.0262      Y:    -1.9820      Z:    -0.1239     Total:     2.8371

*** Psi4 exiting successfully. Buy a developer a beer!
