                               Psi4 1.3.2 release

  ==> Input File <==

--------------------------------------------------------------------------
#psi4
#
memory 32 gb

molecule  {
0 1
 Cl       -1.7654740    -0.3100940    -0.0000140
  O        0.1191480     1.5182110     0.0000140
  C        0.9469329    -0.7644930    -0.1999590
  C        2.3654940    -0.2123180    -0.0000340
  C       -0.0820610     0.3337550     0.0000080
  H        0.7528550    -1.3956680     0.8744030
  H        0.7528050    -1.3957990    -0.8742120
  H        2.5431970     0.4048060    -0.8827890
  H        2.5432490     0.4048980     0.8826450
  H        3.0855950    -1.0339960    -0.0000140
units angstrom
no_reorient  #important for SAPT in psi4, default
symmetry c1  #important for SAPT in psi4, default
}

set PROPERTIES_ORIGIN ["COM"]
properties('MP2/aug-cc-pvtz', properties = ['dipole'])
--------------------------------------------------------------------------

    Molecular point group: c1
  Charge       = 0
  Multiplicity = 1
  Basis Set: AUG-CC-PVTZ
    Blend: AUG-CC-PVTZ
  Basis Set: (AUG-CC-PVTZ AUX)
    Blend: AUG-CC-PVTZ-JKFIT

    Orbital Energies [Eh]
    ---------------------

    Doubly Occupied:

       1A   -104.849314     2A    -20.593051     3A    -11.413518
       4A    -11.276288     5A    -11.241720     6A    -10.573811
       7A     -8.040440     8A     -8.038755     9A     -8.038609
      10A     -1.436751    11A     -1.136516    12A     -1.072582
      13A     -0.914970    14A     -0.778632    15A     -0.695185
      16A     -0.659801    17A     -0.642179    18A     -0.578562
      19A     -0.568116    20A     -0.556588    21A     -0.485097
      22A     -0.467115    23A     -0.462020    24A     -0.448684

  @DF-RHF Final Energy:  -650.93379505476491

   => Energetics <=

    Nuclear Repulsion Energy =            212.5195342747146583
    One-Electron Energy =               -1316.9700545082364442
    Two-Electron Energy =                 453.5167251787568148
    Total Energy =                       -650.9337950547649143
  Basis Set: (AUG-CC-PVTZ AUX)
    Blend: AUG-CC-PVTZ-RI
    Molecular point group: c1

    Geometry (in Angstrom), charge = 0, multiplicity = 1:

       Center              X                  Y                   Z               Mass
    ------------   -----------------  -----------------  -----------------  -----------------
         CL          -1.642510278885    -0.339266936119     0.026072705675    34.968852682000
         O            0.242111721115     1.489038063881     0.026100705675    15.994914619570
         C            1.069896621115    -0.793665936119    -0.173872294325    12.000000000000
         C            2.488457721115    -0.241490936119     0.026052705675    12.000000000000
         C            0.040902721115     0.304582063881     0.026094705675    12.000000000000
         H            0.875818721115    -1.424840936119     0.900489705675     1.007825032230
         H            0.875768721115    -1.424971936119    -0.848125294325     1.007825032230
         H            2.666160721115     0.375633063881    -0.856702294325     1.007825032230
         H            2.666212721115     0.375725063881     0.908731705675     1.007825032230
         H            3.208558721115    -1.063168936119     0.026072705675     1.007825032230

  Basis Set: AUG-CC-PVTZ
    Blend: AUG-CC-PVTZ
  Basis Set: (AUG-CC-PVTZ AUX)
    Blend: AUG-CC-PVTZ-JKFIT
	 Reference Energy          =    -650.9337950547649143 [Eh]
	 Singles Energy            =      -0.0000000000000000 [Eh]
	 Same-Spin Energy          =      -0.2533637517986372 [Eh]
	 Opposite-Spin Energy      =      -0.8019368514443996 [Eh]
	 Correlation Energy        =      -1.0553006032430368 [Eh]
	 Total Energy              =    -651.9890956580079546 [Eh]

	 ================> DF-SCS-MP2 Energies <==================
	-----------------------------------------------------------
	 SCS Same-Spin Scale       =       0.3333333333333333 [-]
	 SCS Opposite-Spin Scale   =       1.2000000000000000 [-]
	 SCS Same-Spin Energy      =      -0.0844545839328791 [Eh]
	 SCS Opposite-Spin Energy  =      -0.9623242217332795 [Eh]
	 SCS Correlation Energy    =      -1.0467788056661584 [Eh]
	 SCS Total Energy          =    -651.9805738604310363 [Eh]
	-----------------------------------------------------------

  Dipole Moment: [D]
     X:     1.9859      Y:    -2.0110      Z:    -0.0874     Total:     2.8276

*** Psi4 exiting successfully. Buy a developer a beer!
