                               Psi4 1.3.2 release

  ==> Input File <==

--------------------------------------------------------------------------
#psi4
#
memory 32 gb

molecule  {
0 1
 Cl       -1.7654740    -0.3100940    -0.0000140
  O        0.1191480     1.5182110     0.0000140
  C        0.9469290    -0.7644920     0.0000410
  C        2.3654940    -0.2123180    -0.0000340
  C       -0.0820610     0.3337550     0.0000080
  H        0.7528550    -1.3956680     0.8744030
  H        0.7528050    -1.3957990    -0.8742120
  H        2.5431970     0.4048060    -0.8827890
  H        2.5432490     0.4048980     0.8826450
  H        3.0855950    -1.0339960    -0.0000140
units angstrom
no_reorient  #important for SAPT in psi4, default
symmetry c1  #important for SAPT in psi4, default
}

set PROPERTIES_ORIGIN ["COM"]
properties('MP2/aug-cc-pvtz', properties = ['dipole'])
--------------------------------------------------------------------------

    Molecular point group: c1
  Charge       = 0
  Multiplicity = 1
  Basis Set: AUG-CC-PVTZ
    Blend: AUG-CC-PVTZ
  Basis Set: (AUG-CC-PVTZ AUX)
    Blend: AUG-CC-PVTZ-JKFIT

    Orbital Energies [Eh]
    ---------------------

    Doubly Occupied:

       1A   -104.849396     2A    -20.593035     3A    -11.410943
       4A    -11.271424     5A    -11.238249     6A    -10.573913
       7A     -8.040542     8A     -8.038866     9A     -8.038720
      10A     -1.436602    11A     -1.136908    12A     -1.072289
      13A     -0.912616    14A     -0.764494    15A     -0.683962
      16A     -0.661667    17A     -0.654873    18A     -0.571233
      19A     -0.564162    20A     -0.540789    21A     -0.517426
      22A     -0.466484    23A     -0.466201    24A     -0.450869

  @DF-RHF Final Energy:  -650.97637337937795

   => Energetics <=

    Nuclear Repulsion Energy =            212.7497445780799410
    One-Electron Energy =               -1317.5409092133979811
    Two-Electron Energy =                 453.8147912559399515
    Total Energy =                       -650.9763733793779465
  Basis Set: (AUG-CC-PVTZ AUX)
    Blend: AUG-CC-PVTZ-RI
    Molecular point group: c1

    Geometry (in Angstrom), charge = 0, multiplicity = 1:

       Center              X                  Y                   Z               Mass
    ------------   -----------------  -----------------  -----------------  -----------------
         CL          -1.642509770205    -0.339267066549    -0.000013430704    34.968852682000
         O            0.242112229795     1.489037933451     0.000014569296    15.994914619570
         C            1.069893229795    -0.793665066549     0.000041569296    12.000000000000
         C            2.488458229795    -0.241491066549    -0.000033430704    12.000000000000
         C            0.040903229795     0.304581933451     0.000008569296    12.000000000000
         H            0.875819229795    -1.424841066549     0.874403569296     1.007825032230
         H            0.875769229795    -1.424972066549    -0.874211430704     1.007825032230
         H            2.666161229795     0.375632933451    -0.882788430704     1.007825032230
         H            2.666213229795     0.375724933451     0.882645569296     1.007825032230
         H            3.208559229795    -1.063169066549    -0.000013430704     1.007825032230

  Basis Set: AUG-CC-PVTZ
    Blend: AUG-CC-PVTZ
  Basis Set: (AUG-CC-PVTZ AUX)
    Blend: AUG-CC-PVTZ-JKFIT
	 Reference Energy          =    -650.9763733793779465 [Eh]
	 Singles Energy            =      -0.0000000000000000 [Eh]
	 Same-Spin Energy          =      -0.2528211270609796 [Eh]
	 Opposite-Spin Energy      =      -0.7998505479629021 [Eh]
	 Correlation Energy        =      -1.0526716750238818 [Eh]
	 Total Energy              =    -652.0290450544018768 [Eh]

	 ================> DF-SCS-MP2 Energies <==================
	-----------------------------------------------------------
	 SCS Same-Spin Scale       =       0.3333333333333333 [-]
	 SCS Opposite-Spin Scale   =       1.2000000000000000 [-]
	 SCS Same-Spin Energy      =      -0.0842737090203265 [Eh]
	 SCS Opposite-Spin Energy  =      -0.9598206575554825 [Eh]
	 SCS Correlation Energy    =      -1.0440943665758091 [Eh]
	 SCS Total Energy          =    -652.0204677459537379 [Eh]
	-----------------------------------------------------------

  Dipole Moment: [D]
     X:     1.9503      Y:    -2.0403      Z:     0.0000     Total:     2.8225

*** Psi4 exiting successfully. Buy a developer a beer!
