                               Psi4 1.3.2 release

  ==> Input File <==

--------------------------------------------------------------------------
#psi4
#
memory 32 gb

molecule  {
0 1
  O        1.1347230    -0.7035620     0.0192210
  O        0.0419040     1.2849720    -0.0032760
  C       -1.2206870    -0.7926310    -0.0174520
  C       -2.4959880     0.0348800    -0.0353530
  C        0.1000809     0.1231783     0.0013849
  C        2.3639990     0.0443740     0.0345400
  H       -1.1558060    -1.4513950    -0.8901140
  H       -1.1802510    -1.4521290     0.8560270
  H       -2.5275640     0.6780870    -0.9162870
  H       -3.3724930    -0.6172840    -0.0483470
  H       -2.5529900     0.6769780     0.8451350
  H        3.1528260    -0.7045810     0.0501140
  H        2.4139010     0.6783770     0.9207630
  H        2.4412840     0.6703610    -0.8553990
units angstrom
no_reorient  #important for SAPT in psi4, default
symmetry c1  #important for SAPT in psi4, default
}

set PROPERTIES_ORIGIN ["COM"]
properties('MP2/aug-cc-pvtz', properties = ['dipole'])
--------------------------------------------------------------------------

    Molecular point group: c1
  Charge       = 0
  Multiplicity = 1
  Basis Set: AUG-CC-PVTZ
    Blend: AUG-CC-PVTZ
  Basis Set: (AUG-CC-PVTZ AUX)
    Blend: AUG-CC-PVTZ-JKFIT

    Orbital Energies [Eh]
    ---------------------

    Doubly Occupied:

       1A    -20.612101     2A    -20.550063     3A    -11.372604
       4A    -11.288739     5A    -11.236917     6A    -11.213385
       7A     -1.479647     8A     -1.390115     9A     -1.044469
      10A     -0.975138    11A     -0.860692    12A     -0.777549
      13A     -0.701502    14A     -0.687099    15A     -0.681273
      16A     -0.612277    17A     -0.599698    18A     -0.551681
      19A     -0.546454    20A     -0.522709    21A     -0.514388
      22A     -0.492678    23A     -0.475387    24A     -0.429638

  @DF-RHF Final Energy:  -305.97903588662103

   => Energetics <=

    Nuclear Repulsion Energy =            245.6864624555783223
    One-Electron Energy =                -904.0985911312109238
    Two-Electron Energy =                 352.4330927890115959
    Total Energy =                       -305.9790358866210340
  Basis Set: (AUG-CC-PVTZ AUX)
    Blend: AUG-CC-PVTZ-RI
    Molecular point group: c1

    Geometry (in Angstrom), charge = 0, multiplicity = 1:

       Center              X                  Y                   Z               Mass
    ------------   -----------------  -----------------  -----------------  -----------------
         O            1.123524534866    -0.711326992441     0.019061191607    15.994914619570
         O            0.030705534866     1.277207007559    -0.003435808393    15.994914619570
         C           -1.231885465134    -0.800395992441    -0.017611808393    12.000000000000
         C           -2.507186465134     0.027115007559    -0.035512808393    12.000000000000
         C            0.088882434866     0.115413307559     0.001225091607    12.000000000000
         C            2.352800534866     0.036609007559     0.034380191607    12.000000000000
         H           -1.167004465134    -1.459159992441    -0.890273808393     1.007825032230
         H           -1.191449465134    -1.459893992441     0.855867191607     1.007825032230
         H           -2.538762465134     0.670322007559    -0.916446808393     1.007825032230
         H           -3.383691465134    -0.625048992441    -0.048506808393     1.007825032230
         H           -2.564188465134     0.669213007559     0.844975191607     1.007825032230
         H            3.141627534866    -0.712345992441     0.049954191607     1.007825032230
         H            2.402702534866     0.670612007559     0.920603191607     1.007825032230
         H            2.430085534866     0.662596007559    -0.855558808393     1.007825032230

  Basis Set: AUG-CC-PVTZ
    Blend: AUG-CC-PVTZ
  Basis Set: (AUG-CC-PVTZ AUX)
    Blend: AUG-CC-PVTZ-JKFIT
	 Reference Energy          =    -305.9790358866210340 [Eh]
	 Singles Energy            =      -0.0000000000000000 [Eh]
	 Same-Spin Energy          =      -0.2961008462186199 [Eh]
	 Opposite-Spin Energy      =      -0.9741650161791052 [Eh]
	 Correlation Energy        =      -1.2702658623977250 [Eh]
	 Total Energy              =    -307.2493017490187412 [Eh]

	 ================> DF-SCS-MP2 Energies <==================
	-----------------------------------------------------------
	 SCS Same-Spin Scale       =       0.3333333333333333 [-]
	 SCS Opposite-Spin Scale   =       1.2000000000000000 [-]
	 SCS Same-Spin Energy      =      -0.0987002820728733 [Eh]
	 SCS Opposite-Spin Energy  =      -1.1689980194149263 [Eh]
	 SCS Correlation Energy    =      -1.2676983014877996 [Eh]
	 SCS Total Energy          =    -307.2467341881088601 [Eh]
	-----------------------------------------------------------

  Dipole Moment: [D]
     X:     0.9995      Y:    -1.2507      Z:     0.0172     Total:     1.6012

*** Psi4 exiting successfully. Buy a developer a beer!
