                               Psi4 1.3.2 release

  ==> Input File <==

--------------------------------------------------------------------------
#psi4
#
memory 32 gb

molecule  {
0 1
  O        1.1413976    -0.6937854     0.0192892
  O        0.0525376     1.2847167    -0.0031173
  C       -1.2206870    -0.7926310    -0.0174520
  C       -2.4959880     0.0348800    -0.0353530
  C        0.0179090     0.0662010     0.0002130
  C        2.3639990     0.0443740     0.0345400
  H       -1.1558060    -1.4513950    -0.8901140
  H       -1.1802510    -1.4521290     0.8560270
  H       -2.5275640     0.6780870    -0.9162870
  H       -3.3724930    -0.6172840    -0.0483470
  H       -2.5529900     0.6769780     0.8451350
  H        3.1528260    -0.7045810     0.0501140
  H        2.4139010     0.6783770     0.9207630
  H        2.4412840     0.6703610    -0.8553990
units angstrom
no_reorient  #important for SAPT in psi4, default
symmetry c1  #important for SAPT in psi4, default
}

set PROPERTIES_ORIGIN ["COM"]
properties('MP2/aug-cc-pvtz', properties = ['dipole'])
--------------------------------------------------------------------------

    Molecular point group: c1
  Charge       = 0
  Multiplicity = 1
  Basis Set: AUG-CC-PVTZ
    Blend: AUG-CC-PVTZ
  Basis Set: (AUG-CC-PVTZ AUX)
    Blend: AUG-CC-PVTZ-JKFIT

    Orbital Energies [Eh]
    ---------------------

    Doubly Occupied:

       1A    -20.602491     2A    -20.544547     3A    -11.379438
       4A    -11.282636     5A    -11.246647     6A    -11.221128
       7A     -1.455630     8A     -1.352638     9A     -1.067256
      10A     -0.972384    11A     -0.878108    12A     -0.767152
      13A     -0.700467    14A     -0.677839    15A     -0.668489
      16A     -0.620989    17A     -0.600528    18A     -0.538198
      19A     -0.534774    20A     -0.525726    21A     -0.518870
      22A     -0.496401    23A     -0.460699    24A     -0.448063

  @DF-RHF Final Energy:  -305.98690089334980

   => Energetics <=

    Nuclear Repulsion Energy =            245.2242057102762374
    One-Electron Energy =                -903.3000164399898040
    Two-Electron Energy =                 352.0889098363637686
    Total Energy =                       -305.9869008933497980
  Basis Set: (AUG-CC-PVTZ AUX)
    Blend: AUG-CC-PVTZ-RI
    Molecular point group: c1

    Geometry (in Angstrom), charge = 0, multiplicity = 1:

       Center              X                  Y                   Z               Mass
    ------------   -----------------  -----------------  -----------------  -----------------
         O            1.138253649918    -0.695514951710     0.019247884122    15.994914619570
         O            0.049393649918     1.282987148290    -0.003158615878    15.994914619570
         C           -1.223830950082    -0.794360551710    -0.017493315878    12.000000000000
         C           -2.499131950082     0.033150448290    -0.035394315878    12.000000000000
         C            0.014765049918     0.064471448290     0.000171684122    12.000000000000
         C            2.360855049918     0.042644448290     0.034498684122    12.000000000000
         H           -1.158949950082    -1.453124551710    -0.890155315878     1.007825032230
         H           -1.183394950082    -1.453858551710     0.855985684122     1.007825032230
         H           -2.530707950082     0.676357448290    -0.916328315878     1.007825032230
         H           -3.375636950082    -0.619013551710    -0.048388315878     1.007825032230
         H           -2.556133950082     0.675248448290     0.845093684122     1.007825032230
         H            3.149682049918    -0.706310551710     0.050072684122     1.007825032230
         H            2.410757049918     0.676647448290     0.920721684122     1.007825032230
         H            2.438140049918     0.668631448290    -0.855440315878     1.007825032230

  Basis Set: AUG-CC-PVTZ
    Blend: AUG-CC-PVTZ
  Basis Set: (AUG-CC-PVTZ AUX)
    Blend: AUG-CC-PVTZ-JKFIT
	 Reference Energy          =    -305.9869008933497980 [Eh]
	 Singles Energy            =      -0.0000000000000000 [Eh]
	 Same-Spin Energy          =      -0.2973184940436897 [Eh]
	 Opposite-Spin Energy      =      -0.9762599393368026 [Eh]
	 Correlation Energy        =      -1.2735784333804923 [Eh]
	 Total Energy              =    -307.2604793267302625 [Eh]

	 ================> DF-SCS-MP2 Energies <==================
	-----------------------------------------------------------
	 SCS Same-Spin Scale       =       0.3333333333333333 [-]
	 SCS Opposite-Spin Scale   =       1.2000000000000000 [-]
	 SCS Same-Spin Energy      =      -0.0991061646812299 [Eh]
	 SCS Opposite-Spin Energy  =      -1.1715119272041630 [Eh]
	 SCS Correlation Energy    =      -1.2706180918853929 [Eh]
	 SCS Total Energy          =    -307.2575189852352082 [Eh]
	-----------------------------------------------------------

  Dipole Moment: [D]
     X:     0.3674      Y:    -1.5921      Z:     0.0082     Total:     1.6340

*** Psi4 exiting successfully. Buy a developer a beer!
