                               Psi4 1.3.2 release

  ==> Input File <==

--------------------------------------------------------------------------
#psi4
#
memory 32 gb

molecule  {
0 1
  O        1.1211192    -0.7229385     0.0190802
  O        0.0206321     1.2852042    -0.0035925
  C       -1.2206870    -0.7926310    -0.0174520
  C       -2.4959880     0.0348800    -0.0353530
  C        0.0179090     0.0662010     0.0002130
  C        2.3639990     0.0443740     0.0345400
  H       -1.1558060    -1.4513950    -0.8901140
  H       -1.1802510    -1.4521290     0.8560270
  H       -2.5275640     0.6780870    -0.9162870
  H       -3.3724930    -0.6172840    -0.0483470
  H       -2.5529900     0.6769780     0.8451350
  H        3.1528260    -0.7045810     0.0501140
  H        2.4139010     0.6783770     0.9207630
  H        2.4412840     0.6703610    -0.8553990
units angstrom
no_reorient  #important for SAPT in psi4, default
symmetry c1  #important for SAPT in psi4, default
}

set PROPERTIES_ORIGIN ["COM"]
properties('MP2/aug-cc-pvtz', properties = ['dipole'])
--------------------------------------------------------------------------

    Molecular point group: c1
  Charge       = 0
  Multiplicity = 1
  Basis Set: AUG-CC-PVTZ
    Blend: AUG-CC-PVTZ
  Basis Set: (AUG-CC-PVTZ AUX)
    Blend: AUG-CC-PVTZ-JKFIT

    Orbital Energies [Eh]
    ---------------------

    Doubly Occupied:

       1A    -20.606641     2A    -20.545644     3A    -11.378743
       4A    -11.287768     5A    -11.242533     6A    -11.218502
       7A     -1.450720     8A     -1.353312     9A     -1.063755
      10A     -0.970560    11A     -0.877200    12A     -0.766190
      13A     -0.697913    14A     -0.675252    15A     -0.666686
      16A     -0.618391    17A     -0.597409    18A     -0.540090
      19A     -0.539213    20A     -0.521675    21A     -0.519120
      22A     -0.494672    23A     -0.464803    24A     -0.446510

  @DF-RHF Final Energy:  -305.98469916226753

   => Energetics <=

    Nuclear Repulsion Energy =            244.7672516438154844
    One-Electron Energy =                -902.4173007057484028
    Two-Electron Energy =                 351.6653498996653866
    Total Energy =                       -305.9846991622675318
  Basis Set: (AUG-CC-PVTZ AUX)
    Blend: AUG-CC-PVTZ-RI
    Molecular point group: c1

    Geometry (in Angstrom), charge = 0, multiplicity = 1:

       Center              X                  Y                   Z               Mass
    ------------   -----------------  -----------------  -----------------  -----------------
         O            1.127454568431    -0.719460883355     0.019163170535    15.994914619570
         O            0.026967468431     1.288681816645    -0.003509529465    15.994914619570
         C           -1.214351631569    -0.789153383355    -0.017369029465    12.000000000000
         C           -2.489652631569     0.038357616645    -0.035270029465    12.000000000000
         C            0.024244368431     0.069678616645     0.000295970535    12.000000000000
         C            2.370334368431     0.047851616645     0.034622970535    12.000000000000
         H           -1.149470631569    -1.447917383355    -0.890031029465     1.007825032230
         H           -1.173915631569    -1.448651383355     0.856109970535     1.007825032230
         H           -2.521228631569     0.681564616645    -0.916204029465     1.007825032230
         H           -3.366157631569    -0.613806383355    -0.048264029465     1.007825032230
         H           -2.546654631569     0.680455616645     0.845217970535     1.007825032230
         H            3.159161368431    -0.701103383355     0.050196970535     1.007825032230
         H            2.420236368431     0.681854616645     0.920845970535     1.007825032230
         H            2.447619368431     0.673838616645    -0.855316029465     1.007825032230

  Basis Set: AUG-CC-PVTZ
    Blend: AUG-CC-PVTZ
  Basis Set: (AUG-CC-PVTZ AUX)
    Blend: AUG-CC-PVTZ-JKFIT
	 Reference Energy          =    -305.9846991622675318 [Eh]
	 Singles Energy            =      -0.0000000000000000 [Eh]
	 Same-Spin Energy          =      -0.2976235098019732 [Eh]
	 Opposite-Spin Energy      =      -0.9773931315584631 [Eh]
	 Correlation Energy        =      -1.2750166413604362 [Eh]
	 Total Energy              =    -307.2597158036279552 [Eh]

	 ================> DF-SCS-MP2 Energies <==================
	-----------------------------------------------------------
	 SCS Same-Spin Scale       =       0.3333333333333333 [-]
	 SCS Opposite-Spin Scale   =       1.2000000000000000 [-]
	 SCS Same-Spin Energy      =      -0.0992078366006577 [Eh]
	 SCS Opposite-Spin Energy  =      -1.1728717578701557 [Eh]
	 SCS Correlation Energy    =      -1.2720795944708134 [Eh]
	 SCS Total Energy          =    -307.2567787567383562 [Eh]
	-----------------------------------------------------------

  Dipole Moment: [D]
     X:     0.5985      Y:    -1.5082      Z:     0.0114     Total:     1.6227

*** Psi4 exiting successfully. Buy a developer a beer!
