                               Psi4 1.4a3.dev225

  ==> Input File <==

--------------------------------------------------------------------------
#psi4
#
memory 32 gb

molecule  {
0 1
  O        1.1455950    -0.7206100    -0.0000020
  O        0.1065970     1.2988430     0.0000060
  C       -1.2145750    -0.7450000     0.0000080
  C       -2.4678730     0.1187130    -0.0000080
  C        0.0073468     0.0526917     0.0000032
  C        2.3963290    -0.0041190    -0.0000040
  H       -1.1806580    -1.4052490    -0.8737030
  H       -1.1806650    -1.4052230     0.8737390
  H       -2.4946670     0.7625720    -0.8811910
  H       -3.3622150    -0.5096080    -0.0000470
  H       -2.4947180     0.7625340     0.8812010
  H        3.1644210    -0.7750410    -0.0000210
  H        2.4762030     0.6232120     0.8890930
  H        2.4761870     0.6232350    -0.8890870
units angstrom
no_reorient  #important for SAPT in psi4, default
symmetry c1  #important for SAPT in psi4, default
}

set PROPERTIES_ORIGIN ["COM"]
properties('MP2/aug-cc-pvtz', properties = ['dipole'])
--------------------------------------------------------------------------

    Molecular point group: c1
  Charge       = 0
  Multiplicity = 1
  Basis Set: AUG-CC-PVTZ
    Blend: AUG-CC-PVTZ
  Basis Set: (AUG-CC-PVTZ AUX)
    Blend: AUG-CC-PVTZ-JKFIT

    Orbital Energies [Eh]
    ---------------------

    Doubly Occupied:

       1A    -20.599997     2A    -20.542994     3A    -11.384087
       4A    -11.282675     5A    -11.248587     6A    -11.224093
       7A     -1.440190     8A     -1.333812     9A     -1.078395
      10A     -0.969594    11A     -0.886109    12A     -0.761853
      13A     -0.700196    14A     -0.673518    15A     -0.660395
      16A     -0.622847    17A     -0.598361    18A     -0.534814
      19A     -0.532706    20A     -0.529158    21A     -0.518077
      22A     -0.495712    23A     -0.454659    24A     -0.449425

  @DF-RHF Final Energy:  -305.97886607328934

   => Energetics <=

    Nuclear Repulsion Energy =            244.5529352710048556
    One-Electron Energy =                -902.0190907527120316
    Two-Electron Energy =                 351.4872894084177801
    Total Energy =                       -305.9788660732893391
  Basis Set: (AUG-CC-PVTZ AUX)
    Blend: AUG-CC-PVTZ-RI
    Molecular point group: c1

    Geometry (in Angstrom), charge = 0, multiplicity = 1:

       Center              X                  Y                   Z               Mass
    ------------   -----------------  -----------------  -----------------  -----------------
         O            1.122120223903    -0.731765750143    -0.000002434451    15.994914619570
         O            0.083122223903     1.287687249857     0.000005565549    15.994914619570
         C           -1.238049776097    -0.756155750143     0.000007565549    12.000000000000
         C           -2.491347776097     0.107557249857    -0.000008434451    12.000000000000
         C           -0.016127976097     0.041535949857     0.000002765549    12.000000000000
         C            2.372854223903    -0.015274750143    -0.000004434451    12.000000000000
         H           -1.204132776097    -1.416404750143    -0.873703434451     1.007825032230
         H           -1.204139776097    -1.416378750143     0.873738565549     1.007825032230
         H           -2.518141776097     0.751416249857    -0.881191434451     1.007825032230
         H           -3.385689776097    -0.520763750143    -0.000047434451     1.007825032230
         H           -2.518192776097     0.751378249857     0.881200565549     1.007825032230
         H            3.140946223903    -0.786196750143    -0.000021434451     1.007825032230
         H            2.452728223903     0.612056249857     0.889092565549     1.007825032230
         H            2.452712223903     0.612079249857    -0.889087434451     1.007825032230

  Basis Set: AUG-CC-PVTZ
    Blend: AUG-CC-PVTZ
  Basis Set: (AUG-CC-PVTZ AUX)
    Blend: AUG-CC-PVTZ-JKFIT
	 Reference Energy          =    -305.9788660732893391 [Eh]
	 Singles Energy            =      -0.0000000000000000 [Eh]
	 Same-Spin Energy          =      -0.2985383461806868 [Eh]
	 Opposite-Spin Energy      =      -0.9788609980802508 [Eh]
	 Correlation Energy        =      -1.2773993442609377 [Eh]
	 Total Energy              =    -307.2562654175502530 [Eh]

	 ================> DF-SCS-MP2 Energies <==================
	-----------------------------------------------------------
	 SCS Same-Spin Scale       =       0.3333333333333333 [-]
	 SCS Opposite-Spin Scale   =       1.2000000000000000 [-]
	 SCS Same-Spin Energy      =      -0.0995127820602289 [Eh]
	 SCS Opposite-Spin Energy  =      -1.1746331976963009 [Eh]
	 SCS Correlation Energy    =      -1.2741459797565298 [Eh]
	 SCS Total Energy          =    -307.2530120530458930 [Eh]
	-----------------------------------------------------------

  Dipole Moment: [D]
     X:     0.1340      Y:    -1.7017      Z:    -0.0000     Total:     1.7070

*** Psi4 exiting successfully. Buy a developer a beer!
