                               Psi4 1.4a3.dev225

  ==> Input File <==

--------------------------------------------------------------------------
#psi4
#
memory 32 gb

molecule  {
0 1
  O        1.1455950    -0.7206100    -0.0000020
  O        0.1065970     1.2988430     0.0000060
  C       -1.2145750    -0.7450000     0.0000080
  C       -2.4678730     0.1187130    -0.0000080
  C        0.0088355     0.1095112     0.0000032
  C        2.3963290    -0.0041190    -0.0000040
  H       -1.1806580    -1.4052490    -0.8737030
  H       -1.1806650    -1.4052230     0.8737390
  H       -2.4946670     0.7625720    -0.8811910
  H       -3.3622150    -0.5096080    -0.0000470
  H       -2.4947180     0.7625340     0.8812010
  H        3.1644210    -0.7750410    -0.0000210
  H        2.4762030     0.6232120     0.8890930
  H        2.4761870     0.6232350    -0.8890870
units angstrom
no_reorient  #important for SAPT in psi4, default
symmetry c1  #important for SAPT in psi4, default
}

set PROPERTIES_ORIGIN ["COM"]
properties('MP2/aug-cc-pvtz', properties = ['dipole'])
--------------------------------------------------------------------------

    Molecular point group: c1
  Charge       = 0
  Multiplicity = 1
  Basis Set: AUG-CC-PVTZ
    Blend: AUG-CC-PVTZ
  Basis Set: (AUG-CC-PVTZ AUX)
    Blend: AUG-CC-PVTZ-JKFIT

    Orbital Energies [Eh]
    ---------------------

    Doubly Occupied:

       1A    -20.590739     2A    -20.553995     3A    -11.379787
       4A    -11.278136     5A    -11.247723     6A    -11.223036
       7A     -1.447243     8A     -1.355103     9A     -1.070842
      10A     -0.960837    11A     -0.878930    12A     -0.758843
      13A     -0.703442    14A     -0.670030    15A     -0.665973
      16A     -0.619703    17A     -0.601270    18A     -0.542131
      19A     -0.534529    20A     -0.524643    21A     -0.520415
      22A     -0.500300    23A     -0.459724    24A     -0.450274

  @DF-RHF Final Energy:  -305.98357896962386

   => Energetics <=

    Nuclear Repulsion Energy =            244.7688096147856527
    One-Electron Energy =                -902.4294836417739134
    Two-Electron Energy =                 351.6770950573644541
    Total Energy =                       -305.9835789696238635
  Basis Set: (AUG-CC-PVTZ AUX)
    Blend: AUG-CC-PVTZ-RI
    Molecular point group: c1

    Geometry (in Angstrom), charge = 0, multiplicity = 1:

       Center              X                  Y                   Z               Mass
    ------------   -----------------  -----------------  -----------------  -----------------
         O            1.121917340234    -0.739509250282    -0.000002434451    15.994914619570
         O            0.082919340234     1.279943749718     0.000005565549    15.994914619570
         C           -1.238252659766    -0.763899250282     0.000007565549    12.000000000000
         C           -2.491550659766     0.099813749718    -0.000008434451    12.000000000000
         C           -0.014842159766     0.090611949718     0.000002765549    12.000000000000
         C            2.372651340234    -0.023018250282    -0.000004434451    12.000000000000
         H           -1.204335659766    -1.424148250282    -0.873703434451     1.007825032230
         H           -1.204342659766    -1.424122250282     0.873738565549     1.007825032230
         H           -2.518344659766     0.743672749718    -0.881191434451     1.007825032230
         H           -3.385892659766    -0.528507250282    -0.000047434451     1.007825032230
         H           -2.518395659766     0.743634749718     0.881200565549     1.007825032230
         H            3.140743340234    -0.793940250282    -0.000021434451     1.007825032230
         H            2.452525340234     0.604312749718     0.889092565549     1.007825032230
         H            2.452509340234     0.604335749718    -0.889087434451     1.007825032230

  Basis Set: AUG-CC-PVTZ
    Blend: AUG-CC-PVTZ
  Basis Set: (AUG-CC-PVTZ AUX)
    Blend: AUG-CC-PVTZ-JKFIT
	 Reference Energy          =    -305.9835789696238635 [Eh]
	 Singles Energy            =      -0.0000000000000000 [Eh]
	 Same-Spin Energy          =      -0.2974336410930019 [Eh]
	 Opposite-Spin Energy      =      -0.9769564665056104 [Eh]
	 Correlation Energy        =      -1.2743901075986124 [Eh]
	 Total Energy              =    -307.2579690772224694 [Eh]

	 ================> DF-SCS-MP2 Energies <==================
	-----------------------------------------------------------
	 SCS Same-Spin Scale       =       0.3333333333333333 [-]
	 SCS Opposite-Spin Scale   =       1.2000000000000000 [-]
	 SCS Same-Spin Energy      =      -0.0991445470310006 [Eh]
	 SCS Opposite-Spin Energy  =      -1.1723477598067324 [Eh]
	 SCS Correlation Energy    =      -1.2714923068377331 [Eh]
	 SCS Total Energy          =    -307.2550712764615923 [Eh]
	-----------------------------------------------------------

  Dipole Moment: [D]
     X:    -0.0033      Y:    -1.3570      Z:    -0.0000     Total:     1.3570

*** Psi4 exiting successfully. Buy a developer a beer!
