                               Psi4 1.4a3.dev225

  ==> Input File <==

--------------------------------------------------------------------------
#psi4
#
memory 32 gb

molecule  {
0 1
  O        1.1455950    -0.7206100    -0.0000020
  O        0.1065970     1.2988430     0.0000060
  C       -1.2145750    -0.7450000     0.0000080
  C       -2.4678730     0.1187130    -0.0000080
  C        0.0501556     0.1000019     0.0000030
  C        2.3963290    -0.0041190    -0.0000040
  H       -1.1806580    -1.4052490    -0.8737030
  H       -1.1806650    -1.4052230     0.8737390
  H       -2.4946670     0.7625720    -0.8811910
  H       -3.3622150    -0.5096080    -0.0000470
  H       -2.4947180     0.7625340     0.8812010
  H        3.1644210    -0.7750410    -0.0000210
  H        2.4762030     0.6232120     0.8890930
  H        2.4761870     0.6232350    -0.8890870
units angstrom
no_reorient  #important for SAPT in psi4, default
symmetry c1  #important for SAPT in psi4, default
}

set PROPERTIES_ORIGIN ["COM"]
properties('MP2/aug-cc-pvtz', properties = ['dipole'])
--------------------------------------------------------------------------

    Molecular point group: c1
  Charge       = 0
  Multiplicity = 1
  Basis Set: AUG-CC-PVTZ
    Blend: AUG-CC-PVTZ
  Basis Set: (AUG-CC-PVTZ AUX)
    Blend: AUG-CC-PVTZ-JKFIT

    Orbital Energies [Eh]
    ---------------------

    Doubly Occupied:

       1A    -20.600863     2A    -20.548888     3A    -11.378111
       4A    -11.283182     5A    -11.245238     6A    -11.220199
       7A     -1.454102     8A     -1.360900     9A     -1.062781
      10A     -0.968116    11A     -0.875170    12A     -0.765136
      13A     -0.700775    14A     -0.675018    15A     -0.668827
      16A     -0.618851    17A     -0.600256    18A     -0.541597
      19A     -0.536370    20A     -0.522572    21A     -0.520345
      22A     -0.497018    23A     -0.464297    24A     -0.447276

  @DF-RHF Final Energy:  -305.98678842635360

   => Energetics <=

    Nuclear Repulsion Energy =            244.9117883230517236
    One-Electron Energy =                -902.6853760784587166
    Two-Electron Energy =                 351.7867993290533946
    Total Energy =                       -305.9867884263535984
  Basis Set: (AUG-CC-PVTZ AUX)
    Blend: AUG-CC-PVTZ-RI
    Molecular point group: c1

    Geometry (in Angstrom), charge = 0, multiplicity = 1:

       Center              X                  Y                   Z               Mass
    ------------   -----------------  -----------------  -----------------  -----------------
         O            1.116286136156    -0.738213299668    -0.000002407194    15.994914619570
         O            0.077288136156     1.281239700332     0.000005592806    15.994914619570
         C           -1.243883863844    -0.762603299668     0.000007592806    12.000000000000
         C           -2.497181863844     0.101109700332    -0.000008407194    12.000000000000
         C            0.020846736156     0.082398600332     0.000002592806    12.000000000000
         C            2.367020136156    -0.021722299668    -0.000004407194    12.000000000000
         H           -1.209966863844    -1.422852299668    -0.873703407194     1.007825032230
         H           -1.209973863844    -1.422826299668     0.873738592806     1.007825032230
         H           -2.523975863844     0.744968700332    -0.881191407194     1.007825032230
         H           -3.391523863844    -0.527211299668    -0.000047407194     1.007825032230
         H           -2.524026863844     0.744930700332     0.881200592806     1.007825032230
         H            3.135112136156    -0.792644299668    -0.000021407194     1.007825032230
         H            2.446894136156     0.605608700332     0.889092592806     1.007825032230
         H            2.446878136156     0.605631700332    -0.889087407194     1.007825032230

  Basis Set: AUG-CC-PVTZ
    Blend: AUG-CC-PVTZ
  Basis Set: (AUG-CC-PVTZ AUX)
    Blend: AUG-CC-PVTZ-JKFIT
	 Reference Energy          =    -305.9867884263535984 [Eh]
	 Singles Energy            =      -0.0000000000000000 [Eh]
	 Same-Spin Energy          =      -0.2970651531469002 [Eh]
	 Opposite-Spin Energy      =      -0.9761753751409766 [Eh]
	 Correlation Energy        =      -1.2732405282878769 [Eh]
	 Total Energy              =    -307.2600289546414842 [Eh]

	 ================> DF-SCS-MP2 Energies <==================
	-----------------------------------------------------------
	 SCS Same-Spin Scale       =       0.3333333333333333 [-]
	 SCS Opposite-Spin Scale   =       1.2000000000000000 [-]
	 SCS Same-Spin Energy      =      -0.0990217177156334 [Eh]
	 SCS Opposite-Spin Energy  =      -1.1714104501691720 [Eh]
	 SCS Correlation Energy    =      -1.2704321678848054 [Eh]
	 SCS Total Energy          =    -307.2572205942383903 [Eh]
	-----------------------------------------------------------

  Dipole Moment: [D]
     X:     0.3623      Y:    -1.4481      Z:    -0.0000     Total:     1.4927

*** Psi4 exiting successfully. Buy a developer a beer!
