                               Psi4 1.3.2 release

  ==> Input File <==

--------------------------------------------------------------------------
#psi4
#
memory 32 gb

molecule  {
0 1
  O        1.1347230    -0.7035620     0.0192210
  O        0.0419040     1.2849720    -0.0032760
  C       -1.2206870    -0.7926310    -0.0174520
  C       -2.4663344     0.0788876    -0.0349261
  C       -0.0128154     0.1089086    -0.0002144
  C        2.3639990     0.0443740     0.0345400
  H       -1.1558060    -1.4513950    -0.8901140
  H       -1.1802510    -1.4521290     0.8560270
  H       -2.5275640     0.6780870    -0.9162870
  H       -3.3724930    -0.6172840    -0.0483470
  H       -2.5529900     0.6769780     0.8451350
  H        3.1528260    -0.7045810     0.0501140
  H        2.4139010     0.6783770     0.9207630
  H        2.4412840     0.6703610    -0.8553990
units angstrom
no_reorient  #important for SAPT in psi4, default
symmetry c1  #important for SAPT in psi4, default
}

set PROPERTIES_ORIGIN ["COM"]
properties('MP2/aug-cc-pvtz', properties = ['dipole'])
--------------------------------------------------------------------------

    Molecular point group: c1
  Charge       = 0
  Multiplicity = 1
  Basis Set: AUG-CC-PVTZ
    Blend: AUG-CC-PVTZ
  Basis Set: (AUG-CC-PVTZ AUX)
    Blend: AUG-CC-PVTZ-JKFIT

    Orbital Energies [Eh]
    ---------------------

    Doubly Occupied:

       1A    -20.589897     2A    -20.555683     3A    -11.376659
       4A    -11.277382     5A    -11.246736     6A    -11.222139
       7A     -1.454768     8A     -1.361085     9A     -1.068145
      10A     -0.960011    11A     -0.876019    12A     -0.759867
      13A     -0.704747    14A     -0.671789    15A     -0.669332
      16A     -0.622900    17A     -0.598785    18A     -0.549519
      19A     -0.530109    20A     -0.529019    21A     -0.509471
      22A     -0.507682    23A     -0.461077    24A     -0.447621

  @DF-RHF Final Energy:  -305.98080262094896

   => Energetics <=

    Nuclear Repulsion Energy =            245.4152755670060628
    One-Electron Energy =                -903.6912685669977918
    Two-Electron Energy =                 352.2951903790428219
    Total Energy =                       -305.9808026209489640
  Basis Set: (AUG-CC-PVTZ AUX)
    Blend: AUG-CC-PVTZ-RI
    Molecular point group: c1

    Geometry (in Angstrom), charge = 0, multiplicity = 1:

       Center              X                  Y                   Z               Mass
    ------------   -----------------  -----------------  -----------------  -----------------
         O            1.134869053191    -0.715379746034     0.019220969140    15.994914619570
         O            0.042050053191     1.273154253966    -0.003276030860    15.994914619570
         C           -1.220540946809    -0.804448746034    -0.017452030860    12.000000000000
         C           -2.466188346809     0.067069853966    -0.034926130860    12.000000000000
         C           -0.012669346809     0.097090853966    -0.000214430860    12.000000000000
         C            2.364145053191     0.032556253966     0.034539969140    12.000000000000
         H           -1.155659946809    -1.463212746034    -0.890114030860     1.007825032230
         H           -1.180104946809    -1.463946746034     0.856026969140     1.007825032230
         H           -2.527417946809     0.666269253966    -0.916287030860     1.007825032230
         H           -3.372346946809    -0.629101746034    -0.048347030860     1.007825032230
         H           -2.552843946809     0.665160253966     0.845134969140     1.007825032230
         H            3.152972053191    -0.716398746034     0.050113969140     1.007825032230
         H            2.414047053191     0.666559253966     0.920762969140     1.007825032230
         H            2.441430053191     0.658543253966    -0.855399030860     1.007825032230

  Basis Set: AUG-CC-PVTZ
    Blend: AUG-CC-PVTZ
  Basis Set: (AUG-CC-PVTZ AUX)
    Blend: AUG-CC-PVTZ-JKFIT
	 Reference Energy          =    -305.9808026209489640 [Eh]
	 Singles Energy            =      -0.0000000000000000 [Eh]
	 Same-Spin Energy          =      -0.2971261519462444 [Eh]
	 Opposite-Spin Energy      =      -0.9762754420961091 [Eh]
	 Correlation Energy        =      -1.2734015940423533 [Eh]
	 Total Energy              =    -307.2542042149913186 [Eh]

	 ================> DF-SCS-MP2 Energies <==================
	-----------------------------------------------------------
	 SCS Same-Spin Scale       =       0.3333333333333333 [-]
	 SCS Opposite-Spin Scale   =       1.2000000000000000 [-]
	 SCS Same-Spin Energy      =      -0.0990420506487481 [Eh]
	 SCS Opposite-Spin Energy  =      -1.1715305305153307 [Eh]
	 SCS Correlation Energy    =      -1.2705725811640789 [Eh]
	 SCS Total Energy          =    -307.2513752021130244 [Eh]
	-----------------------------------------------------------

  Dipole Moment: [D]
     X:     0.0926      Y:    -1.2605      Z:     0.0033     Total:     1.2639

*** Psi4 exiting successfully. Buy a developer a beer!
