                               Psi4 1.3.2 release

  ==> Input File <==

--------------------------------------------------------------------------
#psi4
#
memory 32 gb

molecule  {
0 1
  O        1.1609050    -0.6641113     0.0195519
  O        0.0419040     1.2849720    -0.0032760
  C       -1.2499003    -0.7488772    -0.0179963
  C       -2.4959880     0.0348800    -0.0353530
  C        0.0179090     0.0662010     0.0002130
  C        2.3639990     0.0443740     0.0345400
  H       -1.1558060    -1.4513950    -0.8901140
  H       -1.1802510    -1.4521290     0.8560270
  H       -2.5275640     0.6780870    -0.9162870
  H       -3.3724930    -0.6172840    -0.0483470
  H       -2.5529900     0.6769780     0.8451350
  H        3.1528260    -0.7045810     0.0501140
  H        2.4139010     0.6783770     0.9207630
  H        2.4412840     0.6703610    -0.8553990
units angstrom
no_reorient  #important for SAPT in psi4, default
symmetry c1  #important for SAPT in psi4, default
}

set PROPERTIES_ORIGIN ["COM"]
properties('MP2/aug-cc-pvtz', properties = ['dipole'])
--------------------------------------------------------------------------

    Molecular point group: c1
  Charge       = 0
  Multiplicity = 1
  Basis Set: AUG-CC-PVTZ
    Blend: AUG-CC-PVTZ
  Basis Set: (AUG-CC-PVTZ AUX)
    Blend: AUG-CC-PVTZ-JKFIT

    Orbital Energies [Eh]
    ---------------------

    Doubly Occupied:

       1A    -20.601993     2A    -20.542467     3A    -11.380208
       4A    -11.280072     5A    -11.251554     6A    -11.220394
       7A     -1.461034     8A     -1.354852     9A     -1.074458
      10A     -0.978185    11A     -0.877707    12A     -0.767889
      13A     -0.701882    14A     -0.680892    15A     -0.671186
      16A     -0.621312    17A     -0.605870    18A     -0.547324
      19A     -0.537296    20A     -0.531025    21A     -0.513897
      22A     -0.485695    23A     -0.457800    24A     -0.446249

  @DF-RHF Final Energy:  -305.98322837998734

   => Energetics <=

    Nuclear Repulsion Energy =            245.9355056410108489
    One-Electron Energy =                -904.6549870245117972
    Two-Electron Energy =                 352.7362530035135819
    Total Energy =                       -305.9832283799873380
  Basis Set: (AUG-CC-PVTZ AUX)
    Blend: AUG-CC-PVTZ-RI
    Molecular point group: c1

    Geometry (in Angstrom), charge = 0, multiplicity = 1:

       Center              X                  Y                   Z               Mass
    ------------   -----------------  -----------------  -----------------  -----------------
         O            1.160130364744    -0.677240466728     0.019565870829    15.994914619570
         O            0.041129364744     1.271842833272    -0.003262029171    15.994914619570
         C           -1.250674935256    -0.762006366728    -0.017982329171    12.000000000000
         C           -2.496762635256     0.021750833272    -0.035339029171    12.000000000000
         C            0.017134364744     0.053071833272     0.000226970829    12.000000000000
         C            2.363224364744     0.031244833272     0.034553970829    12.000000000000
         H           -1.156580635256    -1.464524166728    -0.890100029171     1.007825032230
         H           -1.181025635256    -1.465258166728     0.856040970829     1.007825032230
         H           -2.528338635256     0.664957833272    -0.916273029171     1.007825032230
         H           -3.373267635256    -0.630413166728    -0.048333029171     1.007825032230
         H           -2.553764635256     0.663848833272     0.845148970829     1.007825032230
         H            3.152051364744    -0.717710166728     0.050127970829     1.007825032230
         H            2.413126364744     0.665247833272     0.920776970829     1.007825032230
         H            2.440509364744     0.657231833272    -0.855385029171     1.007825032230

  Basis Set: AUG-CC-PVTZ
    Blend: AUG-CC-PVTZ
  Basis Set: (AUG-CC-PVTZ AUX)
    Blend: AUG-CC-PVTZ-JKFIT
	 Reference Energy          =    -305.9832283799873380 [Eh]
	 Singles Energy            =      -0.0000000000000000 [Eh]
	 Same-Spin Energy          =      -0.2974269650470119 [Eh]
	 Opposite-Spin Energy      =      -0.9756242122151697 [Eh]
	 Correlation Energy        =      -1.2730511772621815 [Eh]
	 Total Energy              =    -307.2562795572495133 [Eh]

	 ================> DF-SCS-MP2 Energies <==================
	-----------------------------------------------------------
	 SCS Same-Spin Scale       =       0.3333333333333333 [-]
	 SCS Opposite-Spin Scale   =       1.2000000000000000 [-]
	 SCS Same-Spin Energy      =      -0.0991423216823373 [Eh]
	 SCS Opposite-Spin Energy  =      -1.1707490546582036 [Eh]
	 SCS Correlation Energy    =      -1.2698913763405408 [Eh]
	 SCS Total Energy          =    -307.2531197563278624 [Eh]
	-----------------------------------------------------------

  Dipole Moment: [D]
     X:     0.2424      Y:    -1.6627      Z:     0.0065     Total:     1.6803

*** Psi4 exiting successfully. Buy a developer a beer!
