                               Psi4 1.3.2 release

  ==> Input File <==

--------------------------------------------------------------------------
#psi4
#
memory 32 gb

molecule  {
0 1
  O        1.1609060    -0.6641115     0.0194852
  O        0.0844194     1.2833940    -0.0026399
  C       -1.2206870    -0.7926310    -0.0174520
  C       -2.4959880     0.0348800    -0.0353530
  C        0.0179090     0.0662010     0.0002130
  C        2.3639990     0.0443740     0.0345400
  H       -1.1558060    -1.4513950    -0.8901140
  H       -1.1802510    -1.4521290     0.8560270
  H       -2.5275640     0.6780870    -0.9162870
  H       -3.3724930    -0.6172840    -0.0483470
  H       -2.5529900     0.6769780     0.8451350
  H        3.1528260    -0.7045810     0.0501140
  H        2.4139010     0.6783770     0.9207630
  H        2.4412840     0.6703610    -0.8553990
units angstrom
no_reorient  #important for SAPT in psi4, default
symmetry c1  #important for SAPT in psi4, default
}

set PROPERTIES_ORIGIN ["COM"]
properties('MP2/aug-cc-pvtz', properties = ['dipole'])
--------------------------------------------------------------------------

    Molecular point group: c1
  Charge       = 0
  Multiplicity = 1
  Basis Set: AUG-CC-PVTZ
    Blend: AUG-CC-PVTZ
  Basis Set: (AUG-CC-PVTZ AUX)
    Blend: AUG-CC-PVTZ-JKFIT

    Orbital Energies [Eh]
    ---------------------

    Doubly Occupied:

       1A    -20.598001     2A    -20.543376     3A    -11.380312
       4A    -11.277589     5A    -11.250726     6A    -11.223735
       7A     -1.461075     8A     -1.352059     9A     -1.070717
      10A     -0.974580    11A     -0.879144    12A     -0.767822
      13A     -0.703201    14A     -0.680715    15A     -0.670297
      16A     -0.623763    17A     -0.603791    18A     -0.536649
      19A     -0.534190    20A     -0.528832    21A     -0.515307
      22A     -0.497923    23A     -0.456014    24A     -0.448848

  @DF-RHF Final Energy:  -305.98626860579350

   => Energetics <=

    Nuclear Repulsion Energy =            245.7272183632329927
    One-Electron Energy =                -904.2696459609609292
    Two-Electron Energy =                 352.5561589919344669
    Total Energy =                       -305.9862686057934980
  Basis Set: (AUG-CC-PVTZ AUX)
    Blend: AUG-CC-PVTZ-RI
    Molecular point group: c1

    Geometry (in Angstrom), charge = 0, multiplicity = 1:

       Center              X                  Y                   Z               Mass
    ------------   -----------------  -----------------  -----------------  -----------------
         O            1.148426908730    -0.670991108625     0.019321559553    15.994914619570
         O            0.071940308730     1.276514391375    -0.002803540447    15.994914619570
         C           -1.233166091270    -0.799510608625    -0.017615640447    12.000000000000
         C           -2.508467091270     0.028000391375    -0.035516640447    12.000000000000
         C            0.005429908730     0.059321391375     0.000049359553    12.000000000000
         C            2.351519908730     0.037494391375     0.034376359553    12.000000000000
         H           -1.168285091270    -1.458274608625    -0.890277640447     1.007825032230
         H           -1.192730091270    -1.459008608625     0.855863359553     1.007825032230
         H           -2.540043091270     0.671207391375    -0.916450640447     1.007825032230
         H           -3.384972091270    -0.624163608625    -0.048510640447     1.007825032230
         H           -2.565469091270     0.670098391375     0.844971359553     1.007825032230
         H            3.140346908730    -0.711460608625     0.049950359553     1.007825032230
         H            2.401421908730     0.671497391375     0.920599359553     1.007825032230
         H            2.428804908730     0.663481391375    -0.855562640447     1.007825032230

  Basis Set: AUG-CC-PVTZ
    Blend: AUG-CC-PVTZ
  Basis Set: (AUG-CC-PVTZ AUX)
    Blend: AUG-CC-PVTZ-JKFIT
	 Reference Energy          =    -305.9862686057934980 [Eh]
	 Singles Energy            =      -0.0000000000000000 [Eh]
	 Same-Spin Energy          =      -0.2971181720305672 [Eh]
	 Opposite-Spin Energy      =      -0.9753274688871856 [Eh]
	 Correlation Energy        =      -1.2724456409177527 [Eh]
	 Total Energy              =    -307.2587142467112358 [Eh]

	 ================> DF-SCS-MP2 Energies <==================
	-----------------------------------------------------------
	 SCS Same-Spin Scale       =       0.3333333333333333 [-]
	 SCS Opposite-Spin Scale   =       1.2000000000000000 [-]
	 SCS Same-Spin Energy      =      -0.0990393906768557 [Eh]
	 SCS Opposite-Spin Energy  =      -1.1703929626646226 [Eh]
	 SCS Correlation Energy    =      -1.2694323533414782 [Eh]
	 SCS Total Energy          =    -307.2557009591349697 [Eh]
	-----------------------------------------------------------

  Dipole Moment: [D]
     X:     0.1318      Y:    -1.6788      Z:     0.0050     Total:     1.6840

*** Psi4 exiting successfully. Buy a developer a beer!
