                               Psi4 1.3.2 release

  ==> Input File <==

--------------------------------------------------------------------------
#psi4
#
memory 32 gb

molecule  {
0 1
  O        1.1071793    -0.7420747     0.0189336
  O       -0.0006406     1.2850651    -0.0039079
  C       -1.2206870    -0.7926310    -0.0174520
  C       -2.4959880     0.0348800    -0.0353530
  C        0.0179090     0.0662010     0.0002130
  C        2.3639990     0.0443740     0.0345400
  H       -1.1558060    -1.4513950    -0.8901140
  H       -1.1802510    -1.4521290     0.8560270
  H       -2.5275640     0.6780870    -0.9162870
  H       -3.3724930    -0.6172840    -0.0483470
  H       -2.5529900     0.6769780     0.8451350
  H        3.1528260    -0.7045810     0.0501140
  H        2.4139010     0.6783770     0.9207630
  H        2.4412840     0.6703610    -0.8553990
units angstrom
no_reorient  #important for SAPT in psi4, default
symmetry c1  #important for SAPT in psi4, default
}

set PROPERTIES_ORIGIN ["COM"]
properties('MP2/aug-cc-pvtz', properties = ['dipole'])
--------------------------------------------------------------------------

    Molecular point group: c1
  Charge       = 0
  Multiplicity = 1
  Basis Set: AUG-CC-PVTZ
    Blend: AUG-CC-PVTZ
  Basis Set: (AUG-CC-PVTZ AUX)
    Blend: AUG-CC-PVTZ-JKFIT

    Orbital Energies [Eh]
    ---------------------

    Doubly Occupied:

       1A    -20.609217     2A    -20.546333     3A    -11.378367
       4A    -11.291222     5A    -11.239770     6A    -11.216740
       7A     -1.447729     8A     -1.353799     9A     -1.061402
      10A     -0.969574    11A     -0.876636    12A     -0.765410
      13A     -0.696302    14A     -0.673676    15A     -0.665492
      16A     -0.616776    17A     -0.595437    18A     -0.543113
      19A     -0.541489    20A     -0.519371    21A     -0.517667
      22A     -0.493419    23A     -0.467228    24A     -0.445091

  @DF-RHF Final Energy:  -305.98178388482108

   => Energetics <=

    Nuclear Repulsion Energy =            244.4880947494980603
    One-Electron Energy =                -901.8772335564340210
    Two-Electron Energy =                 351.4073549221149051
    Total Energy =                       -305.9817838848210840
  Basis Set: (AUG-CC-PVTZ AUX)
    Blend: AUG-CC-PVTZ-RI
    Molecular point group: c1

    Geometry (in Angstrom), charge = 0, multiplicity = 1:

       Center              X                  Y                   Z               Mass
    ------------   -----------------  -----------------  -----------------  -----------------
         O            1.119911113523    -0.735095683342     0.019100493836    15.994914619570
         O            0.012091213523     1.292044116658    -0.003741006164    15.994914619570
         C           -1.207955186477    -0.785651983342    -0.017285106164    12.000000000000
         C           -2.483256186477     0.041859016658    -0.035186106164    12.000000000000
         C            0.030640813523     0.073180016658     0.000379893836    12.000000000000
         C            2.376730813523     0.051353016658     0.034706893836    12.000000000000
         H           -1.143074186477    -1.444415983342    -0.889947106164     1.007825032230
         H           -1.167519186477    -1.445149983342     0.856193893836     1.007825032230
         H           -2.514832186477     0.685066016658    -0.916120106164     1.007825032230
         H           -3.359761186477    -0.610304983342    -0.048180106164     1.007825032230
         H           -2.540258186477     0.683957016658     0.845301893836     1.007825032230
         H            3.165557813523    -0.697601983342     0.050280893836     1.007825032230
         H            2.426632813523     0.685356016658     0.920929893836     1.007825032230
         H            2.454015813523     0.677340016658    -0.855232106164     1.007825032230

  Basis Set: AUG-CC-PVTZ
    Blend: AUG-CC-PVTZ
  Basis Set: (AUG-CC-PVTZ AUX)
    Blend: AUG-CC-PVTZ-JKFIT
	 Reference Energy          =    -305.9817838848210840 [Eh]
	 Singles Energy            =      -0.0000000000000000 [Eh]
	 Same-Spin Energy          =      -0.2978830710311663 [Eh]
	 Opposite-Spin Energy      =      -0.9782560233472577 [Eh]
	 Correlation Energy        =      -1.2761390943784241 [Eh]
	 Total Energy              =    -307.2579229791995203 [Eh]

	 ================> DF-SCS-MP2 Energies <==================
	-----------------------------------------------------------
	 SCS Same-Spin Scale       =       0.3333333333333333 [-]
	 SCS Opposite-Spin Scale   =       1.2000000000000000 [-]
	 SCS Same-Spin Energy      =      -0.0992943570103888 [Eh]
	 SCS Opposite-Spin Energy  =      -1.1739072280167091 [Eh]
	 SCS Correlation Energy    =      -1.2732015850270979 [Eh]
	 SCS Total Energy          =    -307.2549854698481795 [Eh]
	-----------------------------------------------------------

  Dipole Moment: [D]
     X:     0.7501      Y:    -1.4538      Z:     0.0135     Total:     1.6360

*** Psi4 exiting successfully. Buy a developer a beer!
