                               Psi4 1.3.2 release

  ==> Input File <==

--------------------------------------------------------------------------
#psi4
#
memory 32 gb

molecule  {
0 1
  O        1.1347230    -0.7035620     0.0192210
  O        0.0419040     1.2849720    -0.0032760
  C       -1.2206870    -0.7926310    -0.0174520
  C       -2.4959880     0.0348800    -0.0353530
  C        0.0179090     0.0662010     0.0002130
  C        2.1931493    -0.0595771     0.0324109
  H       -1.1558060    -1.4513950    -0.8901140
  H       -1.1802510    -1.4521290     0.8560270
  H       -2.5275640     0.6780870    -0.9162870
  H       -3.3724930    -0.6172840    -0.0483470
  H       -2.5529900     0.6769780     0.8451350
  H        3.1528260    -0.7045810     0.0501140
  H        2.4139010     0.6783770     0.9207630
  H        2.4412840     0.6703610    -0.8553990
units angstrom
no_reorient  #important for SAPT in psi4, default
symmetry c1  #important for SAPT in psi4, default
}

set PROPERTIES_ORIGIN ["COM"]
properties('MP2/aug-cc-pvtz', properties = ['dipole'])
--------------------------------------------------------------------------

    Molecular point group: c1
  Charge       = 0
  Multiplicity = 1
  Basis Set: AUG-CC-PVTZ
    Blend: AUG-CC-PVTZ
  Basis Set: (AUG-CC-PVTZ AUX)
    Blend: AUG-CC-PVTZ-JKFIT

    Orbital Energies [Eh]
    ---------------------

    Doubly Occupied:

       1A    -20.621904     2A    -20.559435     3A    -11.392596
       4A    -11.289503     5A    -11.253689     6A    -11.226167
       7A     -1.523085     8A     -1.383310     9A     -1.080125
      10A     -0.983684    11A     -0.872169    12A     -0.792644
      13A     -0.714476    14A     -0.708434    15A     -0.708207
      16A     -0.628735    17A     -0.618742    18A     -0.540085
      19A     -0.530227    20A     -0.527945    21A     -0.499959
      22A     -0.484035    23A     -0.459285    24A     -0.435569

  @DF-RHF Final Energy:  -305.94303807324189

   => Energetics <=

    Nuclear Repulsion Energy =            248.8730906300681909
    One-Electron Energy =                -909.9642320318858992
    Two-Electron Energy =                 355.1481033285758144
    Total Energy =                       -305.9430380732418939
  Basis Set: (AUG-CC-PVTZ AUX)
    Blend: AUG-CC-PVTZ-RI
    Molecular point group: c1

    Geometry (in Angstrom), charge = 0, multiplicity = 1:

       Center              X                  Y                   Z               Mass
    ------------   -----------------  -----------------  -----------------  -----------------
         O            1.158006936059    -0.689395277314     0.019511059943    15.994914619570
         O            0.065187936059     1.299138722686    -0.002985940057    15.994914619570
         C           -1.197403063941    -0.778464277314    -0.017161940057    12.000000000000
         C           -2.472704063941     0.049046722686    -0.035062940057    12.000000000000
         C            0.041192936059     0.080367722686     0.000503059943    12.000000000000
         C            2.216433236059    -0.045410377314     0.032700959943    12.000000000000
         H           -1.132522063941    -1.437228277314    -0.889823940057     1.007825032230
         H           -1.156967063941    -1.437962277314     0.856317059943     1.007825032230
         H           -2.504280063941     0.692253722686    -0.915996940057     1.007825032230
         H           -3.349209063941    -0.603117277314    -0.048056940057     1.007825032230
         H           -2.529706063941     0.691144722686     0.845425059943     1.007825032230
         H            3.176109936059    -0.690414277314     0.050404059943     1.007825032230
         H            2.437184936059     0.692543722686     0.921053059943     1.007825032230
         H            2.464567936059     0.684527722686    -0.855108940057     1.007825032230

  Basis Set: AUG-CC-PVTZ
    Blend: AUG-CC-PVTZ
  Basis Set: (AUG-CC-PVTZ AUX)
    Blend: AUG-CC-PVTZ-JKFIT
	 Reference Energy          =    -305.9430380732418939 [Eh]
	 Singles Energy            =      -0.0000000000000000 [Eh]
	 Same-Spin Energy          =      -0.2986705007048831 [Eh]
	 Opposite-Spin Energy      =      -0.9766295208519514 [Eh]
	 Correlation Energy        =      -1.2753000215568346 [Eh]
	 Total Energy              =    -307.2183380947987530 [Eh]

	 ================> DF-SCS-MP2 Energies <==================
	-----------------------------------------------------------
	 SCS Same-Spin Scale       =       0.3333333333333333 [-]
	 SCS Opposite-Spin Scale   =       1.2000000000000000 [-]
	 SCS Same-Spin Energy      =      -0.0995568335682944 [Eh]
	 SCS Opposite-Spin Energy  =      -1.1719554250223416 [Eh]
	 SCS Correlation Energy    =      -1.2715122585906360 [Eh]
	 SCS Total Energy          =    -307.2145503318325268 [Eh]
	-----------------------------------------------------------

  Dipole Moment: [D]
     X:    -0.4468      Y:    -1.8016      Z:    -0.0027     Total:     1.8561

*** Psi4 exiting successfully. Buy a developer a beer!
