                               Psi4 1.4a3.dev225

  ==> Input File <==

--------------------------------------------------------------------------
#psi4
#
memory 32 gb

molecule  {
0 1
  O        1.1455950    -0.7206100    -0.0000020
  O        0.1065970     1.2988430     0.0000060
  C       -1.2145750    -0.7450000     0.0000080
  C       -2.4678730     0.1187130    -0.0000080
  C        0.0515664     0.1299687     0.0000031
  C        2.3963290    -0.0041190    -0.0000040
  H       -1.1806580    -1.4052490    -0.8737030
  H       -1.1806650    -1.4052230     0.8737390
  H       -2.4946670     0.7625720    -0.8811910
  H       -3.3622150    -0.5096080    -0.0000470
  H       -2.4947180     0.7625340     0.8812010
  H        3.1644210    -0.7750410    -0.0000210
  H        2.4762030     0.6232120     0.8890930
  H        2.4761870     0.6232350    -0.8890870
units angstrom
no_reorient  #important for SAPT in psi4, default
symmetry c1  #important for SAPT in psi4, default
}

set PROPERTIES_ORIGIN ["COM"]
properties('MP2/aug-cc-pvtz', properties = ['dipole'])
--------------------------------------------------------------------------

    Molecular point group: c1
  Charge       = 0
  Multiplicity = 1
  Basis Set: AUG-CC-PVTZ
    Blend: AUG-CC-PVTZ
  Basis Set: (AUG-CC-PVTZ AUX)
    Blend: AUG-CC-PVTZ-JKFIT

    Orbital Energies [Eh]
    ---------------------

    Doubly Occupied:

       1A    -20.596004     2A    -20.554642     3A    -11.375690
       4A    -11.280841     5A    -11.244376     6A    -11.219611
       7A     -1.461105     8A     -1.369857     9A     -1.059067
      10A     -0.963324    11A     -0.871482    12A     -0.763368
      13A     -0.704288    14A     -0.673650    15A     -0.671919
      16A     -0.617351    17A     -0.601221    18A     -0.547888
      19A     -0.537697    20A     -0.522856    21A     -0.519423
      22A     -0.498782    23A     -0.465521    24A     -0.445279

  @DF-RHF Final Energy:  -305.98498221585629

   => Energetics <=

    Nuclear Repulsion Energy =            245.0516836209787641
    One-Electron Energy =                -902.9428472179413347
    Two-Electron Energy =                 351.9061813811062507
    Total Energy =                       -305.9849822158562915
  Basis Set: (AUG-CC-PVTZ AUX)
    Blend: AUG-CC-PVTZ-RI
    Molecular point group: c1

    Geometry (in Angstrom), charge = 0, multiplicity = 1:

       Center              X                  Y                   Z               Mass
    ------------   -----------------  -----------------  -----------------  -----------------
         O            1.116093868889    -0.742297248312    -0.000002420823    15.994914619570
         O            0.077095868889     1.277155751688     0.000005579177    15.994914619570
         C           -1.244076131111    -0.766687248312     0.000007579177    12.000000000000
         C           -2.497374131111     0.097025751688    -0.000008420823    12.000000000000
         C            0.022065268889     0.108281451688     0.000002679177    12.000000000000
         C            2.366827868889    -0.025806248312    -0.000004420823    12.000000000000
         H           -1.210159131111    -1.426936248312    -0.873703420823     1.007825032230
         H           -1.210166131111    -1.426910248312     0.873738579177     1.007825032230
         H           -2.524168131111     0.740884751688    -0.881191420823     1.007825032230
         H           -3.391716131111    -0.531295248312    -0.000047420823     1.007825032230
         H           -2.524219131111     0.740846751688     0.881200579177     1.007825032230
         H            3.134919868889    -0.796728248312    -0.000021420823     1.007825032230
         H            2.446701868889     0.601524751688     0.889092579177     1.007825032230
         H            2.446685868889     0.601547751688    -0.889087420823     1.007825032230

  Basis Set: AUG-CC-PVTZ
    Blend: AUG-CC-PVTZ
  Basis Set: (AUG-CC-PVTZ AUX)
    Blend: AUG-CC-PVTZ-JKFIT
	 Reference Energy          =    -305.9849822158562915 [Eh]
	 Singles Energy            =      -0.0000000000000000 [Eh]
	 Same-Spin Energy          =      -0.2965671151168345 [Eh]
	 Opposite-Spin Energy      =      -0.9753237878785037 [Eh]
	 Correlation Energy        =      -1.2718909029953382 [Eh]
	 Total Energy              =    -307.2568731188516153 [Eh]

	 ================> DF-SCS-MP2 Energies <==================
	-----------------------------------------------------------
	 SCS Same-Spin Scale       =       0.3333333333333333 [-]
	 SCS Opposite-Spin Scale   =       1.2000000000000000 [-]
	 SCS Same-Spin Energy      =      -0.0988557050389448 [Eh]
	 SCS Opposite-Spin Energy  =      -1.1703885454542045 [Eh]
	 SCS Correlation Energy    =      -1.2692442504931494 [Eh]
	 SCS Total Energy          =    -307.2542264663494507 [Eh]
	-----------------------------------------------------------

  Dipole Moment: [D]
     X:     0.2965      Y:    -1.2556      Z:    -0.0000     Total:     1.2902

*** Psi4 exiting successfully. Buy a developer a beer!
