                               Psi4 1.3.2 release

  ==> Input File <==

--------------------------------------------------------------------------
#psi4
#
memory 32 gb

molecule  {
0 1
  O        1.1734772    -0.6440495     0.0196086
  O        0.1056499     1.2820488    -0.0023205
  C       -1.2206870    -0.7926310    -0.0174520
  C       -2.4959880     0.0348800    -0.0353530
  C        0.0179090     0.0662010     0.0002130
  C        2.3639990     0.0443740     0.0345400
  H       -1.1558060    -1.4513950    -0.8901140
  H       -1.1802510    -1.4521290     0.8560270
  H       -2.5275640     0.6780870    -0.9162870
  H       -3.3724930    -0.6172840    -0.0483470
  H       -2.5529900     0.6769780     0.8451350
  H        3.1528260    -0.7045810     0.0501140
  H        2.4139010     0.6783770     0.9207630
  H        2.4412840     0.6703610    -0.8553990
units angstrom
no_reorient  #important for SAPT in psi4, default
symmetry c1  #important for SAPT in psi4, default
}

set PROPERTIES_ORIGIN ["COM"]
properties('MP2/aug-cc-pvtz', properties = ['dipole'])
--------------------------------------------------------------------------

    Molecular point group: c1
  Charge       = 0
  Multiplicity = 1
  Basis Set: AUG-CC-PVTZ
    Blend: AUG-CC-PVTZ
  Basis Set: (AUG-CC-PVTZ AUX)
    Blend: AUG-CC-PVTZ-JKFIT

    Orbital Energies [Eh]
    ---------------------

    Doubly Occupied:

       1A    -20.594828     2A    -20.542554     3A    -11.381004
       4A    -11.274286     5A    -11.253427     6A    -11.225464
       7A     -1.465020     8A     -1.351738     9A     -1.072999
      10A     -0.976222    11A     -0.879934    12A     -0.768087
      13A     -0.705133    14A     -0.682805    15A     -0.671502
      16A     -0.625692    17A     -0.606021    18A     -0.535961
      19A     -0.535820    20A     -0.530186    21A     -0.511367
      22A     -0.498810    23A     -0.452563    24A     -0.448880

  @DF-RHF Final Energy:  -305.98413712476361

   => Energetics <=

    Nuclear Repulsion Energy =            246.0882255240898644
    One-Electron Energy =                -904.9641185792659144
    Two-Electron Energy =                 352.8917559304123870
    Total Energy =                       -305.9841371247636062
  Basis Set: (AUG-CC-PVTZ AUX)
    Blend: AUG-CC-PVTZ-RI
    Molecular point group: c1

    Geometry (in Angstrom), charge = 0, multiplicity = 1:

       Center              X                  Y                   Z               Mass
    ------------   -----------------  -----------------  -----------------  -----------------
         O            1.154857956680    -0.654329055902     0.019364523974    15.994914619570
         O            0.087030656680     1.271769244098    -0.002564576026    15.994914619570
         C           -1.239306243320    -0.802910555902    -0.017696076026    12.000000000000
         C           -2.514607243320     0.024600444098    -0.035597076026    12.000000000000
         C           -0.000710243320     0.055921444098    -0.000031076026    12.000000000000
         C            2.345379756680     0.034094444098     0.034295923974    12.000000000000
         H           -1.174425243320    -1.461674555902    -0.890358076026     1.007825032230
         H           -1.198870243320    -1.462408555902     0.855782923974     1.007825032230
         H           -2.546183243320     0.667807444098    -0.916531076026     1.007825032230
         H           -3.391112243320    -0.627563555902    -0.048591076026     1.007825032230
         H           -2.571609243320     0.666698444098     0.844890923974     1.007825032230
         H            3.134206756680    -0.714860555902     0.049869923974     1.007825032230
         H            2.395281756680     0.668097444098     0.920518923974     1.007825032230
         H            2.422664756680     0.660081444098    -0.855643076026     1.007825032230

  Basis Set: AUG-CC-PVTZ
    Blend: AUG-CC-PVTZ
  Basis Set: (AUG-CC-PVTZ AUX)
    Blend: AUG-CC-PVTZ-JKFIT
	 Reference Energy          =    -305.9841371247636062 [Eh]
	 Singles Energy            =      -0.0000000000000000 [Eh]
	 Same-Spin Energy          =      -0.2970446937073086 [Eh]
	 Opposite-Spin Energy      =      -0.9748214606503032 [Eh]
	 Correlation Energy        =      -1.2718661543576117 [Eh]
	 Total Energy              =    -307.2560032791212166 [Eh]

	 ================> DF-SCS-MP2 Energies <==================
	-----------------------------------------------------------
	 SCS Same-Spin Scale       =       0.3333333333333333 [-]
	 SCS Opposite-Spin Scale   =       1.2000000000000000 [-]
	 SCS Same-Spin Energy      =      -0.0990148979024362 [Eh]
	 SCS Opposite-Spin Energy  =      -1.1697857527803637 [Eh]
	 SCS Correlation Energy    =      -1.2688006506827998 [Eh]
	 SCS Total Energy          =    -307.2529377754464122 [Eh]
	-----------------------------------------------------------

  Dipole Moment: [D]
     X:    -0.0278      Y:    -1.7382      Z:     0.0028     Total:     1.7384

*** Psi4 exiting successfully. Buy a developer a beer!
