                               Psi4 1.4a3.dev225

  ==> Input File <==

--------------------------------------------------------------------------
#psi4
#
memory 32 gb

molecule  {
0 1
  O        1.1455950    -0.7206100    -0.0000020
  O        0.1065970     1.2988430     0.0000060
  C       -1.2145750    -0.7450000     0.0000080
  C       -2.4678730     0.1187130    -0.0000080
  C        0.0324677     0.0690911     0.0000031
  C        2.3963290    -0.0041190    -0.0000040
  H       -1.1806580    -1.4052490    -0.8737030
  H       -1.1806650    -1.4052230     0.8737390
  H       -2.4946670     0.7625720    -0.8811910
  H       -3.3622150    -0.5096080    -0.0000470
  H       -2.4947180     0.7625340     0.8812010
  H        3.1644210    -0.7750410    -0.0000210
  H        2.4762030     0.6232120     0.8890930
  H        2.4761870     0.6232350    -0.8890870
units angstrom
no_reorient  #important for SAPT in psi4, default
symmetry c1  #important for SAPT in psi4, default
}

set PROPERTIES_ORIGIN ["COM"]
properties('MP2/aug-cc-pvtz', properties = ['dipole'])
--------------------------------------------------------------------------

    Molecular point group: c1
  Charge       = 0
  Multiplicity = 1
  Basis Set: AUG-CC-PVTZ
    Blend: AUG-CC-PVTZ
  Basis Set: (AUG-CC-PVTZ AUX)
    Blend: AUG-CC-PVTZ-JKFIT

    Orbital Energies [Eh]
    ---------------------

    Doubly Occupied:

       1A    -20.602405     2A    -20.544189     3A    -11.381357
       4A    -11.283911     5A    -11.247001     6A    -11.221985
       7A     -1.447801     8A     -1.344731     9A     -1.070356
      10A     -0.970591    11A     -0.881088    12A     -0.764598
      13A     -0.699383    14A     -0.674981    15A     -0.664532
      16A     -0.621173    17A     -0.598811    18A     -0.536927
      19A     -0.534291    20A     -0.526088    21A     -0.518912
      22A     -0.496080    23A     -0.459169    24A     -0.448783

  @DF-RHF Final Energy:  -305.98412762189253

   => Energetics <=

    Nuclear Repulsion Energy =            244.7169674033692388
    One-Electron Energy =                -902.3239049219531580
    Two-Electron Energy =                 351.6228098966913649
    Total Energy =                       -305.9841276218925259
  Basis Set: (AUG-CC-PVTZ AUX)
    Blend: AUG-CC-PVTZ-RI
    Molecular point group: c1

    Geometry (in Angstrom), charge = 0, multiplicity = 1:

       Center              X                  Y                   Z               Mass
    ------------   -----------------  -----------------  -----------------  -----------------
         O            1.118696686339    -0.734000700401    -0.000002420823    15.994914619570
         O            0.079698686339     1.285452299599     0.000005579177    15.994914619570
         C           -1.241473313661    -0.758390700401     0.000007579177    12.000000000000
         C           -2.494771313661     0.105322299599    -0.000008420823    12.000000000000
         C            0.005569386339     0.055700399599     0.000002679177    12.000000000000
         C            2.369430686339    -0.017509700401    -0.000004420823    12.000000000000
         H           -1.207556313661    -1.418639700401    -0.873703420823     1.007825032230
         H           -1.207563313661    -1.418613700401     0.873738579177     1.007825032230
         H           -2.521565313661     0.749181299599    -0.881191420823     1.007825032230
         H           -3.389113313661    -0.522998700401    -0.000047420823     1.007825032230
         H           -2.521616313661     0.749143299599     0.881200579177     1.007825032230
         H            3.137522686339    -0.788431700401    -0.000021420823     1.007825032230
         H            2.449304686339     0.609821299599     0.889092579177     1.007825032230
         H            2.449288686339     0.609844299599    -0.889087420823     1.007825032230

  Basis Set: AUG-CC-PVTZ
    Blend: AUG-CC-PVTZ
  Basis Set: (AUG-CC-PVTZ AUX)
    Blend: AUG-CC-PVTZ-JKFIT
	 Reference Energy          =    -305.9841276218925259 [Eh]
	 Singles Energy            =      -0.0000000000000000 [Eh]
	 Same-Spin Energy          =      -0.2978309988186955 [Eh]
	 Opposite-Spin Energy      =      -0.9775475200623200 [Eh]
	 Correlation Energy        =      -1.2753785188810154 [Eh]
	 Total Energy              =    -307.2595061407735670 [Eh]

	 ================> DF-SCS-MP2 Energies <==================
	-----------------------------------------------------------
	 SCS Same-Spin Scale       =       0.3333333333333333 [-]
	 SCS Opposite-Spin Scale   =       1.2000000000000000 [-]
	 SCS Same-Spin Energy      =      -0.0992769996062318 [Eh]
	 SCS Opposite-Spin Energy  =      -1.1730570240747840 [Eh]
	 SCS Correlation Energy    =      -1.2723340236810157 [Eh]
	 SCS Total Energy          =    -307.2564616455735518 [Eh]
	-----------------------------------------------------------

  Dipole Moment: [D]
     X:     0.2966      Y:    -1.6252      Z:    -0.0000     Total:     1.6521

*** Psi4 exiting successfully. Buy a developer a beer!
