                               Psi4 1.3.2 release

  ==> Input File <==

--------------------------------------------------------------------------
#psi4
#
memory 32 gb

molecule  {
0 1
  O        1.1211197    -0.7229386     0.0190468
  O        0.0419040     1.2849720    -0.0032760
  C       -1.2055121    -0.8141188    -0.0171717
  C       -2.4959880     0.0348800    -0.0353530
  C        0.0179090     0.0662010     0.0002130
  C        2.3639990     0.0443740     0.0345400
  H       -1.1558060    -1.4513950    -0.8901140
  H       -1.1802510    -1.4521290     0.8560270
  H       -2.5275640     0.6780870    -0.9162870
  H       -3.3724930    -0.6172840    -0.0483470
  H       -2.5529900     0.6769780     0.8451350
  H        3.1528260    -0.7045810     0.0501140
  H        2.4139010     0.6783770     0.9207630
  H        2.4412840     0.6703610    -0.8553990
units angstrom
no_reorient  #important for SAPT in psi4, default
symmetry c1  #important for SAPT in psi4, default
}

set PROPERTIES_ORIGIN ["COM"]
properties('MP2/aug-cc-pvtz', properties = ['dipole'])
--------------------------------------------------------------------------

    Molecular point group: c1
  Charge       = 0
  Multiplicity = 1
  Basis Set: AUG-CC-PVTZ
    Blend: AUG-CC-PVTZ
  Basis Set: (AUG-CC-PVTZ AUX)
    Blend: AUG-CC-PVTZ-JKFIT

    Orbital Energies [Eh]
    ---------------------

    Doubly Occupied:

       1A    -20.604784     2A    -20.546179     3A    -11.378907
       4A    -11.286530     5A    -11.242486     6A    -11.220112
       7A     -1.450867     8A     -1.352038     9A     -1.062333
      10A     -0.968825    11A     -0.877861    12A     -0.766559
      13A     -0.698278    14A     -0.675575    15A     -0.666666
      16A     -0.619887    17A     -0.596062    18A     -0.539597
      19A     -0.537922    20A     -0.521103    21A     -0.513680
      22A     -0.500436    23A     -0.464071    24A     -0.447983

  @DF-RHF Final Energy:  -305.98423572302568

   => Energetics <=

    Nuclear Repulsion Energy =            244.6623632395400705
    One-Electron Energy =                -902.2157109774705077
    Two-Electron Energy =                 351.5691120149047038
    Total Energy =                       -305.9842357230256766
  Basis Set: (AUG-CC-PVTZ AUX)
    Blend: AUG-CC-PVTZ-RI
    Molecular point group: c1

    Geometry (in Angstrom), charge = 0, multiplicity = 1:

       Center              X                  Y                   Z               Mass
    ------------   -----------------  -----------------  -----------------  -----------------
         O            1.121522818466    -0.716490375727     0.019040144838    15.994914619570
         O            0.042307118466     1.291420224273    -0.003282655162    15.994914619570
         C           -1.205108981534    -0.807670575727    -0.017178355162    12.000000000000
         C           -2.495584881534     0.041328224273    -0.035359655162    12.000000000000
         C            0.018312118466     0.072649224273     0.000206344838    12.000000000000
         C            2.364402118466     0.050822224273     0.034533344838    12.000000000000
         H           -1.155402881534    -1.444946775727    -0.890120655162     1.007825032230
         H           -1.179847881534    -1.445680775727     0.856020344838     1.007825032230
         H           -2.527160881534     0.684535224273    -0.916293655162     1.007825032230
         H           -3.372089881534    -0.610835775727    -0.048353655162     1.007825032230
         H           -2.552586881534     0.683426224273     0.845128344838     1.007825032230
         H            3.153229118466    -0.698132775727     0.050107344838     1.007825032230
         H            2.414304118466     0.684825224273     0.920756344838     1.007825032230
         H            2.441687118466     0.676809224273    -0.855405655162     1.007825032230

  Basis Set: AUG-CC-PVTZ
    Blend: AUG-CC-PVTZ
  Basis Set: (AUG-CC-PVTZ AUX)
    Blend: AUG-CC-PVTZ-JKFIT
	 Reference Energy          =    -305.9842357230256766 [Eh]
	 Singles Energy            =      -0.0000000000000000 [Eh]
	 Same-Spin Energy          =      -0.2975380914386666 [Eh]
	 Opposite-Spin Energy      =      -0.9773848092170059 [Eh]
	 Correlation Energy        =      -1.2749229006556724 [Eh]
	 Total Energy              =    -307.2591586236813441 [Eh]

	 ================> DF-SCS-MP2 Energies <==================
	-----------------------------------------------------------
	 SCS Same-Spin Scale       =       0.3333333333333333 [-]
	 SCS Opposite-Spin Scale   =       1.2000000000000000 [-]
	 SCS Same-Spin Energy      =      -0.0991793638128889 [Eh]
	 SCS Opposite-Spin Energy  =      -1.1728617710604070 [Eh]
	 SCS Correlation Energy    =      -1.2720411348732958 [Eh]
	 SCS Total Energy          =    -307.2562768578989676 [Eh]
	-----------------------------------------------------------

  Dipole Moment: [D]
     X:     0.5417      Y:    -1.5157      Z:     0.0106     Total:     1.6096

*** Psi4 exiting successfully. Buy a developer a beer!
