                               Psi4 1.3.2 release

  ==> Input File <==

--------------------------------------------------------------------------
#psi4
#
memory 32 gb

molecule  {
0 1
  O        1.1347230    -0.7035620     0.0192210
  O        0.0419040     1.2849720    -0.0032760
  C       -1.2206870    -0.7926310    -0.0174520
  C       -2.4994942     0.0291229    -0.0467807
  C        0.0179090     0.0662010     0.0002130
  C        2.3639990     0.0443740     0.0345400
  H       -1.1642062    -1.4480484    -0.8932125
  H       -1.1802510    -1.4521290     0.8560270
  H       -2.5275640     0.6780870    -0.9162870
  H       -3.3724930    -0.6172840    -0.0483470
  H       -2.5529900     0.6769780     0.8451350
  H        3.1528260    -0.7045810     0.0501140
  H        2.4139010     0.6783770     0.9207630
  H        2.4412840     0.6703610    -0.8553990
units angstrom
no_reorient  #important for SAPT in psi4, default
symmetry c1  #important for SAPT in psi4, default
}

set PROPERTIES_ORIGIN ["COM"]
properties('MP2/aug-cc-pvtz', properties = ['dipole'])
--------------------------------------------------------------------------

    Molecular point group: c1
  Charge       = 0
  Multiplicity = 1
  Basis Set: AUG-CC-PVTZ
    Blend: AUG-CC-PVTZ
  Basis Set: (AUG-CC-PVTZ AUX)
    Blend: AUG-CC-PVTZ-JKFIT

    Orbital Energies [Eh]
    ---------------------

    Doubly Occupied:

       1A    -20.604013     2A    -20.545034     3A    -11.379412
       4A    -11.284394     5A    -11.245264     6A    -11.220171
       7A     -1.454012     8A     -1.352927     9A     -1.066071
      10A     -0.971827    11A     -0.877695    12A     -0.766913
      13A     -0.699726    14A     -0.676980    15A     -0.667980
      16A     -0.619922    17A     -0.600029    18A     -0.538705
      19A     -0.536538    20A     -0.523925    21A     -0.519958
      22A     -0.494649    23A     -0.462158    24A     -0.447802

  @DF-RHF Final Energy:  -305.98625653431446

   => Energetics <=

    Nuclear Repulsion Energy =            245.0254466596602185
    One-Electron Energy =                -902.9112017721911343
    Two-Electron Energy =                 351.8994985782164235
    Total Energy =                       -305.9862565343144638
  Basis Set: (AUG-CC-PVTZ AUX)
    Blend: AUG-CC-PVTZ-RI
    Molecular point group: c1

    Geometry (in Angstrom), charge = 0, multiplicity = 1:

       Center              X                  Y                   Z               Mass
    ------------   -----------------  -----------------  -----------------  -----------------
         O            1.135297101935    -0.702815699601     0.020813760465    15.994914619570
         O            0.042478101935     1.285718300399    -0.001683239535    15.994914619570
         C           -1.220112898065    -0.791884699601    -0.015859239535    12.000000000000
         C           -2.498920098065     0.029869200399    -0.045187939535    12.000000000000
         C            0.018483101935     0.066947300399     0.001805760465    12.000000000000
         C            2.364573101935     0.045120300399     0.036132760465    12.000000000000
         H           -1.163632098065    -1.447302099601    -0.891619739535     1.007825032230
         H           -1.179676898065    -1.451382699601     0.857619760465     1.007825032230
         H           -2.526989898065     0.678833300399    -0.914694239535     1.007825032230
         H           -3.371918898065    -0.616537699601    -0.046754239535     1.007825032230
         H           -2.552415898065     0.677724300399     0.846727760465     1.007825032230
         H            3.153400101935    -0.703834699601     0.051706760465     1.007825032230
         H            2.414475101935     0.679123300399     0.922355760465     1.007825032230
         H            2.441858101935     0.671107300399    -0.853806239535     1.007825032230

  Basis Set: AUG-CC-PVTZ
    Blend: AUG-CC-PVTZ
  Basis Set: (AUG-CC-PVTZ AUX)
    Blend: AUG-CC-PVTZ-JKFIT
	 Reference Energy          =    -305.9862565343144638 [Eh]
	 Singles Energy            =      -0.0000000000000000 [Eh]
	 Same-Spin Energy          =      -0.2974062351616147 [Eh]
	 Opposite-Spin Energy      =      -0.9766351975121108 [Eh]
	 Correlation Energy        =      -1.2740414326737255 [Eh]
	 Total Energy              =    -307.2602979669881620 [Eh]

	 ================> DF-SCS-MP2 Energies <==================
	-----------------------------------------------------------
	 SCS Same-Spin Scale       =       0.3333333333333333 [-]
	 SCS Opposite-Spin Scale   =       1.2000000000000000 [-]
	 SCS Same-Spin Energy      =      -0.0991354117205382 [Eh]
	 SCS Opposite-Spin Energy  =      -1.1719622370145328 [Eh]
	 SCS Correlation Energy    =      -1.2710976487350711 [Eh]
	 SCS Total Energy          =    -307.2573541830495287 [Eh]
	-----------------------------------------------------------

  Dipole Moment: [D]
     X:     0.4448      Y:    -1.5646      Z:     0.0043     Total:     1.6266

*** Psi4 exiting successfully. Buy a developer a beer!
