                               Psi4 1.3.2 release

  ==> Input File <==

--------------------------------------------------------------------------
#psi4
#
memory 32 gb

molecule  {
0 1
  O        1.1347230    -0.7035620     0.0192210
  O       -0.0219060     1.2845543    -0.0043257
  C       -1.2639281    -0.7266248    -0.0183746
  C       -2.4959880     0.0348800    -0.0353530
  C        0.0179090     0.0662010     0.0002130
  C        2.3639990     0.0443740     0.0345400
  H       -1.1558060    -1.4513950    -0.8901140
  H       -1.1802510    -1.4521290     0.8560270
  H       -2.5275640     0.6780870    -0.9162870
  H       -3.3724930    -0.6172840    -0.0483470
  H       -2.5529900     0.6769780     0.8451350
  H        3.1528260    -0.7045810     0.0501140
  H        2.4139010     0.6783770     0.9207630
  H        2.4412840     0.6703610    -0.8553990
units angstrom
no_reorient  #important for SAPT in psi4, default
symmetry c1  #important for SAPT in psi4, default
}

set PROPERTIES_ORIGIN ["COM"]
properties('MP2/aug-cc-pvtz', properties = ['dipole'])
--------------------------------------------------------------------------

    Molecular point group: c1
  Charge       = 0
  Multiplicity = 1
  Basis Set: AUG-CC-PVTZ
    Blend: AUG-CC-PVTZ
  Basis Set: (AUG-CC-PVTZ AUX)
    Blend: AUG-CC-PVTZ-JKFIT

    Orbital Energies [Eh]
    ---------------------

    Doubly Occupied:

       1A    -20.609644     2A    -20.543362     3A    -11.379207
       4A    -11.288063     5A    -11.246644     6A    -11.215296
       7A     -1.454001     8A     -1.356951     9A     -1.072286
      10A     -0.977008    11A     -0.875810    12A     -0.766422
      13A     -0.697974    14A     -0.677253    15A     -0.668762
      16A     -0.617267    17A     -0.603665    18A     -0.549028
      19A     -0.540391    20A     -0.536828    21A     -0.514386
      22A     -0.476270    23A     -0.464532    24A     -0.441830

  @DF-RHF Final Energy:  -305.97743866725352

   => Energetics <=

    Nuclear Repulsion Energy =            245.4549345800822664
    One-Electron Energy =                -903.7189924634025147
    Two-Electron Energy =                 352.2866192160666969
    Total Energy =                       -305.9774386672535229
  Basis Set: (AUG-CC-PVTZ AUX)
    Blend: AUG-CC-PVTZ-RI
    Molecular point group: c1

    Geometry (in Angstrom), charge = 0, multiplicity = 1:

       Center              X                  Y                   Z               Mass
    ------------   -----------------  -----------------  -----------------  -----------------
         O            1.152207349369    -0.712481596860     0.019537315458    15.994914619570
         O           -0.004421650631     1.275634703140    -0.004009384542    15.994914619570
         C           -1.246443750631    -0.735544396860    -0.018058284542    12.000000000000
         C           -2.478503650631     0.025960403140    -0.035036684542    12.000000000000
         C            0.035393349369     0.057281403140     0.000529315458    12.000000000000
         C            2.381483349369     0.035454403140     0.034856315458    12.000000000000
         H           -1.138321650631    -1.460314596860    -0.889797684542     1.007825032230
         H           -1.162766650631    -1.461048596860     0.856343315458     1.007825032230
         H           -2.510079650631     0.669167403140    -0.915970684542     1.007825032230
         H           -3.355008650631    -0.626203596860    -0.048030684542     1.007825032230
         H           -2.535505650631     0.668058403140     0.845451315458     1.007825032230
         H            3.170310349369    -0.713500596860     0.050430315458     1.007825032230
         H            2.431385349369     0.669457403140     0.921079315458     1.007825032230
         H            2.458768349369     0.661441403140    -0.855082684542     1.007825032230

  Basis Set: AUG-CC-PVTZ
    Blend: AUG-CC-PVTZ
  Basis Set: (AUG-CC-PVTZ AUX)
    Blend: AUG-CC-PVTZ-JKFIT
	 Reference Energy          =    -305.9774386672535229 [Eh]
	 Singles Energy            =      -0.0000000000000000 [Eh]
	 Same-Spin Energy          =      -0.2980268508859984 [Eh]
	 Opposite-Spin Energy      =      -0.9773671619555060 [Eh]
	 Correlation Energy        =      -1.2753940128415044 [Eh]
	 Total Energy              =    -307.2528326800950254 [Eh]

	 ================> DF-SCS-MP2 Energies <==================
	-----------------------------------------------------------
	 SCS Same-Spin Scale       =       0.3333333333333333 [-]
	 SCS Opposite-Spin Scale   =       1.2000000000000000 [-]
	 SCS Same-Spin Energy      =      -0.0993422836286661 [Eh]
	 SCS Opposite-Spin Energy  =      -1.1728405943466071 [Eh]
	 SCS Correlation Energy    =      -1.2721828779752733 [Eh]
	 SCS Total Energy          =    -307.2496215452288197 [Eh]
	-----------------------------------------------------------

  Dipole Moment: [D]
     X:     0.6108      Y:    -1.5272      Z:     0.0117     Total:     1.6448

*** Psi4 exiting successfully. Buy a developer a beer!
