                               Psi4 1.3.2 release

  ==> Input File <==

--------------------------------------------------------------------------
#psi4
#
memory 32 gb

molecule  {
0 1
  O        1.1347230    -0.7035620     0.0192210
  O        0.0419040     1.2849720    -0.0032760
  C       -1.2206870    -0.7926310    -0.0174520
  C       -2.4959880     0.0348800    -0.0353530
  C        0.0112343     0.0564244     0.0001499
  C        2.3704779     0.0336175     0.0346724
  H       -1.1558060    -1.4513950    -0.8901140
  H       -1.1802510    -1.4521290     0.8560270
  H       -2.5275640     0.6780870    -0.9162870
  H       -3.3724930    -0.6172840    -0.0483470
  H       -2.5529900     0.6769780     0.8451350
  H        3.1528260    -0.7045810     0.0501140
  H        2.4139010     0.6783770     0.9207630
  H        2.4412840     0.6703610    -0.8553990
units angstrom
no_reorient  #important for SAPT in psi4, default
symmetry c1  #important for SAPT in psi4, default
}

set PROPERTIES_ORIGIN ["COM"]
properties('MP2/aug-cc-pvtz', properties = ['dipole'])
--------------------------------------------------------------------------

    Molecular point group: c1
  Charge       = 0
  Multiplicity = 1
  Basis Set: AUG-CC-PVTZ
    Blend: AUG-CC-PVTZ
  Basis Set: (AUG-CC-PVTZ AUX)
    Blend: AUG-CC-PVTZ-JKFIT

    Orbital Energies [Eh]
    ---------------------

    Doubly Occupied:

       1A    -20.603682     2A    -20.543449     3A    -11.380311
       4A    -11.284552     5A    -11.245914     6A    -11.220893
       7A     -1.451516     8A     -1.347138     9A     -1.068739
      10A     -0.972695    11A     -0.879861    12A     -0.766016
      13A     -0.699507    14A     -0.675819    15A     -0.666634
      16A     -0.620105    17A     -0.601221    18A     -0.536917
      19A     -0.536122    20A     -0.525546    21A     -0.518465
      22A     -0.495414    23A     -0.459274    24A     -0.448012

  @DF-RHF Final Energy:  -305.98521834170890

   => Energetics <=

    Nuclear Repulsion Energy =            244.9274394080936759
    One-Electron Energy =                -902.7297110732093870
    Two-Electron Energy =                 351.8170533234068671
    Total Energy =                       -305.9852183417089009
  Basis Set: (AUG-CC-PVTZ AUX)
    Blend: AUG-CC-PVTZ-RI
    Molecular point group: c1

    Geometry (in Angstrom), charge = 0, multiplicity = 1:

       Center              X                  Y                   Z               Mass
    ------------   -----------------  -----------------  -----------------  -----------------
         O            1.134749806055    -0.700763685951     0.019211456626    15.994914619570
         O            0.041930806055     1.287770314049    -0.003285543374    15.994914619570
         C           -1.220660193945    -0.789832685951    -0.017461543374    12.000000000000
         C           -2.495961193945     0.037678314049    -0.035362543374    12.000000000000
         C            0.011261106055     0.059222714049     0.000140356626    12.000000000000
         C            2.370504706055     0.036415814049     0.034662856626    12.000000000000
         H           -1.155779193945    -1.448596685951    -0.890123543374     1.007825032230
         H           -1.180224193945    -1.449330685951     0.856017456626     1.007825032230
         H           -2.527537193945     0.680885314049    -0.916296543374     1.007825032230
         H           -3.372466193945    -0.614485685951    -0.048356543374     1.007825032230
         H           -2.552963193945     0.679776314049     0.845125456626     1.007825032230
         H            3.152852806055    -0.701782685951     0.050104456626     1.007825032230
         H            2.413927806055     0.681175314049     0.920753456626     1.007825032230
         H            2.441310806055     0.673159314049    -0.855408543374     1.007825032230

  Basis Set: AUG-CC-PVTZ
    Blend: AUG-CC-PVTZ
  Basis Set: (AUG-CC-PVTZ AUX)
    Blend: AUG-CC-PVTZ-JKFIT
	 Reference Energy          =    -305.9852183417089009 [Eh]
	 Singles Energy            =      -0.0000000000000000 [Eh]
	 Same-Spin Energy          =      -0.2976427856949873 [Eh]
	 Opposite-Spin Energy      =      -0.9770234305751229 [Eh]
	 Correlation Energy        =      -1.2746662162701101 [Eh]
	 Total Energy              =    -307.2598845579790350 [Eh]

	 ================> DF-SCS-MP2 Energies <==================
	-----------------------------------------------------------
	 SCS Same-Spin Scale       =       0.3333333333333333 [-]
	 SCS Opposite-Spin Scale   =       1.2000000000000000 [-]
	 SCS Same-Spin Energy      =      -0.0992142618983291 [Eh]
	 SCS Opposite-Spin Energy  =      -1.1724281166901473 [Eh]
	 SCS Correlation Energy    =      -1.2716423785884765 [Eh]
	 SCS Total Energy          =    -307.2568607202973681 [Eh]
	-----------------------------------------------------------

  Dipole Moment: [D]
     X:     0.4248      Y:    -1.6308      Z:     0.0091     Total:     1.6852

*** Psi4 exiting successfully. Buy a developer a beer!
