                               Psi4 1.3.2 release

  ==> Input File <==

--------------------------------------------------------------------------
#psi4
#
memory 32 gb

molecule  {
0 1
  O        1.1219041    -0.6816951     0.0625848
  O        0.0419040     1.2849720    -0.0032760
  C       -1.2206870    -0.7926310    -0.0174520
  C       -2.4959880     0.0348800    -0.0353530
  C        0.0179090     0.0662010     0.0002130
  C        2.3639990     0.0443740     0.0345400
  H       -1.1558060    -1.4513950    -0.8901140
  H       -1.1802510    -1.4521290     0.8560270
  H       -2.5275640     0.6780870    -0.9162870
  H       -3.3724930    -0.6172840    -0.0483470
  H       -2.5529900     0.6769780     0.8451350
  H        3.1528260    -0.7045810     0.0501140
  H        2.3798078     0.6651325     0.9313400
  H        2.4412840     0.6703610    -0.8553990
units angstrom
no_reorient  #important for SAPT in psi4, default
symmetry c1  #important for SAPT in psi4, default
}

set PROPERTIES_ORIGIN ["COM"]
properties('MP2/aug-cc-pvtz', properties = ['dipole'])
--------------------------------------------------------------------------

    Molecular point group: c1
  Charge       = 0
  Multiplicity = 1
  Basis Set: AUG-CC-PVTZ
    Blend: AUG-CC-PVTZ
  Basis Set: (AUG-CC-PVTZ AUX)
    Blend: AUG-CC-PVTZ-JKFIT

    Orbital Energies [Eh]
    ---------------------

    Doubly Occupied:

       1A    -20.603436     2A    -20.540208     3A    -11.375910
       4A    -11.286250     5A    -11.244233     6A    -11.219407
       7A     -1.460625     8A     -1.351075     9A     -1.065785
      10A     -0.975841    11A     -0.876921    12A     -0.767935
      13A     -0.699383    14A     -0.680898    15A     -0.669077
      16A     -0.620247    17A     -0.600223    18A     -0.540186
      19A     -0.537084    20A     -0.523197    21A     -0.515985
      22A     -0.495277    23A     -0.460331    24A     -0.445999

  @DF-RHF Final Energy:  -305.98707606712020

   => Energetics <=

    Nuclear Repulsion Energy =            245.6940476849166259
    One-Electron Energy =                -904.2512181478851971
    Two-Electron Energy =                 352.5700943958483435
    Total Energy =                       -305.9870760671201992
  Basis Set: (AUG-CC-PVTZ AUX)
    Blend: AUG-CC-PVTZ-RI
    Molecular point group: c1

    Geometry (in Angstrom), charge = 0, multiplicity = 1:

       Center              X                  Y                   Z               Mass
    ------------   -----------------  -----------------  -----------------  -----------------
         O            1.124623024748    -0.685515663626     0.054586511194    15.994914619570
         O            0.044622924748     1.281151436374    -0.011274288806    15.994914619570
         C           -1.217968075252    -0.796451563626    -0.025450288806    12.000000000000
         C           -2.493269075252     0.031059436374    -0.043351288806    12.000000000000
         C            0.020627924748     0.062380436374    -0.007785288806    12.000000000000
         C            2.366717924748     0.040553436374     0.026541711194    12.000000000000
         H           -1.153087075252    -1.455215563626    -0.898112288806     1.007825032230
         H           -1.177532075252    -1.455949563626     0.848028711194     1.007825032230
         H           -2.524845075252     0.674266436374    -0.924285288806     1.007825032230
         H           -3.369774075252    -0.621104563626    -0.056345288806     1.007825032230
         H           -2.550271075252     0.673157436374     0.837136711194     1.007825032230
         H            3.155544924748    -0.708401563626     0.042115711194     1.007825032230
         H            2.382526724748     0.661311936374     0.923341711194     1.007825032230
         H            2.444002924748     0.666540436374    -0.863397288806     1.007825032230

  Basis Set: AUG-CC-PVTZ
    Blend: AUG-CC-PVTZ
  Basis Set: (AUG-CC-PVTZ AUX)
    Blend: AUG-CC-PVTZ-JKFIT
	 Reference Energy          =    -305.9870760671201992 [Eh]
	 Singles Energy            =      -0.0000000000000000 [Eh]
	 Same-Spin Energy          =      -0.2971206241803409 [Eh]
	 Opposite-Spin Energy      =      -0.9757078159224316 [Eh]
	 Correlation Energy        =      -1.2728284401027725 [Eh]
	 Total Energy              =    -307.2599045072229842 [Eh]

	 ================> DF-SCS-MP2 Energies <==================
	-----------------------------------------------------------
	 SCS Same-Spin Scale       =       0.3333333333333333 [-]
	 SCS Opposite-Spin Scale   =       1.2000000000000000 [-]
	 SCS Same-Spin Energy      =      -0.0990402080601136 [Eh]
	 SCS Opposite-Spin Energy  =      -1.1708493791069179 [Eh]
	 SCS Correlation Energy    =      -1.2698895871670315 [Eh]
	 SCS Total Energy          =    -307.2569656542872281 [Eh]
	-----------------------------------------------------------

  Dipole Moment: [D]
     X:     0.5702      Y:    -1.6560      Z:    -0.0491     Total:     1.7521

*** Psi4 exiting successfully. Buy a developer a beer!
