                               Psi4 1.3.2 release

  ==> Input File <==

--------------------------------------------------------------------------
#psi4
#
memory 32 gb

molecule  {
0 1
  O        1.1347230    -0.7035620     0.0192210
  O        0.0419040     1.2849720    -0.0032760
  C       -1.2206870    -0.7926310    -0.0174520
  C       -2.4959880     0.0348800    -0.0353530
  C        0.1002378     0.0094559     0.0016142
  C        2.3639990     0.0443740     0.0345400
  H       -1.1558060    -1.4513950    -0.8901140
  H       -1.1802510    -1.4521290     0.8560270
  H       -2.5275640     0.6780870    -0.9162870
  H       -3.3724930    -0.6172840    -0.0483470
  H       -2.5529900     0.6769780     0.8451350
  H        3.1528260    -0.7045810     0.0501140
  H        2.4139010     0.6783770     0.9207630
  H        2.4412840     0.6703610    -0.8553990
units angstrom
no_reorient  #important for SAPT in psi4, default
symmetry c1  #important for SAPT in psi4, default
}

set PROPERTIES_ORIGIN ["COM"]
properties('MP2/aug-cc-pvtz', properties = ['dipole'])
--------------------------------------------------------------------------

    Molecular point group: c1
  Charge       = 0
  Multiplicity = 1
  Basis Set: AUG-CC-PVTZ
    Blend: AUG-CC-PVTZ
  Basis Set: (AUG-CC-PVTZ AUX)
    Blend: AUG-CC-PVTZ-JKFIT

    Orbital Energies [Eh]
    ---------------------

    Doubly Occupied:

       1A    -20.629435     2A    -20.526089     3A    -11.378775
       4A    -11.297789     5A    -11.242354     6A    -11.215698
       7A     -1.499202     8A     -1.320238     9A     -1.058114
      10A     -0.994237    11A     -0.874003    12A     -0.789757
      13A     -0.698716    14A     -0.694803    15A     -0.675309
      16A     -0.616974    17A     -0.587813    18A     -0.548580
      19A     -0.543326    20A     -0.523290    21A     -0.506055
      22A     -0.492664    23A     -0.449986    24A     -0.430853

  @DF-RHF Final Energy:  -305.97286575148928

   => Energetics <=

    Nuclear Repulsion Energy =            245.3412003448716519
    One-Electron Energy =                -903.4400092694315845
    Two-Electron Energy =                 352.1259431730707092
    Total Energy =                       -305.9728657514892802
  Basis Set: (AUG-CC-PVTZ AUX)
    Blend: AUG-CC-PVTZ-RI
    Molecular point group: c1

    Geometry (in Angstrom), charge = 0, multiplicity = 1:

       Center              X                  Y                   Z               Mass
    ------------   -----------------  -----------------  -----------------  -----------------
         O            1.123503152151    -0.695828626209     0.019029942043    15.994914619570
         O            0.030684152151     1.292705373791    -0.003467057957    15.994914619570
         C           -1.231906847849    -0.784897626209    -0.017643057957    12.000000000000
         C           -2.507207847849     0.042613373791    -0.035544057957    12.000000000000
         C            0.089017952151     0.017189273791     0.001423142043    12.000000000000
         C            2.352779152151     0.052107373791     0.034348942043    12.000000000000
         H           -1.167025847849    -1.443661626209    -0.890305057957     1.007825032230
         H           -1.191470847849    -1.444395626209     0.855835942043     1.007825032230
         H           -2.538783847849     0.685820373791    -0.916478057957     1.007825032230
         H           -3.383712847849    -0.609550626209    -0.048538057957     1.007825032230
         H           -2.564209847849     0.684711373791     0.844943942043     1.007825032230
         H            3.141606152151    -0.696847626209     0.049922942043     1.007825032230
         H            2.402681152151     0.686110373791     0.920571942043     1.007825032230
         H            2.430064152151     0.678094373791    -0.855590057957     1.007825032230

  Basis Set: AUG-CC-PVTZ
    Blend: AUG-CC-PVTZ
  Basis Set: (AUG-CC-PVTZ AUX)
    Blend: AUG-CC-PVTZ-JKFIT
	 Reference Energy          =    -305.9728657514892802 [Eh]
	 Singles Energy            =      -0.0000000000000000 [Eh]
	 Same-Spin Energy          =      -0.2977543327750782 [Eh]
	 Opposite-Spin Energy      =      -0.9769403391322129 [Eh]
	 Correlation Energy        =      -1.2746946719072911 [Eh]
	 Total Energy              =    -307.2475604233965782 [Eh]

	 ================> DF-SCS-MP2 Energies <==================
	-----------------------------------------------------------
	 SCS Same-Spin Scale       =       0.3333333333333333 [-]
	 SCS Opposite-Spin Scale   =       1.2000000000000000 [-]
	 SCS Same-Spin Energy      =      -0.0992514442583594 [Eh]
	 SCS Opposite-Spin Energy  =      -1.1723284069586555 [Eh]
	 SCS Correlation Energy    =      -1.2715798512170149 [Eh]
	 SCS Total Energy          =    -307.2444456027063211 [Eh]
	-----------------------------------------------------------

  Dipole Moment: [D]
     X:     1.2430      Y:    -1.9772      Z:     0.0225     Total:     2.3355

*** Psi4 exiting successfully. Buy a developer a beer!
