                               Psi4 1.4a3.dev225

  ==> Input File <==

--------------------------------------------------------------------------
#psi4
#
memory 32 gb

molecule  {
0 1
  O        1.1455950    -0.7206100    -0.0000020
  O        0.1065970     1.2988430     0.0000060
  C       -1.2145750    -0.7450000     0.0000080
  C       -2.4678730     0.1187130    -0.0000080
  C        0.0492150     0.0800240     0.0000030
  C        2.4136832     0.0058225    -0.0000040
  H       -1.1806580    -1.4052490    -0.8737030
  H       -1.1806650    -1.4052230     0.8737390
  H       -2.4946670     0.7625720    -0.8811910
  H       -3.3622150    -0.5096080    -0.0000470
  H       -2.4947180     0.7625340     0.8812010
  H        3.1644210    -0.7750410    -0.0000210
  H        2.4762030     0.6232120     0.8890930
  H        2.4761870     0.6232350    -0.8890870
units angstrom
no_reorient  #important for SAPT in psi4, default
symmetry c1  #important for SAPT in psi4, default
}

set PROPERTIES_ORIGIN ["COM"]
properties('MP2/aug-cc-pvtz', properties = ['dipole'])
--------------------------------------------------------------------------

    Molecular point group: c1
  Charge       = 0
  Multiplicity = 1
  Basis Set: AUG-CC-PVTZ
    Blend: AUG-CC-PVTZ
  Basis Set: (AUG-CC-PVTZ AUX)
    Blend: AUG-CC-PVTZ-JKFIT

    Orbital Energies [Eh]
    ---------------------

    Doubly Occupied:

       1A    -20.602119     2A    -20.543780     3A    -11.378416
       4A    -11.285197     5A    -11.245029     6A    -11.220064
       7A     -1.448487     8A     -1.348993     9A     -1.064232
      10A     -0.971383    11A     -0.878007    12A     -0.764026
      13A     -0.697786    14A     -0.674569    15A     -0.663953
      16A     -0.619808    17A     -0.598177    18A     -0.540993
      19A     -0.538894    20A     -0.522732    21A     -0.517793
      22A     -0.495668    23A     -0.462138    24A     -0.446229

  @DF-RHF Final Energy:  -305.98552775564389

   => Energetics <=

    Nuclear Repulsion Energy =            244.4915848528581535
    One-Electron Energy =                -901.8972809743997914
    Two-Electron Energy =                 351.4201683658977231
    Total Energy =                       -305.9855277556438864
  Basis Set: (AUG-CC-PVTZ AUX)
    Blend: AUG-CC-PVTZ-RI
    Molecular point group: c1

    Geometry (in Angstrom), charge = 0, multiplicity = 1:

       Center              X                  Y                   Z               Mass
    ------------   -----------------  -----------------  -----------------  -----------------
         O            1.114049250688    -0.736845514581    -0.000002407194    15.994914619570
         O            0.075051250688     1.282607485419     0.000005592806    15.994914619570
         C           -1.246120749312    -0.761235514581     0.000007592806    12.000000000000
         C           -2.499418749312     0.102477485419    -0.000008407194    12.000000000000
         C            0.017669250688     0.063788485419     0.000002592806    12.000000000000
         C            2.382137450688    -0.010413014581    -0.000004407194    12.000000000000
         H           -1.212203749312    -1.421484514581    -0.873703407194     1.007825032230
         H           -1.212210749312    -1.421458514581     0.873738592806     1.007825032230
         H           -2.526212749312     0.746336485419    -0.881191407194     1.007825032230
         H           -3.393760749312    -0.525843514581    -0.000047407194     1.007825032230
         H           -2.526263749312     0.746298485419     0.881200592806     1.007825032230
         H            3.132875250688    -0.791276514581    -0.000021407194     1.007825032230
         H            2.444657250688     0.606976485419     0.889092592806     1.007825032230
         H            2.444641250688     0.606999485419    -0.889087407194     1.007825032230

  Basis Set: AUG-CC-PVTZ
    Blend: AUG-CC-PVTZ
  Basis Set: (AUG-CC-PVTZ AUX)
    Blend: AUG-CC-PVTZ-JKFIT
	 Reference Energy          =    -305.9855277556438864 [Eh]
	 Singles Energy            =      -0.0000000000000000 [Eh]
	 Same-Spin Energy          =      -0.2974247796279825 [Eh]
	 Opposite-Spin Energy      =      -0.9770096705587693 [Eh]
	 Correlation Energy        =      -1.2744344501867517 [Eh]
	 Total Energy              =    -307.2599622058306181 [Eh]

	 ================> DF-SCS-MP2 Energies <==================
	-----------------------------------------------------------
	 SCS Same-Spin Scale       =       0.3333333333333333 [-]
	 SCS Opposite-Spin Scale   =       1.2000000000000000 [-]
	 SCS Same-Spin Energy      =      -0.0991415932093275 [Eh]
	 SCS Opposite-Spin Energy  =      -1.1724116046705231 [Eh]
	 SCS Correlation Energy    =      -1.2715531978798507 [Eh]
	 SCS Total Energy          =    -307.2570809535237117 [Eh]
	-----------------------------------------------------------

  Dipole Moment: [D]
     X:     0.4791      Y:    -1.5552      Z:    -0.0000     Total:     1.6273

*** Psi4 exiting successfully. Buy a developer a beer!
