                               Psi4 1.3.2 release

  ==> Input File <==

--------------------------------------------------------------------------
#psi4
#
memory 32 gb

molecule  {
0 1
  O        1.1381624    -0.7088874     0.0083809
  O        0.0419040     1.2849720    -0.0032760
  C       -1.2206870    -0.7926310    -0.0174520
  C       -2.4959880     0.0348800    -0.0353530
  C        0.0179090     0.0662010     0.0002130
  C        2.3639990     0.0443740     0.0345400
  H       -1.1558060    -1.4513950    -0.8901140
  H       -1.1802510    -1.4521290     0.8560270
  H       -2.5275640     0.6780870    -0.9162870
  H       -3.3724930    -0.6172840    -0.0483470
  H       -2.5529900     0.6769780     0.8451350
  H        3.1528260    -0.7045810     0.0501140
  H        2.4224164     0.6815680     0.9179495
  H        2.4412840     0.6703610    -0.8553990
units angstrom
no_reorient  #important for SAPT in psi4, default
symmetry c1  #important for SAPT in psi4, default
}

set PROPERTIES_ORIGIN ["COM"]
properties('MP2/aug-cc-pvtz', properties = ['dipole'])
--------------------------------------------------------------------------

    Molecular point group: c1
  Charge       = 0
  Multiplicity = 1
  Basis Set: AUG-CC-PVTZ
    Blend: AUG-CC-PVTZ
  Basis Set: (AUG-CC-PVTZ AUX)
    Blend: AUG-CC-PVTZ-JKFIT

    Orbital Energies [Eh]
    ---------------------

    Doubly Occupied:

       1A    -20.603984     2A    -20.546134     3A    -11.380040
       4A    -11.283840     5A    -11.245573     6A    -11.220486
       7A     -1.452283     8A     -1.353235     9A     -1.066195
      10A     -0.970670    11A     -0.878041    12A     -0.766563
      13A     -0.699671    14A     -0.675995    15A     -0.667557
      16A     -0.620054    17A     -0.599251    18A     -0.538546
      19A     -0.535682    20A     -0.524719    21A     -0.519960
      22A     -0.496011    23A     -0.462477    24A     -0.447988

  @DF-RHF Final Energy:  -305.98593003234566

   => Energetics <=

    Nuclear Repulsion Energy =            244.9046540268239482
    One-Electron Energy =                -902.6712596466275045
    Two-Electron Energy =                 351.7806755874579494
    Total Energy =                       -305.9859300323456637
  Basis Set: (AUG-CC-PVTZ AUX)
    Blend: AUG-CC-PVTZ-RI
    Molecular point group: c1

    Geometry (in Angstrom), charge = 0, multiplicity = 1:

       Center              X                  Y                   Z               Mass
    ------------   -----------------  -----------------  -----------------  -----------------
         O            1.137440282454    -0.707956539834     0.010382131237    15.994914619570
         O            0.041181882454     1.285902860166    -0.001274768763    15.994914619570
         C           -1.221409117546    -0.791700139834    -0.015450768763    12.000000000000
         C           -2.496710117546     0.035810860166    -0.033351768763    12.000000000000
         C            0.017186882454     0.067131860166     0.002214231237    12.000000000000
         C            2.363276882454     0.045304860166     0.036541231237    12.000000000000
         H           -1.156528117546    -1.450464139834    -0.888112768763     1.007825032230
         H           -1.180973117546    -1.451198139834     0.858028231237     1.007825032230
         H           -2.528286117546     0.679017860166    -0.914285768763     1.007825032230
         H           -3.373215117546    -0.616353139834    -0.046345768763     1.007825032230
         H           -2.553712117546     0.677908860166     0.847136231237     1.007825032230
         H            3.152103882454    -0.703650139834     0.052115231237     1.007825032230
         H            2.421694282454     0.682498860166     0.919950731237     1.007825032230
         H            2.440561882454     0.671291860166    -0.853397768763     1.007825032230

  Basis Set: AUG-CC-PVTZ
    Blend: AUG-CC-PVTZ
  Basis Set: (AUG-CC-PVTZ AUX)
    Blend: AUG-CC-PVTZ-JKFIT
	 Reference Energy          =    -305.9859300323456637 [Eh]
	 Singles Energy            =      -0.0000000000000000 [Eh]
	 Same-Spin Energy          =      -0.2974948361313931 [Eh]
	 Opposite-Spin Energy      =      -0.9768755150747965 [Eh]
	 Correlation Energy        =      -1.2743703512061897 [Eh]
	 Total Energy              =    -307.2603003835518507 [Eh]

	 ================> DF-SCS-MP2 Energies <==================
	-----------------------------------------------------------
	 SCS Same-Spin Scale       =       0.3333333333333333 [-]
	 SCS Opposite-Spin Scale   =       1.2000000000000000 [-]
	 SCS Same-Spin Energy      =      -0.0991649453771310 [Eh]
	 SCS Opposite-Spin Energy  =      -1.1722506180897558 [Eh]
	 SCS Correlation Energy    =      -1.2714155634668869 [Eh]
	 SCS Total Energy          =    -307.2573455958125237 [Eh]
	-----------------------------------------------------------

  Dipole Moment: [D]
     X:     0.4109      Y:    -1.5406      Z:     0.0240     Total:     1.5947

*** Psi4 exiting successfully. Buy a developer a beer!
