                               Psi4 1.3.2 release

  ==> Input File <==

--------------------------------------------------------------------------
#psi4
#
memory 32 gb

molecule  {
0 1
  O        1.1313772    -0.6981797     0.0300623
  O        0.0419040     1.2849720    -0.0032760
  C       -1.2206870    -0.7926310    -0.0174520
  C       -2.4959880     0.0348800    -0.0353530
  C        0.0179090     0.0662010     0.0002130
  C        2.3639990     0.0443740     0.0345400
  H       -1.1558060    -1.4513950    -0.8901140
  H       -1.1802510    -1.4521290     0.8560270
  H       -2.5275640     0.6780870    -0.9162870
  H       -3.3724930    -0.6172840    -0.0483470
  H       -2.5529900     0.6769780     0.8451350
  H        3.1528260    -0.7045810     0.0501140
  H        2.4053818     0.6751377     0.9235090
  H        2.4412840     0.6703610    -0.8553990
units angstrom
no_reorient  #important for SAPT in psi4, default
symmetry c1  #important for SAPT in psi4, default
}

set PROPERTIES_ORIGIN ["COM"]
properties('MP2/aug-cc-pvtz', properties = ['dipole'])
--------------------------------------------------------------------------

    Molecular point group: c1
  Charge       = 0
  Multiplicity = 1
  Basis Set: AUG-CC-PVTZ
    Blend: AUG-CC-PVTZ
  Basis Set: (AUG-CC-PVTZ AUX)
    Blend: AUG-CC-PVTZ-JKFIT

    Orbital Energies [Eh]
    ---------------------

    Doubly Occupied:

       1A    -20.603822     2A    -20.543720     3A    -11.378348
       4A    -11.284831     5A    -11.244998     6A    -11.220031
       7A     -1.455600     8A     -1.352444     9A     -1.066001
      10A     -0.972782    11A     -0.877559    12A     -0.767148
      13A     -0.699527    14A     -0.677916    15A     -0.668203
      16A     -0.620146    17A     -0.599676    18A     -0.539091
      19A     -0.536219    20A     -0.524111    21A     -0.518524
      22A     -0.495692    23A     -0.461741    24A     -0.447244

  @DF-RHF Final Energy:  -305.98685330793057

   => Energetics <=

    Nuclear Repulsion Energy =            245.2268671476631425
    One-Electron Energy =                -903.3166912491068388
    Two-Electron Energy =                 352.1029707935131228
    Total Energy =                       -305.9868533079305735
  Basis Set: (AUG-CC-PVTZ AUX)
    Blend: AUG-CC-PVTZ-RI
    Molecular point group: c1

    Geometry (in Angstrom), charge = 0, multiplicity = 1:

       Center              X                  Y                   Z               Mass
    ------------   -----------------  -----------------  -----------------  -----------------
         O            1.132082602304    -0.699120317213     0.028061425366    15.994914619570
         O            0.042609402304     1.284031382787    -0.005276874634    15.994914619570
         C           -1.219981597696    -0.793571617213    -0.019452874634    12.000000000000
         C           -2.495282597696     0.033939382787    -0.037353874634    12.000000000000
         C            0.018614402304     0.065260382787    -0.001787874634    12.000000000000
         C            2.364704402304     0.043433382787     0.032539125366    12.000000000000
         H           -1.155100597696    -1.452335617213    -0.892114874634     1.007825032230
         H           -1.179545597696    -1.453069617213     0.854026125366     1.007825032230
         H           -2.526858597696     0.677146382787    -0.918287874634     1.007825032230
         H           -3.371787597696    -0.618224617213    -0.050347874634     1.007825032230
         H           -2.552284597696     0.676037382787     0.843134125366     1.007825032230
         H            3.153531402304    -0.705521617213     0.048113125366     1.007825032230
         H            2.406087202304     0.674197082787     0.921508125366     1.007825032230
         H            2.441989402304     0.669420382787    -0.857399874634     1.007825032230

  Basis Set: AUG-CC-PVTZ
    Blend: AUG-CC-PVTZ
  Basis Set: (AUG-CC-PVTZ AUX)
    Blend: AUG-CC-PVTZ-JKFIT
	 Reference Energy          =    -305.9868533079305735 [Eh]
	 Singles Energy            =      -0.0000000000000000 [Eh]
	 Same-Spin Energy          =      -0.2973282218516722 [Eh]
	 Opposite-Spin Energy      =      -0.9763690440928818 [Eh]
	 Correlation Energy        =      -1.2736972659445540 [Eh]
	 Total Energy              =    -307.2605505738751503 [Eh]

	 ================> DF-SCS-MP2 Energies <==================
	-----------------------------------------------------------
	 SCS Same-Spin Scale       =       0.3333333333333333 [-]
	 SCS Opposite-Spin Scale   =       1.2000000000000000 [-]
	 SCS Same-Spin Energy      =      -0.0991094072838907 [Eh]
	 SCS Opposite-Spin Energy  =      -1.1716428529114582 [Eh]
	 SCS Correlation Energy    =      -1.2707522601953489 [Eh]
	 SCS Total Energy          =    -307.2576055681259390 [Eh]
	-----------------------------------------------------------

  Dipole Moment: [D]
     X:     0.4779      Y:    -1.5870      Z:    -0.0054     Total:     1.6574

*** Psi4 exiting successfully. Buy a developer a beer!
