                               Psi4 1.3.2 release

  ==> Input File <==

--------------------------------------------------------------------------
#psi4
#
memory 32 gb

molecule  {
0 1
  O        1.1279636    -0.7132800     0.0191346
  O        0.0419040     1.2849720    -0.0032760
  C       -1.2131464    -0.8034080    -0.0173125
  C       -2.4959880     0.0348800    -0.0353530
  C        0.0179090     0.0662010     0.0002130
  C        2.3639990     0.0443740     0.0345400
  H       -1.1558060    -1.4513950    -0.8901140
  H       -1.1802510    -1.4521290     0.8560270
  H       -2.5275640     0.6780870    -0.9162870
  H       -3.3724930    -0.6172840    -0.0483470
  H       -2.5529900     0.6769780     0.8451350
  H        3.1528260    -0.7045810     0.0501140
  H        2.4139010     0.6783770     0.9207630
  H        2.4412840     0.6703610    -0.8553990
units angstrom
no_reorient  #important for SAPT in psi4, default
symmetry c1  #important for SAPT in psi4, default
}

set PROPERTIES_ORIGIN ["COM"]
properties('MP2/aug-cc-pvtz', properties = ['dipole'])
--------------------------------------------------------------------------

    Molecular point group: c1
  Charge       = 0
  Multiplicity = 1
  Basis Set: AUG-CC-PVTZ
    Blend: AUG-CC-PVTZ
  Basis Set: (AUG-CC-PVTZ AUX)
    Blend: AUG-CC-PVTZ-JKFIT

    Orbital Energies [Eh]
    ---------------------

    Doubly Occupied:

       1A    -20.604355     2A    -20.545548     3A    -11.379029
       4A    -11.285430     5A    -11.243852     6A    -11.220191
       7A     -1.452362     8A     -1.352430     9A     -1.064181
      10A     -0.970250    11A     -0.877828    12A     -0.766691
      13A     -0.698952    14A     -0.676207    15A     -0.667241
      16A     -0.619966    17A     -0.597781    18A     -0.539192
      19A     -0.536801    20A     -0.520757    21A     -0.518657
      22A     -0.498185    23A     -0.463119    24A     -0.447837

  @DF-RHF Final Energy:  -305.98566062889989

   => Energetics <=

    Nuclear Repulsion Energy =            244.8620570741015001
    One-Electron Energy =                -902.6017537438675618
    Two-Electron Energy =                 351.7540360408661968
    Total Energy =                       -305.9856606288998933
  Basis Set: (AUG-CC-PVTZ AUX)
    Blend: AUG-CC-PVTZ-RI
    Molecular point group: c1

    Geometry (in Angstrom), charge = 0, multiplicity = 1:

       Center              X                  Y                   Z               Mass
    ------------   -----------------  -----------------  -----------------  -----------------
         O            1.128163930238    -0.710045975312     0.019131184346    15.994914619570
         O            0.042104330238     1.288206024688    -0.003279415654    15.994914619570
         C           -1.212946069762    -0.800173975312    -0.017315915654    12.000000000000
         C           -2.495787669762     0.038114024688    -0.035356415654    12.000000000000
         C            0.018109330238     0.069435024688     0.000209584346    12.000000000000
         C            2.364199330238     0.047608024688     0.034536584346    12.000000000000
         H           -1.155605669762    -1.448160975312    -0.890117415654     1.007825032230
         H           -1.180050669762    -1.448894975312     0.856023584346     1.007825032230
         H           -2.527363669762     0.681321024688    -0.916290415654     1.007825032230
         H           -3.372292669762    -0.614049975312    -0.048350415654     1.007825032230
         H           -2.552789669762     0.680212024688     0.845131584346     1.007825032230
         H            3.153026330238    -0.701346975312     0.050110584346     1.007825032230
         H            2.414101330238     0.681611024688     0.920759584346     1.007825032230
         H            2.441484330238     0.673595024688    -0.855402415654     1.007825032230

  Basis Set: AUG-CC-PVTZ
    Blend: AUG-CC-PVTZ
  Basis Set: (AUG-CC-PVTZ AUX)
    Blend: AUG-CC-PVTZ-JKFIT
	 Reference Energy          =    -305.9856606288998933 [Eh]
	 Singles Energy            =      -0.0000000000000000 [Eh]
	 Same-Spin Energy          =      -0.2974618535958697 [Eh]
	 Opposite-Spin Energy      =      -0.9769775734634776 [Eh]
	 Correlation Energy        =      -1.2744394270593473 [Eh]
	 Total Energy              =    -307.2601000559592421 [Eh]

	 ================> DF-SCS-MP2 Energies <==================
	-----------------------------------------------------------
	 SCS Same-Spin Scale       =       0.3333333333333333 [-]
	 SCS Opposite-Spin Scale   =       1.2000000000000000 [-]
	 SCS Same-Spin Energy      =      -0.0991539511986232 [Eh]
	 SCS Opposite-Spin Energy  =      -1.1723730881561731 [Eh]
	 SCS Correlation Energy    =      -1.2715270393547964 [Eh]
	 SCS Total Energy          =    -307.2571876682546872 [Eh]
	-----------------------------------------------------------

  Dipole Moment: [D]
     X:     0.4937      Y:    -1.5396      Z:     0.0099     Total:     1.6169

*** Psi4 exiting successfully. Buy a developer a beer!
