                               Psi4 1.3.2 release

  ==> Input File <==

--------------------------------------------------------------------------
#psi4
#
memory 32 gb

molecule  {
0 1
  O        1.1347230    -0.7035620     0.0192210
  O        0.0419040     1.2849720    -0.0032760
  C       -1.2206870    -0.7926310    -0.0174520
  C       -2.4959880     0.0348800    -0.0353530
  C        0.0597248     0.1236035     0.0006218
  C        2.3231776     0.1076888     0.0337217
  H       -1.1558060    -1.4513950    -0.8901140
  H       -1.1802510    -1.4521290     0.8560270
  H       -2.5275640     0.6780870    -0.9162870
  H       -3.3724930    -0.6172840    -0.0483470
  H       -2.5529900     0.6769780     0.8451350
  H        3.1528260    -0.7045810     0.0501140
  H        2.4139010     0.6783770     0.9207630
  H        2.4412840     0.6703610    -0.8553990
units angstrom
no_reorient  #important for SAPT in psi4, default
symmetry c1  #important for SAPT in psi4, default
}

set PROPERTIES_ORIGIN ["COM"]
properties('MP2/aug-cc-pvtz', properties = ['dipole'])
--------------------------------------------------------------------------

    Molecular point group: c1
  Charge       = 0
  Multiplicity = 1
  Basis Set: AUG-CC-PVTZ
    Blend: AUG-CC-PVTZ
  Basis Set: (AUG-CC-PVTZ AUX)
    Blend: AUG-CC-PVTZ-JKFIT

    Orbital Energies [Eh]
    ---------------------

    Doubly Occupied:

       1A    -20.606148     2A    -20.554038     3A    -11.373530
       4A    -11.284771     5A    -11.240461     6A    -11.216451
       7A     -1.474020     8A     -1.384108     9A     -1.051440
      10A     -0.967050    11A     -0.866360    12A     -0.772389
      13A     -0.704126    14A     -0.687076    15A     -0.677544
      16A     -0.619656    17A     -0.593455    18A     -0.557951
      19A     -0.526472    20A     -0.523915    21A     -0.516616
      22A     -0.496418    23A     -0.477497    24A     -0.438110

  @DF-RHF Final Energy:  -305.97533611215454

   => Energetics <=

    Nuclear Repulsion Energy =            245.9839222675741155
    One-Electron Energy =                -904.6993133210010001
    Two-Electron Energy =                 352.7400549412723194
    Total Energy =                       -305.9753361121545367
  Basis Set: (AUG-CC-PVTZ AUX)
    Blend: AUG-CC-PVTZ-RI
    Molecular point group: c1

    Geometry (in Angstrom), charge = 0, multiplicity = 1:

       Center              X                  Y                   Z               Mass
    ------------   -----------------  -----------------  -----------------  -----------------
         O            1.134587602694    -0.720013635210     0.019276708658    15.994914619570
         O            0.041768602694     1.268520364790    -0.003220291342    15.994914619570
         C           -1.220822397306    -0.809082635210    -0.017396291342    12.000000000000
         C           -2.496123397306     0.018428364790    -0.035297291342    12.000000000000
         C            0.059589402694     0.107151864790     0.000677508658    12.000000000000
         C            2.323042202694     0.091237164790     0.033777408658    12.000000000000
         H           -1.155941397306    -1.467846635210    -0.890058291342     1.007825032230
         H           -1.180386397306    -1.468580635210     0.856082708658     1.007825032230
         H           -2.527699397306     0.661635364790    -0.916231291342     1.007825032230
         H           -3.372628397306    -0.633735635210    -0.048291291342     1.007825032230
         H           -2.553125397306     0.660526364790     0.845190708658     1.007825032230
         H            3.152690602694    -0.721032635210     0.050169708658     1.007825032230
         H            2.413765602694     0.661925364790     0.920818708658     1.007825032230
         H            2.441148602694     0.653909364790    -0.855343291342     1.007825032230

  Basis Set: AUG-CC-PVTZ
    Blend: AUG-CC-PVTZ
  Basis Set: (AUG-CC-PVTZ AUX)
    Blend: AUG-CC-PVTZ-JKFIT
	 Reference Energy          =    -305.9753361121545367 [Eh]
	 Singles Energy            =      -0.0000000000000000 [Eh]
	 Same-Spin Energy          =      -0.2965246937945261 [Eh]
	 Opposite-Spin Energy      =      -0.9752157635209902 [Eh]
	 Correlation Energy        =      -1.2717404573155162 [Eh]
	 Total Energy              =    -307.2470765694700390 [Eh]

	 ================> DF-SCS-MP2 Energies <==================
	-----------------------------------------------------------
	 SCS Same-Spin Scale       =       0.3333333333333333 [-]
	 SCS Opposite-Spin Scale   =       1.2000000000000000 [-]
	 SCS Same-Spin Energy      =      -0.0988415645981754 [Eh]
	 SCS Opposite-Spin Energy  =      -1.1702589162251882 [Eh]
	 SCS Correlation Energy    =      -1.2691004808233635 [Eh]
	 SCS Total Energy          =    -307.2444365929778769 [Eh]
	-----------------------------------------------------------

  Dipole Moment: [D]
     X:     0.5728      Y:    -1.1475      Z:     0.0101     Total:     1.2825

*** Psi4 exiting successfully. Buy a developer a beer!
