                               Psi4 1.3.2 release

  ==> Input File <==

--------------------------------------------------------------------------
#psi4
#
memory 32 gb

molecule  {
0 1
  O        1.1347230    -0.7035620     0.0192210
  O        0.0419040     1.2849720    -0.0032760
  C       -1.2206870    -0.7926310    -0.0174520
  C       -2.4959880     0.0348800    -0.0353530
  C        0.0001234     0.0893391     0.0439899
  C        2.3639990     0.0443740     0.0345400
  H       -1.1895306    -1.4665319    -0.8803572
  H       -1.1802510    -1.4521290     0.8560270
  H       -2.5275640     0.6780870    -0.9162870
  H       -3.3724930    -0.6172840    -0.0483470
  H       -2.5529900     0.6769780     0.8451350
  H        3.1528260    -0.7045810     0.0501140
  H        2.4139010     0.6783770     0.9207630
  H        2.4412840     0.6703610    -0.8553990
units angstrom
no_reorient  #important for SAPT in psi4, default
symmetry c1  #important for SAPT in psi4, default
}

set PROPERTIES_ORIGIN ["COM"]
properties('MP2/aug-cc-pvtz', properties = ['dipole'])
--------------------------------------------------------------------------

    Molecular point group: c1
  Charge       = 0
  Multiplicity = 1
  Basis Set: AUG-CC-PVTZ
    Blend: AUG-CC-PVTZ
  Basis Set: (AUG-CC-PVTZ AUX)
    Blend: AUG-CC-PVTZ-JKFIT

    Orbital Energies [Eh]
    ---------------------

    Doubly Occupied:

       1A    -20.596708     2A    -20.551531     3A    -11.379286
       4A    -11.280680     5A    -11.245805     6A    -11.220710
       7A     -1.451412     8A     -1.359505     9A     -1.066652
      10A     -0.965411    11A     -0.876364    12A     -0.763090
      13A     -0.703642    14A     -0.672820    15A     -0.668258
      16A     -0.619054    17A     -0.601519    18A     -0.541634
      19A     -0.535131    20A     -0.522932    21A     -0.521009
      22A     -0.497002    23A     -0.462382    24A     -0.449732

  @DF-RHF Final Energy:  -305.98458065425780

   => Energetics <=

    Nuclear Repulsion Energy =            245.0069993445047203
    One-Electron Energy =                -902.8786224061772145
    Two-Electron Energy =                 351.8870424074146968
    Total Energy =                       -305.9845806542577975
  Basis Set: (AUG-CC-PVTZ AUX)
    Blend: AUG-CC-PVTZ-RI
    Molecular point group: c1

    Geometry (in Angstrom), charge = 0, multiplicity = 1:

       Center              X                  Y                   Z               Mass
    ------------   -----------------  -----------------  -----------------  -----------------
         O            1.137532989864    -0.706542050684     0.013143204446    15.994914619570
         O            0.044713989864     1.281991949316    -0.009353795554    15.994914619570
         C           -1.217877010136    -0.795611050684    -0.023529795554    12.000000000000
         C           -2.493178010136     0.031899949316    -0.041430795554    12.000000000000
         C            0.002933389864     0.086359049316     0.037912104446    12.000000000000
         C            2.366808989864     0.041393949316     0.028462204446    12.000000000000
         H           -1.186720610136    -1.469511950684    -0.886434995554     1.007825032230
         H           -1.177441010136    -1.455109050684     0.849949204446     1.007825032230
         H           -2.524754010136     0.675106949316    -0.922364795554     1.007825032230
         H           -3.369683010136    -0.620264050684    -0.054424795554     1.007825032230
         H           -2.550180010136     0.673997949316     0.839057204446     1.007825032230
         H            3.155635989864    -0.707561050684     0.044036204446     1.007825032230
         H            2.416710989864     0.675396949316     0.914685204446     1.007825032230
         H            2.444093989864     0.667380949316    -0.861476795554     1.007825032230

  Basis Set: AUG-CC-PVTZ
    Blend: AUG-CC-PVTZ
  Basis Set: (AUG-CC-PVTZ AUX)
    Blend: AUG-CC-PVTZ-JKFIT
	 Reference Energy          =    -305.9845806542577975 [Eh]
	 Singles Energy            =      -0.0000000000000000 [Eh]
	 Same-Spin Energy          =      -0.2972836612645883 [Eh]
	 Opposite-Spin Energy      =      -0.9765612401180388 [Eh]
	 Correlation Energy        =      -1.2738449013826272 [Eh]
	 Total Energy              =    -307.2584255556404287 [Eh]

	 ================> DF-SCS-MP2 Energies <==================
	-----------------------------------------------------------
	 SCS Same-Spin Scale       =       0.3333333333333333 [-]
	 SCS Opposite-Spin Scale   =       1.2000000000000000 [-]
	 SCS Same-Spin Energy      =      -0.0990945537548628 [Eh]
	 SCS Opposite-Spin Energy  =      -1.1718734881416466 [Eh]
	 SCS Correlation Energy    =      -1.2709680418965092 [Eh]
	 SCS Total Energy          =    -307.2555486961542783 [Eh]
	-----------------------------------------------------------

  Dipole Moment: [D]
     X:     0.2441      Y:    -1.4130      Z:     0.0501     Total:     1.4348

*** Psi4 exiting successfully. Buy a developer a beer!
