                               Psi4 1.3.2 release

  ==> Input File <==

--------------------------------------------------------------------------
#psi4
#
memory 32 gb

molecule  {
0 1
  O        1.1347230    -0.7035620     0.0192210
  O        0.0419040     1.2849720    -0.0032760
  C       -1.2206870    -0.7926310    -0.0174520
  C       -2.4959880     0.0348800    -0.0353530
  C        0.1825666    -0.0472891     0.0030154
  C        2.3639990     0.0443740     0.0345400
  H       -1.1558060    -1.4513950    -0.8901140
  H       -1.1802510    -1.4521290     0.8560270
  H       -2.5275640     0.6780870    -0.9162870
  H       -3.3724930    -0.6172840    -0.0483470
  H       -2.5529900     0.6769780     0.8451350
  H        3.1528260    -0.7045810     0.0501140
  H        2.4139010     0.6783770     0.9207630
  H        2.4412840     0.6703610    -0.8553990
units angstrom
no_reorient  #important for SAPT in psi4, default
symmetry c1  #important for SAPT in psi4, default
}

set PROPERTIES_ORIGIN ["COM"]
properties('MP2/aug-cc-pvtz', properties = ['dipole'])
--------------------------------------------------------------------------

    Molecular point group: c1
  Charge       = 0
  Multiplicity = 1
  Basis Set: AUG-CC-PVTZ
    Blend: AUG-CC-PVTZ
  Basis Set: (AUG-CC-PVTZ AUX)
    Blend: AUG-CC-PVTZ-JKFIT

    Orbital Energies [Eh]
    ---------------------

    Doubly Occupied:

       1A    -20.654388     2A    -20.505645     3A    -11.376658
       4A    -11.311968     5A    -11.239805     6A    -11.211148
       7A     -1.568034     8A     -1.276215     9A     -1.060213
      10A     -1.011894    11A     -0.869180    12A     -0.817592
      13A     -0.731528    14A     -0.718115    15A     -0.662831
      16A     -0.612166    17A     -0.584871    18A     -0.559381
      19A     -0.555036    20A     -0.519765    21A     -0.490065
      22A     -0.483089    23A     -0.426562    24A     -0.406407

  @DF-RHF Final Energy:  -305.92593942375078

   => Energetics <=

    Nuclear Repulsion Energy =            245.8861259963938153
    One-Electron Energy =                -904.3190159841789182
    Two-Electron Energy =                 352.5069505640342982
    Total Energy =                       -305.9259394237507763
  Basis Set: (AUG-CC-PVTZ AUX)
    Blend: AUG-CC-PVTZ-RI
    Molecular point group: c1

    Geometry (in Angstrom), charge = 0, multiplicity = 1:

       Center              X                  Y                   Z               Mass
    ------------   -----------------  -----------------  -----------------  -----------------
         O            1.112283182348    -0.688095279112     0.018838983087    15.994914619570
         O            0.019464182348     1.300438720888    -0.003658016913    15.994914619570
         C           -1.243126817652    -0.777164279112    -0.017834016913    12.000000000000
         C           -2.518427817652     0.050346720888    -0.035735016913    12.000000000000
         C            0.160126782348    -0.031822379112     0.002633383087    12.000000000000
         C            2.341559182348     0.059840720888     0.034157983087    12.000000000000
         H           -1.178245817652    -1.435928279112    -0.890496016913     1.007825032230
         H           -1.202690817652    -1.436662279112     0.855644983087     1.007825032230
         H           -2.550003817652     0.693553720888    -0.916669016913     1.007825032230
         H           -3.394932817652    -0.601817279112    -0.048729016913     1.007825032230
         H           -2.575429817652     0.692444720888     0.844752983087     1.007825032230
         H            3.130386182348    -0.689114279112     0.049731983087     1.007825032230
         H            2.391461182348     0.693843720888     0.920380983087     1.007825032230
         H            2.418844182348     0.685827720888    -0.855781016913     1.007825032230

  Basis Set: AUG-CC-PVTZ
    Blend: AUG-CC-PVTZ
  Basis Set: (AUG-CC-PVTZ AUX)
    Blend: AUG-CC-PVTZ-JKFIT
	 Reference Energy          =    -305.9259394237507763 [Eh]
	 Singles Energy            =      -0.0000000000000000 [Eh]
	 Same-Spin Energy          =      -0.2983110473418975 [Eh]
	 Opposite-Spin Energy      =      -0.9776734851246569 [Eh]
	 Correlation Energy        =      -1.2759845324665544 [Eh]
	 Total Energy              =    -307.2019239562173425 [Eh]

	 ================> DF-SCS-MP2 Energies <==================
	-----------------------------------------------------------
	 SCS Same-Spin Scale       =       0.3333333333333333 [-]
	 SCS Opposite-Spin Scale   =       1.2000000000000000 [-]
	 SCS Same-Spin Energy      =      -0.0994370157806325 [Eh]
	 SCS Opposite-Spin Energy  =      -1.1732081821495883 [Eh]
	 SCS Correlation Energy    =      -1.2726451979302209 [Eh]
	 SCS Total Energy          =    -307.1985846216809932 [Eh]
	-----------------------------------------------------------

  Dipole Moment: [D]
     X:     2.0205      Y:    -2.4247      Z:     0.0356     Total:     3.1564

*** Psi4 exiting successfully. Buy a developer a beer!
