                               Psi4 1.3.2 release

  ==> Input File <==

--------------------------------------------------------------------------
#psi4
#
memory 32 gb

molecule  {
0 1
  O        1.1347230    -0.7035620     0.0192210
  O        0.0419040     1.2849720    -0.0032760
  C       -1.2206870    -0.7926310    -0.0174520
  C       -2.4959880     0.0348800    -0.0353530
  C       -0.0642629     0.0092237    -0.0009589
  C        2.3639990     0.0443740     0.0345400
  H       -1.1558060    -1.4513950    -0.8901140
  H       -1.1802510    -1.4521290     0.8560270
  H       -2.5275640     0.6780870    -0.9162870
  H       -3.3724930    -0.6172840    -0.0483470
  H       -2.5529900     0.6769780     0.8451350
  H        3.1528260    -0.7045810     0.0501140
  H        2.4139010     0.6783770     0.9207630
  H        2.4412840     0.6703610    -0.8553990
units angstrom
no_reorient  #important for SAPT in psi4, default
symmetry c1  #important for SAPT in psi4, default
}

set PROPERTIES_ORIGIN ["COM"]
properties('MP2/aug-cc-pvtz', properties = ['dipole'])
--------------------------------------------------------------------------

    Molecular point group: c1
  Charge       = 0
  Multiplicity = 1
  Basis Set: AUG-CC-PVTZ
    Blend: AUG-CC-PVTZ
  Basis Set: (AUG-CC-PVTZ AUX)
    Blend: AUG-CC-PVTZ-JKFIT

    Orbital Energies [Eh]
    ---------------------

    Doubly Occupied:

       1A    -20.595763     2A    -20.540861     3A    -11.388336
       4A    -11.280160     5A    -11.250212     6A    -11.227419
       7A     -1.428542     8A     -1.316588     9A     -1.094054
      10A     -0.968602    11A     -0.894138    12A     -0.758039
      13A     -0.702765    14A     -0.673463    15A     -0.654271
      16A     -0.624826    17A     -0.597351    18A     -0.536185
      19A     -0.533269    20A     -0.531923    21A     -0.514114
      22A     -0.493194    23A     -0.447655    24A     -0.446957

  @DF-RHF Final Energy:  -305.96418616412598

   => Energetics <=

    Nuclear Repulsion Energy =            244.5411935042689890
    One-Electron Energy =                -902.0133908847933526
    Two-Electron Energy =                 351.5080112163983586
    Total Energy =                       -305.9641861641259766
  Basis Set: (AUG-CC-PVTZ AUX)
    Blend: AUG-CC-PVTZ-RI
    Molecular point group: c1

    Geometry (in Angstrom), charge = 0, multiplicity = 1:

       Center              X                  Y                   Z               Mass
    ------------   -----------------  -----------------  -----------------  -----------------
         O            1.145921709041    -0.695796981426     0.019380610391    15.994914619570
         O            0.053102709041     1.292737018574    -0.003116389609    15.994914619570
         C           -1.209488290959    -0.784865981426    -0.017292389609    12.000000000000
         C           -2.484789290959     0.042645018574    -0.035193389609    12.000000000000
         C           -0.053064190959     0.016988718574    -0.000799289609    12.000000000000
         C            2.375197709041     0.052139018574     0.034699610391    12.000000000000
         H           -1.144607290959    -1.443629981426    -0.889954389609     1.007825032230
         H           -1.169052290959    -1.444363981426     0.856186610391     1.007825032230
         H           -2.516365290959     0.685852018574    -0.916127389609     1.007825032230
         H           -3.361294290959    -0.609518981426    -0.048187389609     1.007825032230
         H           -2.541791290959     0.684743018574     0.845294610391     1.007825032230
         H            3.164024709041    -0.696815981426     0.050273610391     1.007825032230
         H            2.425099709041     0.686142018574     0.920922610391     1.007825032230
         H            2.452482709041     0.678126018574    -0.855239389609     1.007825032230

  Basis Set: AUG-CC-PVTZ
    Blend: AUG-CC-PVTZ
  Basis Set: (AUG-CC-PVTZ AUX)
    Blend: AUG-CC-PVTZ-JKFIT
	 Reference Energy          =    -305.9641861641259766 [Eh]
	 Singles Energy            =      -0.0000000000000000 [Eh]
	 Same-Spin Energy          =      -0.2999503422612446 [Eh]
	 Opposite-Spin Energy      =      -0.9813251023402609 [Eh]
	 Correlation Energy        =      -1.2812754446015056 [Eh]
	 Total Energy              =    -307.2454616087275099 [Eh]

	 ================> DF-SCS-MP2 Energies <==================
	-----------------------------------------------------------
	 SCS Same-Spin Scale       =       0.3333333333333333 [-]
	 SCS Opposite-Spin Scale   =       1.2000000000000000 [-]
	 SCS Same-Spin Energy      =      -0.0999834474204149 [Eh]
	 SCS Opposite-Spin Energy  =      -1.1775901228083130 [Eh]
	 SCS Correlation Energy    =      -1.2775735702287279 [Eh]
	 SCS Total Energy          =    -307.2417597343547300 [Eh]
	-----------------------------------------------------------

  Dipole Moment: [D]
     X:    -0.0941      Y:    -1.8306      Z:     0.0014     Total:     1.8330

*** Psi4 exiting successfully. Buy a developer a beer!
