                               Psi4 1.3.2 release

  ==> Input File <==

--------------------------------------------------------------------------
#psi4
#
memory 32 gb

molecule  {
0 1
  O        1.1160613    -0.6704282     0.0842572
  O        0.0419040     1.2849720    -0.0032760
  C       -1.2206870    -0.7926310    -0.0174520
  C       -2.4959880     0.0348800    -0.0353530
  C        0.0179090     0.0662010     0.0002130
  C        2.3639990     0.0443740     0.0345400
  H       -1.1558060    -1.4513950    -0.8901140
  H       -1.1802510    -1.4521290     0.8560270
  H       -2.5275640     0.6780870    -0.9162870
  H       -3.3724930    -0.6172840    -0.0483470
  H       -2.5529900     0.6769780     0.8451350
  H        3.1528260    -0.7045810     0.0501140
  H        2.3627513     0.6582256     0.9362195
  H        2.4412840     0.6703610    -0.8553990
units angstrom
no_reorient  #important for SAPT in psi4, default
symmetry c1  #important for SAPT in psi4, default
}

set PROPERTIES_ORIGIN ["COM"]
properties('MP2/aug-cc-pvtz', properties = ['dipole'])
--------------------------------------------------------------------------

    Molecular point group: c1
  Charge       = 0
  Multiplicity = 1
  Basis Set: AUG-CC-PVTZ
    Blend: AUG-CC-PVTZ
  Basis Set: (AUG-CC-PVTZ AUX)
    Blend: AUG-CC-PVTZ-JKFIT

    Orbital Energies [Eh]
    ---------------------

    Doubly Occupied:

       1A    -20.603081     2A    -20.537954     3A    -11.374364
       4A    -11.287141     5A    -11.243790     6A    -11.219034
       7A     -1.463960     8A     -1.350072     9A     -1.065690
      10A     -0.977795    11A     -0.876555    12A     -0.768389
      13A     -0.699364    14A     -0.682901    15A     -0.669602
      16A     -0.620274    17A     -0.600542    18A     -0.541032
      19A     -0.537655    20A     -0.522624    21A     -0.514107
      22A     -0.495032    23A     -0.459209    24A     -0.445103

  @DF-RHF Final Energy:  -305.98644633431792

   => Energetics <=

    Nuclear Repulsion Energy =            245.9937490737598296
    One-Electron Energy =                -904.8498487170382987
    Two-Electron Energy =                 352.8696533089604941
    Total Energy =                       -305.9864463343179182
  Basis Set: (AUG-CC-PVTZ AUX)
    Blend: AUG-CC-PVTZ-RI
    Molecular point group: c1

    Geometry (in Angstrom), charge = 0, multiplicity = 1:

       Center              X                  Y                   Z               Mass
    ------------   -----------------  -----------------  -----------------  -----------------
         O            1.120036806258    -0.676216365858     0.072266223293    15.994914619570
         O            0.045879506258     1.279183834142    -0.015266976707    15.994914619570
         C           -1.216711493742    -0.798419165858    -0.029442976707    12.000000000000
         C           -2.492012493742     0.029091834142    -0.047343976707    12.000000000000
         C            0.021884506258     0.060412834142    -0.011777976707    12.000000000000
         C            2.367974506258     0.038585834142     0.022549023293    12.000000000000
         H           -1.151830493742    -1.457183165858    -0.902104976707     1.007825032230
         H           -1.176275493742    -1.457917165858     0.844036023293     1.007825032230
         H           -2.523588493742     0.672298834142    -0.928277976707     1.007825032230
         H           -3.368517493742    -0.623072165858    -0.060337976707     1.007825032230
         H           -2.549014493742     0.671189834142     0.833144023293     1.007825032230
         H            3.156801506258    -0.710369165858     0.038123023293     1.007825032230
         H            2.366726806258     0.652437434142     0.924228523293     1.007825032230
         H            2.445259506258     0.664572834142    -0.867389976707     1.007825032230

  Basis Set: AUG-CC-PVTZ
    Blend: AUG-CC-PVTZ
  Basis Set: (AUG-CC-PVTZ AUX)
    Blend: AUG-CC-PVTZ-JKFIT
	 Reference Energy          =    -305.9864463343179182 [Eh]
	 Singles Energy            =      -0.0000000000000000 [Eh]
	 Same-Spin Energy          =      -0.2970108865145386 [Eh]
	 Opposite-Spin Energy      =      -0.9753340944451491 [Eh]
	 Correlation Energy        =      -1.2723449809596876 [Eh]
	 Total Energy              =    -307.2587913152776196 [Eh]

	 ================> DF-SCS-MP2 Energies <==================
	-----------------------------------------------------------
	 SCS Same-Spin Scale       =       0.3333333333333333 [-]
	 SCS Opposite-Spin Scale   =       1.2000000000000000 [-]
	 SCS Same-Spin Energy      =      -0.0990036288381795 [Eh]
	 SCS Opposite-Spin Energy  =      -1.1704009133341788 [Eh]
	 SCS Correlation Energy    =      -1.2694045421723583 [Eh]
	 SCS Total Energy          =    -307.2558508764902854 [Eh]
	-----------------------------------------------------------

  Dipole Moment: [D]
     X:     0.6259      Y:    -1.7015      Z:    -0.0778     Total:     1.8146

*** Psi4 exiting successfully. Buy a developer a beer!
