                               Psi4 1.3.2 release

  ==> Input File <==

--------------------------------------------------------------------------
#psi4
#
memory 32 gb

molecule  {
0 1
  O        1.1347230    -0.7035620     0.0192210
  O        0.0419040     1.2849720    -0.0032760
  C       -1.2206870    -0.7926310    -0.0174520
  C       -2.4959880     0.0348800    -0.0353530
  C        0.0315130     0.0855775     0.0003435
  C        2.3507609     0.0657154     0.0342718
  H       -1.1558060    -1.4513950    -0.8901140
  H       -1.1802510    -1.4521290     0.8560270
  H       -2.5275640     0.6780870    -0.9162870
  H       -3.3724930    -0.6172840    -0.0483470
  H       -2.5529900     0.6769780     0.8451350
  H        3.1528260    -0.7045810     0.0501140
  H        2.4139010     0.6783770     0.9207630
  H        2.4412840     0.6703610    -0.8553990
units angstrom
no_reorient  #important for SAPT in psi4, default
symmetry c1  #important for SAPT in psi4, default
}

set PROPERTIES_ORIGIN ["COM"]
properties('MP2/aug-cc-pvtz', properties = ['dipole'])
--------------------------------------------------------------------------

    Molecular point group: c1
  Charge       = 0
  Multiplicity = 1
  Basis Set: AUG-CC-PVTZ
    Blend: AUG-CC-PVTZ
  Basis Set: (AUG-CC-PVTZ AUX)
    Blend: AUG-CC-PVTZ-JKFIT

    Orbital Energies [Eh]
    ---------------------

    Doubly Occupied:

       1A    -20.604487     2A    -20.547889     3A    -11.377070
       4A    -11.284148     5A    -11.243878     6A    -11.218987
       7A     -1.459493     8A     -1.363933     9A     -1.060980
      10A     -0.969956    11A     -0.873808    12A     -0.768625
      13A     -0.700278    14A     -0.679701    15A     -0.670860
      16A     -0.619987    17A     -0.596446    18A     -0.544714
      19A     -0.533371    20A     -0.522064    21A     -0.520913
      22A     -0.496282    23A     -0.467650    24A     -0.445834

  @DF-RHF Final Energy:  -305.98628492364196

   => Energetics <=

    Nuclear Repulsion Energy =            245.3573201834223880
    One-Electron Energy =                -903.5444993636135678
    Two-Electron Energy =                 352.2008942565491907
    Total Energy =                       -305.9862849236419606
  Basis Set: (AUG-CC-PVTZ AUX)
    Blend: AUG-CC-PVTZ-RI
    Molecular point group: c1

    Geometry (in Angstrom), charge = 0, multiplicity = 1:

       Center              X                  Y                   Z               Mass
    ------------   -----------------  -----------------  -----------------  -----------------
         O            1.134673256208    -0.709111121725     0.019239667091    15.994914619570
         O            0.041854256208     1.279422878275    -0.003257332909    15.994914619570
         C           -1.220736743792    -0.798180121725    -0.017433332909    12.000000000000
         C           -2.496037743792     0.029330878275    -0.035334332909    12.000000000000
         C            0.031463256208     0.080028378275     0.000362167091    12.000000000000
         C            2.350711156208     0.060166278275     0.034290467091    12.000000000000
         H           -1.155855743792    -1.456944121725    -0.890095332909     1.007825032230
         H           -1.180300743792    -1.457678121725     0.856045667091     1.007825032230
         H           -2.527613743792     0.672537878275    -0.916268332909     1.007825032230
         H           -3.372542743792    -0.622833121725    -0.048328332909     1.007825032230
         H           -2.553039743792     0.671428878275     0.845153667091     1.007825032230
         H            3.152776256208    -0.710130121725     0.050132667091     1.007825032230
         H            2.413851256208     0.672827878275     0.920781667091     1.007825032230
         H            2.441234256208     0.664811878275    -0.855380332909     1.007825032230

  Basis Set: AUG-CC-PVTZ
    Blend: AUG-CC-PVTZ
  Basis Set: (AUG-CC-PVTZ AUX)
    Blend: AUG-CC-PVTZ-JKFIT
	 Reference Energy          =    -305.9862849236419606 [Eh]
	 Singles Energy            =      -0.0000000000000000 [Eh]
	 Same-Spin Energy          =      -0.2970138530860941 [Eh]
	 Opposite-Spin Energy      =      -0.9759491047732530 [Eh]
	 Correlation Energy        =      -1.2729629578593471 [Eh]
	 Total Energy              =    -307.2592478815013237 [Eh]

	 ================> DF-SCS-MP2 Energies <==================
	-----------------------------------------------------------
	 SCS Same-Spin Scale       =       0.3333333333333333 [-]
	 SCS Opposite-Spin Scale   =       1.2000000000000000 [-]
	 SCS Same-Spin Energy      =      -0.0990046176953647 [Eh]
	 SCS Opposite-Spin Energy  =      -1.1711389257279037 [Eh]
	 SCS Correlation Energy    =      -1.2701435434232684 [Eh]
	 SCS Total Energy          =    -307.2564284670652341 [Eh]
	-----------------------------------------------------------

  Dipole Moment: [D]
     X:     0.4856      Y:    -1.4279      Z:     0.0095     Total:     1.5083

*** Psi4 exiting successfully. Buy a developer a beer!
