                               Psi4 1.3.2 release

  ==> Input File <==

--------------------------------------------------------------------------
#psi4
#
memory 32 gb

molecule  {
0 1
  O        1.1347230    -0.7035620     0.0192210
  O        0.0419040     1.2849720    -0.0032760
  C       -1.2206870    -0.7926310    -0.0174520
  C       -2.4959880     0.0348800    -0.0353530
  C        0.0198774     0.1661812    -0.0000732
  C        2.3639990     0.0443740     0.0345400
  H       -1.1558060    -1.4513950    -0.8901140
  H       -1.1802510    -1.4521290     0.8560270
  H       -2.5275640     0.6780870    -0.9162870
  H       -3.3724930    -0.6172840    -0.0483470
  H       -2.5529900     0.6769780     0.8451350
  H        3.1528260    -0.7045810     0.0501140
  H        2.4139010     0.6783770     0.9207630
  H        2.4412840     0.6703610    -0.8553990
units angstrom
no_reorient  #important for SAPT in psi4, default
symmetry c1  #important for SAPT in psi4, default
}

set PROPERTIES_ORIGIN ["COM"]
properties('MP2/aug-cc-pvtz', properties = ['dipole'])
--------------------------------------------------------------------------

    Molecular point group: c1
  Charge       = 0
  Multiplicity = 1
  Basis Set: AUG-CC-PVTZ
    Blend: AUG-CC-PVTZ
  Basis Set: (AUG-CC-PVTZ AUX)
    Blend: AUG-CC-PVTZ-JKFIT

    Orbital Energies [Eh]
    ---------------------

    Doubly Occupied:

       1A    -20.587289     2A    -20.564069     3A    -11.370878
       4A    -11.276519     5A    -11.242317     6A    -11.218348
       7A     -1.488338     8A     -1.373392     9A     -1.053941
      10A     -0.955591    11A     -0.865623    12A     -0.761983
      13A     -0.713335    14A     -0.679165    15A     -0.674421
      16A     -0.615108    17A     -0.601082    18A     -0.563270
      19A     -0.542136    20A     -0.524268    21A     -0.516402
      22A     -0.500500    23A     -0.463515    24A     -0.437916

  @DF-RHF Final Energy:  -305.97321777982586

   => Energetics <=

    Nuclear Repulsion Energy =            245.5799176318148227
    One-Electron Energy =                -903.9274588694681825
    Two-Electron Energy =                 352.3743234578274723
    Total Energy =                       -305.9732177798258590
  Basis Set: (AUG-CC-PVTZ AUX)
    Blend: AUG-CC-PVTZ-RI
    Molecular point group: c1

    Geometry (in Angstrom), charge = 0, multiplicity = 1:

       Center              X                  Y                   Z               Mass
    ------------   -----------------  -----------------  -----------------  -----------------
         O            1.134454863597    -0.717187532610     0.019259905033    15.994914619570
         O            0.041635863597     1.271346467390    -0.003237094967    15.994914619570
         C           -1.220955136403    -0.806256532610    -0.017413094967    12.000000000000
         C           -2.496256136403     0.021254467390    -0.035314094967    12.000000000000
         C            0.019609263597     0.152555667390    -0.000034294967    12.000000000000
         C            2.363730863597     0.030748467390     0.034578905033    12.000000000000
         H           -1.156074136403    -1.465020532610    -0.890075094967     1.007825032230
         H           -1.180519136403    -1.465754532610     0.856065905033     1.007825032230
         H           -2.527832136403     0.664461467390    -0.916248094967     1.007825032230
         H           -3.372761136403    -0.630909532610    -0.048308094967     1.007825032230
         H           -2.553258136403     0.663352467390     0.845173905033     1.007825032230
         H            3.152557863597    -0.718206532610     0.050152905033     1.007825032230
         H            2.413632863597     0.664751467390     0.920801905033     1.007825032230
         H            2.441015863597     0.656735467390    -0.855360094967     1.007825032230

  Basis Set: AUG-CC-PVTZ
    Blend: AUG-CC-PVTZ
  Basis Set: (AUG-CC-PVTZ AUX)
    Blend: AUG-CC-PVTZ-JKFIT
	 Reference Energy          =    -305.9732177798258590 [Eh]
	 Singles Energy            =      -0.0000000000000000 [Eh]
	 Same-Spin Energy          =      -0.2958185812303646 [Eh]
	 Opposite-Spin Energy      =      -0.9738961922029434 [Eh]
	 Correlation Energy        =      -1.2697147734333081 [Eh]
	 Total Energy              =    -307.2429325532591520 [Eh]

	 ================> DF-SCS-MP2 Energies <==================
	-----------------------------------------------------------
	 SCS Same-Spin Scale       =       0.3333333333333333 [-]
	 SCS Opposite-Spin Scale   =       1.2000000000000000 [-]
	 SCS Same-Spin Energy      =      -0.0986061937434549 [Eh]
	 SCS Opposite-Spin Energy  =      -1.1686754306435321 [Eh]
	 SCS Correlation Energy    =      -1.2672816243869869 [Eh]
	 SCS Total Energy          =    -307.2404994042128692 [Eh]
	-----------------------------------------------------------

  Dipole Moment: [D]
     X:     0.2054      Y:    -0.9149      Z:     0.0040     Total:     0.9377

*** Psi4 exiting successfully. Buy a developer a beer!
