                               Psi4 1.3.2 release

  ==> Input File <==

--------------------------------------------------------------------------
#psi4
#
memory 32 gb

molecule  {
0 1
  O        1.1567541    -0.7346458    -0.0457732
  O        0.0419040     1.2849720    -0.0032760
  C       -1.2206870    -0.7926310    -0.0174520
  C       -2.4959880     0.0348800    -0.0353530
  C        0.0179090     0.0662010     0.0002130
  C        2.3639990     0.0443740     0.0345400
  H       -1.1558060    -1.4513950    -0.8901140
  H       -1.1802510    -1.4521290     0.8560270
  H       -2.5275640     0.6780870    -0.9162870
  H       -3.3724930    -0.6172840    -0.0483470
  H       -2.5529900     0.6769780     0.8451350
  H        3.1528260    -0.7045810     0.0501140
  H        2.4649139     0.6967907     0.9028774
  H        2.4412840     0.6703610    -0.8553990
units angstrom
no_reorient  #important for SAPT in psi4, default
symmetry c1  #important for SAPT in psi4, default
}

set PROPERTIES_ORIGIN ["COM"]
properties('MP2/aug-cc-pvtz', properties = ['dipole'])
--------------------------------------------------------------------------

    Molecular point group: c1
  Charge       = 0
  Multiplicity = 1
  Basis Set: AUG-CC-PVTZ
    Blend: AUG-CC-PVTZ
  Basis Set: (AUG-CC-PVTZ AUX)
    Blend: AUG-CC-PVTZ-JKFIT

    Orbital Energies [Eh]
    ---------------------

    Doubly Occupied:

       1A    -20.604060     2A    -20.552357     3A    -11.384447
       4A    -11.281246     5A    -11.247226     6A    -11.221751
       7A     -1.444372     8A     -1.354619     9A     -1.066860
      10A     -0.965203    11A     -0.879427    12A     -0.764954
      13A     -0.700068    14A     -0.671677    15A     -0.665677
      16A     -0.619819    17A     -0.597909    18A     -0.538275
      19A     -0.534807    20A     -0.525842    21A     -0.522321
      22A     -0.496996    23A     -0.463508    24A     -0.449422

  @DF-RHF Final Energy:  -305.98095077187713

   => Energetics <=

    Nuclear Repulsion Energy =            244.0664472951243908
    One-Electron Energy =                -900.9891107202860212
    Two-Electron Energy =                 350.9417126532845259
    Total Energy =                       -305.9809507718771329
  Basis Set: (AUG-CC-PVTZ AUX)
    Blend: AUG-CC-PVTZ-RI
    Molecular point group: c1

    Geometry (in Angstrom), charge = 0, multiplicity = 1:

       Center              X                  Y                   Z               Mass
    ------------   -----------------  -----------------  -----------------  -----------------
         O            1.152168344614    -0.729210105692    -0.033762247844    15.994914619570
         O            0.037318244614     1.290407694308     0.008734952156    15.994914619570
         C           -1.225272755386    -0.787195305692    -0.005441047844    12.000000000000
         C           -2.500573755386     0.040315694308    -0.023342047844    12.000000000000
         C            0.013323244614     0.071636694308     0.012223952156    12.000000000000
         C            2.359413244614     0.049809694308     0.046550952156    12.000000000000
         H           -1.160391755386    -1.445959305692    -0.878103047844     1.007825032230
         H           -1.184836755386    -1.446693305692     0.868037952156     1.007825032230
         H           -2.532149755386     0.683522694308    -0.904276047844     1.007825032230
         H           -3.377078755386    -0.611848305692    -0.036336047844     1.007825032230
         H           -2.557575755386     0.682413694308     0.857145952156     1.007825032230
         H            3.148240244614    -0.699145305692     0.062124952156     1.007825032230
         H            2.460328144614     0.702226394308     0.914888352156     1.007825032230
         H            2.436698244614     0.675796694308    -0.843388047844     1.007825032230

  Basis Set: AUG-CC-PVTZ
    Blend: AUG-CC-PVTZ
  Basis Set: (AUG-CC-PVTZ AUX)
    Blend: AUG-CC-PVTZ-JKFIT
	 Reference Energy          =    -305.9809507718771329 [Eh]
	 Singles Energy            =      -0.0000000000000000 [Eh]
	 Same-Spin Energy          =      -0.2980088351535243 [Eh]
	 Opposite-Spin Energy      =      -0.9783676614149648 [Eh]
	 Correlation Energy        =      -1.2763764965684889 [Eh]
	 Total Energy              =    -307.2573272684456356 [Eh]

	 ================> DF-SCS-MP2 Energies <==================
	-----------------------------------------------------------
	 SCS Same-Spin Scale       =       0.3333333333333333 [-]
	 SCS Opposite-Spin Scale   =       1.2000000000000000 [-]
	 SCS Same-Spin Energy      =      -0.0993362783845081 [Eh]
	 SCS Opposite-Spin Energy  =      -1.1740411936979578 [Eh]
	 SCS Correlation Energy    =      -1.2733774720824660 [Eh]
	 SCS Total Energy          =    -307.2543282439596055 [Eh]
	-----------------------------------------------------------

  Dipole Moment: [D]
     X:     0.2262      Y:    -1.4242      Z:     0.0988     Total:     1.4454

*** Psi4 exiting successfully. Buy a developer a beer!
