                               Psi4 1.3.2 release

  ==> Input File <==

--------------------------------------------------------------------------
#psi4
#
memory 32 gb

molecule  {
0 1
  O        1.1734757    -0.6440492     0.0197086
  O        0.0419040     1.2849720    -0.0032760
  C       -1.2639299    -0.7266245    -0.0182602
  C       -2.4959880     0.0348800    -0.0353530
  C        0.0179090     0.0662010     0.0002130
  C        2.3639990     0.0443740     0.0345400
  H       -1.1558060    -1.4513950    -0.8901140
  H       -1.1802510    -1.4521290     0.8560270
  H       -2.5275640     0.6780870    -0.9162870
  H       -3.3724930    -0.6172840    -0.0483470
  H       -2.5529900     0.6769780     0.8451350
  H        3.1528260    -0.7045810     0.0501140
  H        2.4139010     0.6783770     0.9207630
  H        2.4412840     0.6703610    -0.8553990
units angstrom
no_reorient  #important for SAPT in psi4, default
symmetry c1  #important for SAPT in psi4, default
}

set PROPERTIES_ORIGIN ["COM"]
properties('MP2/aug-cc-pvtz', properties = ['dipole'])
--------------------------------------------------------------------------

    Molecular point group: c1
  Charge       = 0
  Multiplicity = 1
  Basis Set: AUG-CC-PVTZ
    Blend: AUG-CC-PVTZ
  Basis Set: (AUG-CC-PVTZ AUX)
    Blend: AUG-CC-PVTZ-JKFIT

    Orbital Energies [Eh]
    ---------------------

    Doubly Occupied:

       1A    -20.600943     2A    -20.541275     3A    -11.380961
       4A    -11.278008     5A    -11.255006     6A    -11.220422
       7A     -1.465074     8A     -1.356021     9A     -1.079113
      10A     -0.981676    11A     -0.877734    12A     -0.768589
      13A     -0.702870    14A     -0.683414    15A     -0.673252
      16A     -0.622370    17A     -0.608829    18A     -0.557666
      19A     -0.536612    20A     -0.530019    21A     -0.510140
      22A     -0.480205    23A     -0.455393    24A     -0.445289

  @DF-RHF Final Energy:  -305.97751698425213

   => Energetics <=

    Nuclear Repulsion Energy =            246.3993378814920732
    One-Electron Energy =                -905.5319479154502460
    Two-Electron Energy =                 353.1550930497060108
    Total Energy =                       -305.9775169842521336
  Basis Set: (AUG-CC-PVTZ AUX)
    Blend: AUG-CC-PVTZ-RI
    Molecular point group: c1

    Geometry (in Angstrom), charge = 0, multiplicity = 1:

       Center              X                  Y                   Z               Mass
    ------------   -----------------  -----------------  -----------------  -----------------
         O            1.172329557979    -0.663855342933     0.019730070871    15.994914619570
         O            0.040757857979     1.265165857067    -0.003254529129    15.994914619570
         C           -1.265076042021    -0.746430642933    -0.018238729129    12.000000000000
         C           -2.497134142021     0.015073857067    -0.035331529129    12.000000000000
         C            0.016762857979     0.046394857067     0.000234470871    12.000000000000
         C            2.362852857979     0.024567857067     0.034561470871    12.000000000000
         H           -1.156952142021    -1.471201142933    -0.890092529129     1.007825032230
         H           -1.181397142021    -1.471935142933     0.856048470871     1.007825032230
         H           -2.528710142021     0.658280857067    -0.916265529129     1.007825032230
         H           -3.373639142021    -0.637090142933    -0.048325529129     1.007825032230
         H           -2.554136142021     0.657171857067     0.845156470871     1.007825032230
         H            3.151679857979    -0.724387142933     0.050135470871     1.007825032230
         H            2.412754857979     0.658570857067     0.920784470871     1.007825032230
         H            2.440137857979     0.650554857067    -0.855377529129     1.007825032230

  Basis Set: AUG-CC-PVTZ
    Blend: AUG-CC-PVTZ
  Basis Set: (AUG-CC-PVTZ AUX)
    Blend: AUG-CC-PVTZ-JKFIT
	 Reference Energy          =    -305.9775169842521336 [Eh]
	 Singles Energy            =      -0.0000000000000000 [Eh]
	 Same-Spin Energy          =      -0.2975745091679651 [Eh]
	 Opposite-Spin Energy      =      -0.9754018329544198 [Eh]
	 Correlation Energy        =      -1.2729763421223850 [Eh]
	 Total Energy              =    -307.2504933263745102 [Eh]

	 ================> DF-SCS-MP2 Energies <==================
	-----------------------------------------------------------
	 SCS Same-Spin Scale       =       0.3333333333333333 [-]
	 SCS Opposite-Spin Scale   =       1.2000000000000000 [-]
	 SCS Same-Spin Energy      =      -0.0991915030559884 [Eh]
	 SCS Opposite-Spin Energy  =      -1.1704821995453039 [Eh]
	 SCS Correlation Energy    =      -1.2696737026012923 [Eh]
	 SCS Total Energy          =    -307.2471906868534006 [Eh]
	-----------------------------------------------------------

  Dipole Moment: [D]
     X:     0.1360      Y:    -1.7127      Z:     0.0050     Total:     1.7181

*** Psi4 exiting successfully. Buy a developer a beer!
