                               Psi4 1.3.2 release

  ==> Input File <==

--------------------------------------------------------------------------
#psi4
#
memory 32 gb

molecule  {
0 1
  O        1.1347230    -0.7035620     0.0192210
  O        0.0419040     1.2849720    -0.0032760
  C       -1.2206870    -0.7926310    -0.0174520
  C       -2.4959880     0.0348800    -0.0353530
  C        0.0139722    -0.1337594     0.0007854
  C        2.3639990     0.0443740     0.0345400
  H       -1.1558060    -1.4513950    -0.8901140
  H       -1.1802510    -1.4521290     0.8560270
  H       -2.5275640     0.6780870    -0.9162870
  H       -3.3724930    -0.6172840    -0.0483470
  H       -2.5529900     0.6769780     0.8451350
  H        3.1528260    -0.7045810     0.0501140
  H        2.4139010     0.6783770     0.9207630
  H        2.4412840     0.6703610    -0.8553990
units angstrom
no_reorient  #important for SAPT in psi4, default
symmetry c1  #important for SAPT in psi4, default
}

set PROPERTIES_ORIGIN ["COM"]
properties('MP2/aug-cc-pvtz', properties = ['dipole'])
--------------------------------------------------------------------------

    Molecular point group: c1
  Charge       = 0
  Multiplicity = 1
  Basis Set: AUG-CC-PVTZ
    Blend: AUG-CC-PVTZ
  Basis Set: (AUG-CC-PVTZ AUX)
    Blend: AUG-CC-PVTZ-JKFIT

    Orbital Energies [Eh]
    ---------------------

    Doubly Occupied:

       1A    -20.631865     2A    -20.503359     3A    -11.389158
       4A    -11.299478     5A    -11.250368     6A    -11.224639
       7A     -1.492653     8A     -1.239205     9A     -1.092958
      10A     -1.002129    11A     -0.904754    12A     -0.784875
      13A     -0.698823    14A     -0.698511    15A     -0.675491
      16A     -0.630829    17A     -0.579133    18A     -0.551670
      19A     -0.540563    20A     -0.533723    21A     -0.500338
      22A     -0.481472    23A     -0.415446    24A     -0.406006

  @DF-RHF Final Energy:  -305.92165117361748

   => Energetics <=

    Nuclear Repulsion Energy =            244.6851162570008000
    One-Electron Energy =                -902.1586457050516401
    Two-Electron Energy =                 351.5518782744333635
    Total Energy =                       -305.9216511736174766
  Basis Set: (AUG-CC-PVTZ AUX)
    Blend: AUG-CC-PVTZ-RI
    Molecular point group: c1

    Geometry (in Angstrom), charge = 0, multiplicity = 1:

       Center              X                  Y                   Z               Mass
    ------------   -----------------  -----------------  -----------------  -----------------
         O            1.135259638666    -0.676310895581     0.019142892930    15.994914619570
         O            0.042440638666     1.312223104419    -0.003354107070    15.994914619570
         C           -1.220150361334    -0.765379895581    -0.017530107070    12.000000000000
         C           -2.495451361334     0.062131104419    -0.035431107070    12.000000000000
         C            0.014508838666    -0.106508295581     0.000707292930    12.000000000000
         C            2.364535638666     0.071625104419     0.034461892930    12.000000000000
         H           -1.155269361334    -1.424143895581    -0.890192107070     1.007825032230
         H           -1.179714361334    -1.424877895581     0.855948892930     1.007825032230
         H           -2.527027361334     0.705338104419    -0.916365107070     1.007825032230
         H           -3.371956361334    -0.590032895581    -0.048425107070     1.007825032230
         H           -2.552453361334     0.704229104419     0.845056892930     1.007825032230
         H            3.153362638666    -0.677329895581     0.050035892930     1.007825032230
         H            2.414437638666     0.705628104419     0.920684892930     1.007825032230
         H            2.441820638666     0.697612104419    -0.855477107070     1.007825032230

  Basis Set: AUG-CC-PVTZ
    Blend: AUG-CC-PVTZ
  Basis Set: (AUG-CC-PVTZ AUX)
    Blend: AUG-CC-PVTZ-JKFIT
	 Reference Energy          =    -305.9216511736174766 [Eh]
	 Singles Energy            =      -0.0000000000000000 [Eh]
	 Same-Spin Energy          =      -0.3015405137721195 [Eh]
	 Opposite-Spin Energy      =      -0.9837703022549642 [Eh]
	 Correlation Energy        =      -1.2853108160270836 [Eh]
	 Total Energy              =    -307.2069619896445829 [Eh]

	 ================> DF-SCS-MP2 Energies <==================
	-----------------------------------------------------------
	 SCS Same-Spin Scale       =       0.3333333333333333 [-]
	 SCS Opposite-Spin Scale   =       1.2000000000000000 [-]
	 SCS Same-Spin Energy      =      -0.1005135045907065 [Eh]
	 SCS Opposite-Spin Energy  =      -1.1805243627059570 [Eh]
	 SCS Correlation Energy    =      -1.2810378672966634 [Eh]
	 SCS Total Energy          =    -307.2026890409141515 [Eh]
	-----------------------------------------------------------

  Dipole Moment: [D]
     X:     0.8554      Y:    -2.6814      Z:     0.0181     Total:     2.8146

*** Psi4 exiting successfully. Buy a developer a beer!
