                               Psi4 1.3.2 release

  ==> Input File <==

--------------------------------------------------------------------------
#psi4
#
memory 32 gb

molecule  {
0 1
  O        1.1347230    -0.7035620     0.0192210
  O        0.0844183     1.2833943    -0.0025707
  C       -1.1899659    -0.8353383    -0.0168099
  C       -2.4959880     0.0348800    -0.0353530
  C        0.0179090     0.0662010     0.0002130
  C        2.3639990     0.0443740     0.0345400
  H       -1.1558060    -1.4513950    -0.8901140
  H       -1.1802510    -1.4521290     0.8560270
  H       -2.5275640     0.6780870    -0.9162870
  H       -3.3724930    -0.6172840    -0.0483470
  H       -2.5529900     0.6769780     0.8451350
  H        3.1528260    -0.7045810     0.0501140
  H        2.4139010     0.6783770     0.9207630
  H        2.4412840     0.6703610    -0.8553990
units angstrom
no_reorient  #important for SAPT in psi4, default
symmetry c1  #important for SAPT in psi4, default
}

set PROPERTIES_ORIGIN ["COM"]
properties('MP2/aug-cc-pvtz', properties = ['dipole'])
--------------------------------------------------------------------------

    Molecular point group: c1
  Charge       = 0
  Multiplicity = 1
  Basis Set: AUG-CC-PVTZ
    Blend: AUG-CC-PVTZ
  Basis Set: (AUG-CC-PVTZ AUX)
    Blend: AUG-CC-PVTZ-JKFIT

    Orbital Energies [Eh]
    ---------------------

    Doubly Occupied:

       1A    -20.600115     2A    -20.545915     3A    -11.379609
       4A    -11.281865     5A    -11.245321     6A    -11.223466
       7A     -1.454313     8A     -1.350252     9A     -1.063542
      10A     -0.968259    11A     -0.879178    12A     -0.767426
      13A     -0.700409    14A     -0.677767    15A     -0.667735
      16A     -0.623456    17A     -0.597124    18A     -0.538038
      19A     -0.533991    20A     -0.522065    21A     -0.508775
      22A     -0.506653    23A     -0.460577    24A     -0.449904

  @DF-RHF Final Energy:  -305.98334658313308

   => Energetics <=

    Nuclear Repulsion Energy =            244.8891105516821654
    One-Electron Energy =                -902.6534014890328308
    Two-Electron Energy =                 351.7809443542175813
    Total Energy =                       -305.9833465831330841
  Basis Set: (AUG-CC-PVTZ AUX)
    Blend: AUG-CC-PVTZ-RI
    Molecular point group: c1

    Geometry (in Angstrom), charge = 0, multiplicity = 1:

       Center              X                  Y                   Z               Mass
    ------------   -----------------  -----------------  -----------------  -----------------
         O            1.122813560745    -0.697455139231     0.019005274770    15.994914619570
         O            0.072508860745     1.289501160769    -0.002786425230    15.994914619570
         C           -1.201875339255    -0.829231439231    -0.017025625230    12.000000000000
         C           -2.507897439255     0.040986860769    -0.035568725230    12.000000000000
         C            0.005999560745     0.072307860769    -0.000002725230    12.000000000000
         C            2.352089560745     0.050480860769     0.034324274770    12.000000000000
         H           -1.167715439255    -1.445288139231    -0.890329725230     1.007825032230
         H           -1.192160439255    -1.446022139231     0.855811274770     1.007825032230
         H           -2.539473439255     0.684193860769    -0.916502725230     1.007825032230
         H           -3.384402439255    -0.611177139231    -0.048562725230     1.007825032230
         H           -2.564899439255     0.683084860769     0.844919274770     1.007825032230
         H            3.140916560745    -0.698474139231     0.049898274770     1.007825032230
         H            2.401991560745     0.684483860769     0.920547274770     1.007825032230
         H            2.429374560745     0.676467860769    -0.855614725230     1.007825032230

  Basis Set: AUG-CC-PVTZ
    Blend: AUG-CC-PVTZ
  Basis Set: (AUG-CC-PVTZ AUX)
    Blend: AUG-CC-PVTZ-JKFIT
	 Reference Energy          =    -305.9833465831330841 [Eh]
	 Singles Energy            =      -0.0000000000000000 [Eh]
	 Same-Spin Energy          =      -0.2973181134375147 [Eh]
	 Opposite-Spin Energy      =      -0.9767622070220743 [Eh]
	 Correlation Energy        =      -1.2740803204595890 [Eh]
	 Total Energy              =    -307.2574269035926591 [Eh]

	 ================> DF-SCS-MP2 Energies <==================
	-----------------------------------------------------------
	 SCS Same-Spin Scale       =       0.3333333333333333 [-]
	 SCS Opposite-Spin Scale   =       1.2000000000000000 [-]
	 SCS Same-Spin Energy      =      -0.0991060378125049 [Eh]
	 SCS Opposite-Spin Energy  =      -1.1721146484264890 [Eh]
	 SCS Correlation Energy    =      -1.2712206862389939 [Eh]
	 SCS Total Energy          =    -307.2545672693721031 [Eh]
	-----------------------------------------------------------

  Dipole Moment: [D]
     X:     0.3313      Y:    -1.5736      Z:     0.0075     Total:     1.6081

*** Psi4 exiting successfully. Buy a developer a beer!
