                               Psi4 1.3.2 release

  ==> Input File <==

--------------------------------------------------------------------------
#psi4
#
memory 32 gb

molecule  {
0 1
  O        1.1347230    -0.7035620     0.0192210
  O        0.0419040     1.2849720    -0.0032760
  C       -1.2206870    -0.7926310    -0.0174520
  C       -2.4959880     0.0348800    -0.0353530
  C       -0.1464347    -0.0477536    -0.0021309
  C        2.3639990     0.0443740     0.0345400
  H       -1.1558060    -1.4513950    -0.8901140
  H       -1.1802510    -1.4521290     0.8560270
  H       -2.5275640     0.6780870    -0.9162870
  H       -3.3724930    -0.6172840    -0.0483470
  H       -2.5529900     0.6769780     0.8451350
  H        3.1528260    -0.7045810     0.0501140
  H        2.4139010     0.6783770     0.9207630
  H        2.4412840     0.6703610    -0.8553990
units angstrom
no_reorient  #important for SAPT in psi4, default
symmetry c1  #important for SAPT in psi4, default
}

set PROPERTIES_ORIGIN ["COM"]
properties('MP2/aug-cc-pvtz', properties = ['dipole'])
--------------------------------------------------------------------------

    Molecular point group: c1
  Charge       = 0
  Multiplicity = 1
  Basis Set: AUG-CC-PVTZ
    Blend: AUG-CC-PVTZ
  Basis Set: (AUG-CC-PVTZ AUX)
    Blend: AUG-CC-PVTZ-JKFIT

    Orbital Energies [Eh]
    ---------------------

    Doubly Occupied:

       1A    -20.586471     2A    -20.535700     3A    -11.396745
       4A    -11.275448     5A    -11.253086     6A    -11.235639
       7A     -1.403068     8A     -1.282208     9A     -1.128925
      10A     -0.967594    11A     -0.906412    12A     -0.753256
      13A     -0.706255    14A     -0.680197    15A     -0.642329
      16A     -0.623194    17A     -0.591698    18A     -0.547953
      19A     -0.537449    20A     -0.536811    21A     -0.498608
      22A     -0.482580    23A     -0.436575    24A     -0.430564

  @DF-RHF Final Energy:  -305.90896422152900

   => Energetics <=

    Nuclear Repulsion Energy =            244.1756854353089921
    One-Electron Energy =                -901.2917740754338638
    Two-Electron Energy =                 351.2071244185958676
    Total Energy =                       -305.9089642215290041
  Basis Set: (AUG-CC-PVTZ AUX)
    Blend: AUG-CC-PVTZ-RI
    Molecular point group: c1

    Geometry (in Angstrom), charge = 0, multiplicity = 1:

       Center              X                  Y                   Z               Mass
    ------------   -----------------  -----------------  -----------------  -----------------
         O            1.157120282500    -0.688031975918     0.019540333412    15.994914619570
         O            0.064301282500     1.300502024082    -0.002956666588    15.994914619570
         C           -1.198289717500    -0.777100975918    -0.017132666588    12.000000000000
         C           -2.473590717500     0.050410024082    -0.035033666588    12.000000000000
         C           -0.124037417500    -0.032223575918    -0.001811566588    12.000000000000
         C            2.386396282500     0.059904024082     0.034859333412    12.000000000000
         H           -1.133408717500    -1.435864975918    -0.889794666588     1.007825032230
         H           -1.157853717500    -1.436598975918     0.856346333412     1.007825032230
         H           -2.505166717500     0.693617024082    -0.915967666588     1.007825032230
         H           -3.350095717500    -0.601753975918    -0.048027666588     1.007825032230
         H           -2.530592717500     0.692508024082     0.845454333412     1.007825032230
         H            3.175223282500    -0.689050975918     0.050433333412     1.007825032230
         H            2.436298282500     0.693907024082     0.921082333412     1.007825032230
         H            2.463681282500     0.685891024082    -0.855079666588     1.007825032230

  Basis Set: AUG-CC-PVTZ
    Blend: AUG-CC-PVTZ
  Basis Set: (AUG-CC-PVTZ AUX)
    Blend: AUG-CC-PVTZ-JKFIT
	 Reference Energy          =    -305.9089642215290041 [Eh]
	 Singles Energy            =      -0.0000000000000000 [Eh]
	 Same-Spin Energy          =      -0.3036115587160027 [Eh]
	 Opposite-Spin Energy      =      -0.9880382041819283 [Eh]
	 Correlation Energy        =      -1.2916497628979311 [Eh]
	 Total Energy              =    -307.2006139844269228 [Eh]

	 ================> DF-SCS-MP2 Energies <==================
	-----------------------------------------------------------
	 SCS Same-Spin Scale       =       0.3333333333333333 [-]
	 SCS Opposite-Spin Scale   =       1.2000000000000000 [-]
	 SCS Same-Spin Energy      =      -0.1012038529053342 [Eh]
	 SCS Opposite-Spin Energy  =      -1.1856458450183140 [Eh]
	 SCS Correlation Energy    =      -1.2868496979236483 [Eh]
	 SCS Total Energy          =    -307.1958139194526325 [Eh]
	-----------------------------------------------------------

  Dipole Moment: [D]
     X:    -0.6741      Y:    -2.0783      Z:    -0.0071     Total:     2.1849

*** Psi4 exiting successfully. Buy a developer a beer!
