                               Psi4 1.3.2 release

  ==> Input File <==

--------------------------------------------------------------------------
#psi4
#
memory 32 gb

molecule  {
0 1
  O        1.1347230    -0.7035620     0.0192210
  O        0.0419040     1.2849720    -0.0032760
  C       -1.2206870    -0.7926310    -0.0174520
  C       -2.4959880     0.0348800    -0.0353530
  C        0.0046452     0.0465900     0.0000882
  C        2.3768626     0.0228048     0.0348036
  H       -1.1558060    -1.4513950    -0.8901140
  H       -1.1802510    -1.4521290     0.8560270
  H       -2.5275640     0.6780870    -0.9162870
  H       -3.3724930    -0.6172840    -0.0483470
  H       -2.5529900     0.6769780     0.8451350
  H        3.1528260    -0.7045810     0.0501140
  H        2.4139010     0.6783770     0.9207630
  H        2.4412840     0.6703610    -0.8553990
units angstrom
no_reorient  #important for SAPT in psi4, default
symmetry c1  #important for SAPT in psi4, default
}

set PROPERTIES_ORIGIN ["COM"]
properties('MP2/aug-cc-pvtz', properties = ['dipole'])
--------------------------------------------------------------------------

    Molecular point group: c1
  Charge       = 0
  Multiplicity = 1
  Basis Set: AUG-CC-PVTZ
    Blend: AUG-CC-PVTZ
  Basis Set: (AUG-CC-PVTZ AUX)
    Blend: AUG-CC-PVTZ-JKFIT

    Orbital Energies [Eh]
    ---------------------

    Doubly Occupied:

       1A    -20.603486     2A    -20.541980     3A    -11.381468
       4A    -11.284840     5A    -11.246509     6A    -11.221535
       7A     -1.449310     8A     -1.341334     9A     -1.071445
      10A     -0.973706    11A     -0.881977    12A     -0.765201
      13A     -0.699559    14A     -0.674863    15A     -0.665614
      16A     -0.620064    17A     -0.603029    18A     -0.537756
      19A     -0.533683    20A     -0.526606    21A     -0.517641
      22A     -0.494793    23A     -0.456364    24A     -0.448078

  @DF-RHF Final Energy:  -305.98306580154218

   => Energetics <=

    Nuclear Repulsion Energy =            244.7921301222024795
    One-Electron Energy =                -902.4687068300139572
    Two-Electron Energy =                 351.6935109062692959
    Total Energy =                       -305.9830658015421818
  Basis Set: (AUG-CC-PVTZ AUX)
    Blend: AUG-CC-PVTZ-RI
    Molecular point group: c1

    Geometry (in Angstrom), charge = 0, multiplicity = 1:

       Center              X                  Y                   Z               Mass
    ------------   -----------------  -----------------  -----------------  -----------------
         O            1.134777662186    -0.697949848770     0.019201984996    15.994914619570
         O            0.041958662186     1.290584151230    -0.003295015004    15.994914619570
         C           -1.220632337814    -0.787018848770    -0.017471015004    12.000000000000
         C           -2.495933337814     0.040492151230    -0.035372015004    12.000000000000
         C            0.004699862186     0.052202151230     0.000069184996    12.000000000000
         C            2.376917262186     0.028416951230     0.034784584996    12.000000000000
         H           -1.155751337814    -1.445782848770    -0.890133015004     1.007825032230
         H           -1.180196337814    -1.446516848770     0.856007984996     1.007825032230
         H           -2.527509337814     0.683699151230    -0.916306015004     1.007825032230
         H           -3.372438337814    -0.611671848770    -0.048366015004     1.007825032230
         H           -2.552935337814     0.682590151230     0.845115984996     1.007825032230
         H            3.152880662186    -0.698968848770     0.050094984996     1.007825032230
         H            2.413955662186     0.683989151230     0.920743984996     1.007825032230
         H            2.441338662186     0.675973151230    -0.855418015004     1.007825032230

  Basis Set: AUG-CC-PVTZ
    Blend: AUG-CC-PVTZ
  Basis Set: (AUG-CC-PVTZ AUX)
    Blend: AUG-CC-PVTZ-JKFIT
	 Reference Energy          =    -305.9830658015421818 [Eh]
	 Singles Energy            =      -0.0000000000000000 [Eh]
	 Same-Spin Energy          =      -0.2979008075953314 [Eh]
	 Opposite-Spin Energy      =      -0.9774801823783920 [Eh]
	 Correlation Energy        =      -1.2753809899737234 [Eh]
	 Total Energy              =    -307.2584467915158939 [Eh]

	 ================> DF-SCS-MP2 Energies <==================
	-----------------------------------------------------------
	 SCS Same-Spin Scale       =       0.3333333333333333 [-]
	 SCS Opposite-Spin Scale   =       1.2000000000000000 [-]
	 SCS Same-Spin Energy      =      -0.0993002691984438 [Eh]
	 SCS Opposite-Spin Energy  =      -1.1729762188540702 [Eh]
	 SCS Correlation Energy    =      -1.2722764880525141 [Eh]
	 SCS Total Energy          =    -307.2553422895946937 [Eh]
	-----------------------------------------------------------

  Dipole Moment: [D]
     X:     0.4048      Y:    -1.6970      Z:     0.0090     Total:     1.7446

*** Psi4 exiting successfully. Buy a developer a beer!
