                               Psi4 1.3.2 release

  ==> Input File <==

--------------------------------------------------------------------------
#psi4
#
memory 32 gb

molecule  {
0 1
  O        1.1347230    -0.7035620     0.0192210
  O        0.0419040     1.2849720    -0.0032760
  C       -1.2206870    -0.7926310    -0.0174520
  C       -2.4959880     0.0348800    -0.0353530
  C        0.0179090     0.0662010     0.0002130
  C        2.5348487     0.1483251     0.0366691
  H       -1.1558060    -1.4513950    -0.8901140
  H       -1.1802510    -1.4521290     0.8560270
  H       -2.5275640     0.6780870    -0.9162870
  H       -3.3724930    -0.6172840    -0.0483470
  H       -2.5529900     0.6769780     0.8451350
  H        3.1528260    -0.7045810     0.0501140
  H        2.4139010     0.6783770     0.9207630
  H        2.4412840     0.6703610    -0.8553990
units angstrom
no_reorient  #important for SAPT in psi4, default
symmetry c1  #important for SAPT in psi4, default
}

set PROPERTIES_ORIGIN ["COM"]
properties('MP2/aug-cc-pvtz', properties = ['dipole'])
--------------------------------------------------------------------------

    Molecular point group: c1
  Charge       = 0
  Multiplicity = 1
  Basis Set: AUG-CC-PVTZ
    Blend: AUG-CC-PVTZ
  Basis Set: (AUG-CC-PVTZ AUX)
    Blend: AUG-CC-PVTZ-JKFIT

    Orbital Energies [Eh]
    ---------------------

    Doubly Occupied:

       1A    -20.583073     2A    -20.533206     3A    -11.367151
       4A    -11.296351     5A    -11.237630     6A    -11.214768
       7A     -1.420634     8A     -1.323091     9A     -1.056011
      10A     -0.978846    11A     -0.877795    12A     -0.744612
      13A     -0.688488    14A     -0.668270    15A     -0.641309
      16A     -0.625672    17A     -0.606982    18A     -0.553706
      19A     -0.546265    20A     -0.515956    21A     -0.491349
      22A     -0.490844    23A     -0.454396    24A     -0.435394

  @DF-RHF Final Energy:  -305.95919549885082

   => Energetics <=

    Nuclear Repulsion Energy =            241.8545036582128205
    One-Electron Energy =                -896.9238005979384525
    Two-Electron Energy =                 349.1101014408748142
    Total Energy =                       -305.9591954988508178
  Basis Set: (AUG-CC-PVTZ AUX)
    Blend: AUG-CC-PVTZ-RI
    Molecular point group: c1

    Geometry (in Angstrom), charge = 0, multiplicity = 1:

       Center              X                  Y                   Z               Mass
    ------------   -----------------  -----------------  -----------------  -----------------
         O            1.111439307847    -0.717728696553     0.018930742055    15.994914619570
         O            0.018620307847     1.270805303447    -0.003566257945    15.994914619570
         C           -1.243970692153    -0.806797696553    -0.017742257945    12.000000000000
         C           -2.519271692153     0.020713303447    -0.035643257945    12.000000000000
         C           -0.005374692153     0.052034303447    -0.000077257945    12.000000000000
         C            2.511565007847     0.134158403447     0.036378842055    12.000000000000
         H           -1.179089692153    -1.465561696553    -0.890404257945     1.007825032230
         H           -1.203534692153    -1.466295696553     0.855736742055     1.007825032230
         H           -2.550847692153     0.663920303447    -0.916577257945     1.007825032230
         H           -3.395776692153    -0.631450696553    -0.048637257945     1.007825032230
         H           -2.576273692153     0.662811303447     0.844844742055     1.007825032230
         H            3.129542307847    -0.718747696553     0.049823742055     1.007825032230
         H            2.390617307847     0.664210303447     0.920472742055     1.007825032230
         H            2.418000307847     0.656194303447    -0.855689257945     1.007825032230

  Basis Set: AUG-CC-PVTZ
    Blend: AUG-CC-PVTZ
  Basis Set: (AUG-CC-PVTZ AUX)
    Blend: AUG-CC-PVTZ-JKFIT
	 Reference Energy          =    -305.9591954988508178 [Eh]
	 Singles Energy            =      -0.0000000000000000 [Eh]
	 Same-Spin Energy          =      -0.2981328479486445 [Eh]
	 Opposite-Spin Energy      =      -0.9799470628167763 [Eh]
	 Correlation Energy        =      -1.2780799107654208 [Eh]
	 Total Energy              =    -307.2372754096162453 [Eh]

	 ================> DF-SCS-MP2 Energies <==================
	-----------------------------------------------------------
	 SCS Same-Spin Scale       =       0.3333333333333333 [-]
	 SCS Opposite-Spin Scale   =       1.2000000000000000 [-]
	 SCS Same-Spin Energy      =      -0.0993776159828815 [Eh]
	 SCS Opposite-Spin Energy  =      -1.1759364753801316 [Eh]
	 SCS Correlation Energy    =      -1.2753140913630130 [Eh]
	 SCS Total Energy          =    -307.2345095902138041 [Eh]
	-----------------------------------------------------------

  Dipole Moment: [D]
     X:     1.0897      Y:    -1.3961      Z:     0.0180     Total:     1.7711

*** Psi4 exiting successfully. Buy a developer a beer!
