                               Psi4 1.4a3.dev225

  ==> Input File <==

--------------------------------------------------------------------------
#psi4
#
memory 32 gb

molecule  {
0 1
  O        1.1455950    -0.7206100    -0.0000020
  O        0.1065970     1.2988430     0.0000060
  C       -1.2145750    -0.7450000     0.0000080
  C       -2.4678730     0.1187130    -0.0000080
  C        0.0895945     0.0505368     0.0000028
  C        2.3963290    -0.0041190    -0.0000040
  H       -1.1806580    -1.4052490    -0.8737030
  H       -1.1806650    -1.4052230     0.8737390
  H       -2.4946670     0.7625720    -0.8811910
  H       -3.3622150    -0.5096080    -0.0000470
  H       -2.4947180     0.7625340     0.8812010
  H        3.1644210    -0.7750410    -0.0000210
  H        2.4762030     0.6232120     0.8890930
  H        2.4761870     0.6232350    -0.8890870
units angstrom
no_reorient  #important for SAPT in psi4, default
symmetry c1  #important for SAPT in psi4, default
}

set PROPERTIES_ORIGIN ["COM"]
properties('MP2/aug-cc-pvtz', properties = ['dipole'])
--------------------------------------------------------------------------

    Molecular point group: c1
  Charge       = 0
  Multiplicity = 1
  Basis Set: AUG-CC-PVTZ
    Blend: AUG-CC-PVTZ
  Basis Set: (AUG-CC-PVTZ AUX)
    Blend: AUG-CC-PVTZ-JKFIT

    Orbital Energies [Eh]
    ---------------------

    Doubly Occupied:

       1A    -20.616846     2A    -20.535789     3A    -11.379520
       4A    -11.291391     5A    -11.244209     6A    -11.218302
       7A     -1.471345     8A     -1.338555     9A     -1.060686
      10A     -0.982426    11A     -0.875943    12A     -0.777009
      13A     -0.694419    14A     -0.685779    15A     -0.671975
      16A     -0.618684    17A     -0.593648    18A     -0.541663
      19A     -0.539249    20A     -0.523707    21A     -0.513831
      22A     -0.493725    23A     -0.458420    24A     -0.440487

  @DF-RHF Final Energy:  -305.98276844914687

   => Energetics <=

    Nuclear Repulsion Energy =            244.9406321870110617
    One-Electron Energy =                -902.7115863815380408
    Two-Electron Energy =                 351.7881857453801331
    Total Energy =                       -305.9827684491468744
  Basis Set: (AUG-CC-PVTZ AUX)
    Blend: AUG-CC-PVTZ-RI
    Molecular point group: c1

    Geometry (in Angstrom), charge = 0, multiplicity = 1:

       Center              X                  Y                   Z               Mass
    ------------   -----------------  -----------------  -----------------  -----------------
         O            1.110911306606    -0.731472075112    -0.000002379938    15.994914619570
         O            0.071913306606     1.287980924888     0.000005620062    15.994914619570
         C           -1.249258693394    -0.755862075112     0.000007620062    12.000000000000
         C           -2.502556693394     0.107850924888    -0.000008379938    12.000000000000
         C            0.054910806606     0.039674724888     0.000002420062    12.000000000000
         C            2.361645306606    -0.014981075112    -0.000004379938    12.000000000000
         H           -1.215341693394    -1.416111075112    -0.873703379938     1.007825032230
         H           -1.215348693394    -1.416085075112     0.873738620062     1.007825032230
         H           -2.529350693394     0.751709924888    -0.881191379938     1.007825032230
         H           -3.396898693394    -0.520470075112    -0.000047379938     1.007825032230
         H           -2.529401693394     0.751671924888     0.881200620062     1.007825032230
         H            3.129737306606    -0.785903075112    -0.000021379938     1.007825032230
         H            2.441519306606     0.612349924888     0.889092620062     1.007825032230
         H            2.441503306606     0.612372924888    -0.889087379938     1.007825032230

  Basis Set: AUG-CC-PVTZ
    Blend: AUG-CC-PVTZ
  Basis Set: (AUG-CC-PVTZ AUX)
    Blend: AUG-CC-PVTZ-JKFIT
	 Reference Energy          =    -305.9827684491468744 [Eh]
	 Singles Energy            =      -0.0000000000000000 [Eh]
	 Same-Spin Energy          =      -0.2975425398112264 [Eh]
	 Opposite-Spin Energy      =      -0.9768522724402701 [Eh]
	 Correlation Energy        =      -1.2743948122514965 [Eh]
	 Total Energy              =    -307.2571632613983752 [Eh]

	 ================> DF-SCS-MP2 Energies <==================
	-----------------------------------------------------------
	 SCS Same-Spin Scale       =       0.3333333333333333 [-]
	 SCS Opposite-Spin Scale   =       1.2000000000000000 [-]
	 SCS Same-Spin Energy      =      -0.0991808466037421 [Eh]
	 SCS Opposite-Spin Energy  =      -1.1722227269283241 [Eh]
	 SCS Correlation Energy    =      -1.2714035735320661 [Eh]
	 SCS Total Energy          =    -307.2541720226789153 [Eh]
	-----------------------------------------------------------

  Dipole Moment: [D]
     X:     0.8025      Y:    -1.7877      Z:    -0.0000     Total:     1.9596

*** Psi4 exiting successfully. Buy a developer a beer!
