                               Psi4 1.3.2 release

  ==> Input File <==

--------------------------------------------------------------------------
#psi4
#
memory 32 gb

molecule  {
0 1
  O        1.1416951    -0.7141554    -0.0024572
  O        0.0419040     1.2849720    -0.0032760
  C       -1.2206870    -0.7926310    -0.0174520
  C       -2.4959880     0.0348800    -0.0353530
  C        0.0179090     0.0662010     0.0002130
  C        2.3639990     0.0443740     0.0345400
  H       -1.1558060    -1.4513950    -0.8901140
  H       -1.1802510    -1.4521290     0.8560270
  H       -2.5275640     0.6780870    -0.9162870
  H       -3.3724930    -0.6172840    -0.0483470
  H       -2.5529900     0.6769780     0.8451350
  H        3.1528260    -0.7045810     0.0501140
  H        2.4309274     0.6847106     0.9150688
  H        2.4412840     0.6703610    -0.8553990
units angstrom
no_reorient  #important for SAPT in psi4, default
symmetry c1  #important for SAPT in psi4, default
}

set PROPERTIES_ORIGIN ["COM"]
properties('MP2/aug-cc-pvtz', properties = ['dipole'])
--------------------------------------------------------------------------

    Molecular point group: c1
  Charge       = 0
  Multiplicity = 1
  Basis Set: AUG-CC-PVTZ
    Blend: AUG-CC-PVTZ
  Basis Set: (AUG-CC-PVTZ AUX)
    Blend: AUG-CC-PVTZ-JKFIT

    Orbital Energies [Eh]
    ---------------------

    Doubly Occupied:

       1A    -20.604036     2A    -20.547360     3A    -11.380903
       4A    -11.283333     5A    -11.245879     6A    -11.220725
       7A     -1.450648     8A     -1.353586     9A     -1.066308
      10A     -0.969595    11A     -0.878298    12A     -0.766255
      13A     -0.699751    14A     -0.675067    15A     -0.667214
      16A     -0.620005    17A     -0.599017    18A     -0.538350
      19A     -0.535442    20A     -0.525004    21A     -0.520584
      22A     -0.496185    23A     -0.462779    24A     -0.448328

  @DF-RHF Final Energy:  -305.98523765569638

   => Energetics <=

    Nuclear Repulsion Energy =            244.7405765178880870
    One-Electron Energy =                -902.3423292772130253
    Two-Electron Energy =                 351.6165151036285010
    Total Energy =                       -305.9852376556963804
  Basis Set: (AUG-CC-PVTZ AUX)
    Blend: AUG-CC-PVTZ-RI
    Molecular point group: c1

    Geometry (in Angstrom), charge = 0, multiplicity = 1:

       Center              X                  Y                   Z               Mass
    ------------   -----------------  -----------------  -----------------  -----------------
         O            1.140233845168    -0.712303565594     0.001545767325    15.994914619570
         O            0.040442745168     1.286823834406     0.000726967325    15.994914619570
         C           -1.222148254832    -0.790779165594    -0.013449032675    12.000000000000
         C           -2.497449254832     0.036731834406    -0.031350032675    12.000000000000
         C            0.016447745168     0.068052834406     0.004215967325    12.000000000000
         C            2.362537745168     0.046225834406     0.038542967325    12.000000000000
         H           -1.157267254832    -1.449543165594    -0.886111032675     1.007825032230
         H           -1.181712254832    -1.450277165594     0.860029967325     1.007825032230
         H           -2.529025254832     0.679938834406    -0.912284032675     1.007825032230
         H           -3.373954254832    -0.615432165594    -0.044344032675     1.007825032230
         H           -2.554451254832     0.678829834406     0.849137967325     1.007825032230
         H            3.151364745168    -0.702729165594     0.054116967325     1.007825032230
         H            2.429466145168     0.686562434406     0.919071767325     1.007825032230
         H            2.439822745168     0.672212834406    -0.851396032675     1.007825032230

  Basis Set: AUG-CC-PVTZ
    Blend: AUG-CC-PVTZ
  Basis Set: (AUG-CC-PVTZ AUX)
    Blend: AUG-CC-PVTZ-JKFIT
	 Reference Energy          =    -305.9852376556963804 [Eh]
	 Singles Energy            =      -0.0000000000000000 [Eh]
	 Same-Spin Energy          =      -0.2975865255718402 [Eh]
	 Opposite-Spin Energy      =      -0.9771481931006277 [Eh]
	 Correlation Energy        =      -1.2747347186724680 [Eh]
	 Total Energy              =    -307.2599723743688287 [Eh]

	 ================> DF-SCS-MP2 Energies <==================
	-----------------------------------------------------------
	 SCS Same-Spin Scale       =       0.3333333333333333 [-]
	 SCS Opposite-Spin Scale   =       1.2000000000000000 [-]
	 SCS Same-Spin Energy      =      -0.0991955085239467 [Eh]
	 SCS Opposite-Spin Energy  =      -1.1725778317207531 [Eh]
	 SCS Correlation Energy    =      -1.2717733402446998 [Eh]
	 SCS Total Energy          =    -307.2570109959410729 [Eh]
	-----------------------------------------------------------

  Dipole Moment: [D]
     X:     0.3759      Y:    -1.5174      Z:     0.0388     Total:     1.5637

*** Psi4 exiting successfully. Buy a developer a beer!
