                               Psi4 1.3.2 release

  ==> Input File <==

--------------------------------------------------------------------------
#psi4
#
memory 32 gb

molecule  {
0 1
  O        1.1347230    -0.7035620     0.0192210
  O        0.0419040     1.2849720    -0.0032760
  C       -1.2206870    -0.7926310    -0.0174520
  C       -2.4509362     0.1004966    -0.0347047
  C       -0.0287319     0.1298537    -0.0004361
  C        2.3639990     0.0443740     0.0345400
  H       -1.1558060    -1.4513950    -0.8901140
  H       -1.1802510    -1.4521290     0.8560270
  H       -2.5275640     0.6780870    -0.9162870
  H       -3.3724930    -0.6172840    -0.0483470
  H       -2.5529900     0.6769780     0.8451350
  H        3.1528260    -0.7045810     0.0501140
  H        2.4139010     0.6783770     0.9207630
  H        2.4412840     0.6703610    -0.8553990
units angstrom
no_reorient  #important for SAPT in psi4, default
symmetry c1  #important for SAPT in psi4, default
}

set PROPERTIES_ORIGIN ["COM"]
properties('MP2/aug-cc-pvtz', properties = ['dipole'])
--------------------------------------------------------------------------

    Molecular point group: c1
  Charge       = 0
  Multiplicity = 1
  Basis Set: AUG-CC-PVTZ
    Blend: AUG-CC-PVTZ
  Basis Set: (AUG-CC-PVTZ AUX)
    Blend: AUG-CC-PVTZ-JKFIT

    Orbital Energies [Eh]
    ---------------------

    Doubly Occupied:

       1A    -20.582518     2A    -20.561062     3A    -11.375530
       4A    -11.273870     5A    -11.247945     6A    -11.223597
       7A     -1.463150     8A     -1.358102     9A     -1.069763
      10A     -0.954457    11A     -0.875445    12A     -0.757863
      13A     -0.707307    14A     -0.671802    15A     -0.671124
      16A     -0.623881    17A     -0.597512    18A     -0.556391
      19A     -0.531964    20A     -0.528478    21A     -0.513914
      22A     -0.503210    23A     -0.458033    24A     -0.444725

  @DF-RHF Final Energy:  -305.97274074332250

   => Energetics <=

    Nuclear Repulsion Energy =            245.6179971115489877
    One-Electron Energy =                -904.0781944356224358
    Two-Electron Energy =                 352.4874565807509157
    Total Energy =                       -305.9727407433225039
  Basis Set: (AUG-CC-PVTZ AUX)
    Blend: AUG-CC-PVTZ-RI
    Molecular point group: c1

    Geometry (in Angstrom), charge = 0, multiplicity = 1:

       Center              X                  Y                   Z               Mass
    ------------   -----------------  -----------------  -----------------  -----------------
         O            1.134939688380    -0.721179122643     0.019221010025    15.994914619570
         O            0.042120688380     1.267354877357    -0.003275989975    15.994914619570
         C           -1.220470311620    -0.810248122643    -0.017451989975    12.000000000000
         C           -2.450719511620     0.082879477357    -0.034704689975    12.000000000000
         C           -0.028515211620     0.112236577357    -0.000436089975    12.000000000000
         C            2.364215688380     0.026756877357     0.034540010025    12.000000000000
         H           -1.155589311620    -1.469012122643    -0.890113989975     1.007825032230
         H           -1.180034311620    -1.469746122643     0.856027010025     1.007825032230
         H           -2.527347311620     0.660469877357    -0.916286989975     1.007825032230
         H           -3.372276311620    -0.634901122643    -0.048346989975     1.007825032230
         H           -2.552773311620     0.659360877357     0.845135010025     1.007825032230
         H            3.153042688380    -0.722198122643     0.050114010025     1.007825032230
         H            2.414117688380     0.660759877357     0.920763010025     1.007825032230
         H            2.441500688380     0.652743877357    -0.855398989975     1.007825032230

  Basis Set: AUG-CC-PVTZ
    Blend: AUG-CC-PVTZ
  Basis Set: (AUG-CC-PVTZ AUX)
    Blend: AUG-CC-PVTZ-JKFIT
	 Reference Energy          =    -305.9727407433225039 [Eh]
	 Singles Energy            =      -0.0000000000000000 [Eh]
	 Same-Spin Energy          =      -0.2970930726705878 [Eh]
	 Opposite-Spin Energy      =      -0.9763309606753303 [Eh]
	 Correlation Energy        =      -1.2734240333459181 [Eh]
	 Total Energy              =    -307.2461647766684223 [Eh]

	 ================> DF-SCS-MP2 Energies <==================
	-----------------------------------------------------------
	 SCS Same-Spin Scale       =       0.3333333333333333 [-]
	 SCS Opposite-Spin Scale   =       1.2000000000000000 [-]
	 SCS Same-Spin Energy      =      -0.0990310242235292 [Eh]
	 SCS Opposite-Spin Energy  =      -1.1715971528103963 [Eh]
	 SCS Correlation Energy    =      -1.2706281770339256 [Eh]
	 SCS Total Energy          =    -307.2433689203564313 [Eh]
	-----------------------------------------------------------

  Dipole Moment: [D]
     X:    -0.0892      Y:    -1.1067      Z:     0.0003     Total:     1.1103

*** Psi4 exiting successfully. Buy a developer a beer!
