                               Psi4 1.3.2 release

  ==> Input File <==

--------------------------------------------------------------------------
#psi4
#
memory 32 gb

molecule  {
0 1
  O        1.1347230    -0.7035620     0.0192210
  O        0.0419040     1.2849720    -0.0032760
  C       -1.2206870    -0.7926310    -0.0174520
  C       -2.4959880     0.0348800    -0.0353530
  C        0.0179090     0.0662010     0.0002130
  C        2.2785741    -0.0076016     0.0334755
  H       -1.1558060    -1.4513950    -0.8901140
  H       -1.1802510    -1.4521290     0.8560270
  H       -2.5275640     0.6780870    -0.9162870
  H       -3.3724930    -0.6172840    -0.0483470
  H       -2.5529900     0.6769780     0.8451350
  H        3.1528260    -0.7045810     0.0501140
  H        2.4139010     0.6783770     0.9207630
  H        2.4412840     0.6703610    -0.8553990
units angstrom
no_reorient  #important for SAPT in psi4, default
symmetry c1  #important for SAPT in psi4, default
}

set PROPERTIES_ORIGIN ["COM"]
properties('MP2/aug-cc-pvtz', properties = ['dipole'])
--------------------------------------------------------------------------

    Molecular point group: c1
  Charge       = 0
  Multiplicity = 1
  Basis Set: AUG-CC-PVTZ
    Blend: AUG-CC-PVTZ
  Basis Set: (AUG-CC-PVTZ AUX)
    Blend: AUG-CC-PVTZ-JKFIT

    Orbital Energies [Eh]
    ---------------------

    Doubly Occupied:

       1A    -20.612818     2A    -20.551539     3A    -11.385465
       4A    -11.284747     5A    -11.249198     6A    -11.223029
       7A     -1.481906     8A     -1.368272     9A     -1.072274
      10A     -0.974560    11A     -0.875107    12A     -0.780011
      13A     -0.706379    14A     -0.689092    15A     -0.686855
      16A     -0.622893    17A     -0.607549    18A     -0.532952
      19A     -0.529765    20A     -0.526937    21A     -0.510365
      22A     -0.497129    23A     -0.455502    24A     -0.453898

  @DF-RHF Final Energy:  -305.97779526378577

   => Energetics <=

    Nuclear Repulsion Energy =            246.8683227281150323
    One-Electron Energy =                -906.3357538771789450
    Two-Electron Energy =                 353.4896358852781759
    Total Energy =                       -305.9777952637857652
  Basis Set: (AUG-CC-PVTZ AUX)
    Blend: AUG-CC-PVTZ-RI
    Molecular point group: c1

    Geometry (in Angstrom), charge = 0, multiplicity = 1:

       Center              X                  Y                   Z               Mass
    ------------   -----------------  -----------------  -----------------  -----------------
         O            1.146365035820    -0.696478625310     0.019365973657    15.994914619570
         O            0.053546035820     1.292055374690    -0.003131026343    15.994914619570
         C           -1.209044964180    -0.785547625310    -0.017307026343    12.000000000000
         C           -2.484345964180     0.041963374690    -0.035208026343    12.000000000000
         C            0.029551035820     0.073284374690     0.000357973657    12.000000000000
         C            2.290216135820    -0.000518225310     0.033620473657    12.000000000000
         H           -1.144163964180    -1.444311625310    -0.889969026343     1.007825032230
         H           -1.168608964180    -1.445045625310     0.856171973657     1.007825032230
         H           -2.515921964180     0.685170374690    -0.916142026343     1.007825032230
         H           -3.360850964180    -0.610200625310    -0.048202026343     1.007825032230
         H           -2.541347964180     0.684061374690     0.845279973657     1.007825032230
         H            3.164468035820    -0.697497625310     0.050258973657     1.007825032230
         H            2.425543035820     0.685460374690     0.920907973657     1.007825032230
         H            2.452926035820     0.677444374690    -0.855254026343     1.007825032230

  Basis Set: AUG-CC-PVTZ
    Blend: AUG-CC-PVTZ
  Basis Set: (AUG-CC-PVTZ AUX)
    Blend: AUG-CC-PVTZ-JKFIT
	 Reference Energy          =    -305.9777952637857652 [Eh]
	 Singles Energy            =      -0.0000000000000000 [Eh]
	 Same-Spin Energy          =      -0.2977223632318404 [Eh]
	 Opposite-Spin Energy      =      -0.9760531644228325 [Eh]
	 Correlation Energy        =      -1.2737755276546729 [Eh]
	 Total Energy              =    -307.2515707914404288 [Eh]

	 ================> DF-SCS-MP2 Energies <==================
	-----------------------------------------------------------
	 SCS Same-Spin Scale       =       0.3333333333333333 [-]
	 SCS Opposite-Spin Scale   =       1.2000000000000000 [-]
	 SCS Same-Spin Energy      =      -0.0992407877439468 [Eh]
	 SCS Opposite-Spin Energy  =      -1.1712637973073989 [Eh]
	 SCS Correlation Energy    =      -1.2705045850513457 [Eh]
	 SCS Total Energy          =    -307.2482998488371209 [Eh]
	-----------------------------------------------------------

  Dipole Moment: [D]
     X:     0.0417      Y:    -1.6700      Z:     0.0039     Total:     1.6705

*** Psi4 exiting successfully. Buy a developer a beer!
