                               Psi4 1.3.2 release

  ==> Input File <==

--------------------------------------------------------------------------
#psi4
#
memory 32 gb

molecule  {
0 1
  O        1.0929092    -0.7609649     0.0186813
  O        0.0419040     1.2849720    -0.0032760
  C       -1.1740492    -0.8562835    -0.0165954
  C       -2.4959880     0.0348800    -0.0353530
  C        0.0179090     0.0662010     0.0002130
  C        2.3639990     0.0443740     0.0345400
  H       -1.1558060    -1.4513950    -0.8901140
  H       -1.1802510    -1.4521290     0.8560270
  H       -2.5275640     0.6780870    -0.9162870
  H       -3.3724930    -0.6172840    -0.0483470
  H       -2.5529900     0.6769780     0.8451350
  H        3.1528260    -0.7045810     0.0501140
  H        2.4139010     0.6783770     0.9207630
  H        2.4412840     0.6703610    -0.8553990
units angstrom
no_reorient  #important for SAPT in psi4, default
symmetry c1  #important for SAPT in psi4, default
}

set PROPERTIES_ORIGIN ["COM"]
properties('MP2/aug-cc-pvtz', properties = ['dipole'])
--------------------------------------------------------------------------

    Molecular point group: c1
  Charge       = 0
  Multiplicity = 1
  Basis Set: AUG-CC-PVTZ
    Blend: AUG-CC-PVTZ
  Basis Set: (AUG-CC-PVTZ AUX)
    Blend: AUG-CC-PVTZ-JKFIT

    Orbital Energies [Eh]
    ---------------------

    Doubly Occupied:

       1A    -20.606376     2A    -20.548754     3A    -11.378775
       4A    -11.290992     5A    -11.237678     6A    -11.219604
       7A     -1.445669     8A     -1.350816     9A     -1.055539
      10A     -0.963748    11A     -0.877934    12A     -0.766407
      13A     -0.695308    14A     -0.674173    15A     -0.665063
      16A     -0.620021    17A     -0.589001    18A     -0.543438
      19A     -0.541318    20A     -0.522315    21A     -0.508472
      22A     -0.492336    23A     -0.467561    24A     -0.447633

  @DF-RHF Final Energy:  -305.97268485005497

   => Energetics <=

    Nuclear Repulsion Energy =            243.9141853345056461
    One-Electron Energy =                -900.7558730076735856
    Two-Electron Energy =                 350.8690028231129645
    Total Energy =                       -305.9726848500549750
  Basis Set: (AUG-CC-PVTZ AUX)
    Blend: AUG-CC-PVTZ-RI
    Molecular point group: c1

    Geometry (in Angstrom), charge = 0, multiplicity = 1:

       Center              X                  Y                   Z               Mass
    ------------   -----------------  -----------------  -----------------  -----------------
         O            1.094148976118    -0.741862807706     0.018662499135    15.994914619570
         O            0.043143776118     1.304074092294    -0.003294800865    15.994914619570
         C           -1.172809423882    -0.837181407706    -0.016614200865    12.000000000000
         C           -2.494748223882     0.053982092294    -0.035371800865    12.000000000000
         C            0.019148776118     0.085303092294     0.000194199135    12.000000000000
         C            2.365238776118     0.063476092294     0.034521199135    12.000000000000
         H           -1.154566223882    -1.432292907706    -0.890132800865     1.007825032230
         H           -1.179011223882    -1.433026907706     0.856008199135     1.007825032230
         H           -2.526324223882     0.697189092294    -0.916305800865     1.007825032230
         H           -3.371253223882    -0.598181907706    -0.048365800865     1.007825032230
         H           -2.551750223882     0.696080092294     0.845116199135     1.007825032230
         H            3.154065776118    -0.685478907706     0.050095199135     1.007825032230
         H            2.415140776118     0.697479092294     0.920744199135     1.007825032230
         H            2.442523776118     0.689463092294    -0.855417800865     1.007825032230

  Basis Set: AUG-CC-PVTZ
    Blend: AUG-CC-PVTZ
  Basis Set: (AUG-CC-PVTZ AUX)
    Blend: AUG-CC-PVTZ-JKFIT
	 Reference Energy          =    -305.9726848500549750 [Eh]
	 Singles Energy            =      -0.0000000000000000 [Eh]
	 Same-Spin Energy          =      -0.2980753217480366 [Eh]
	 Opposite-Spin Energy      =      -0.9794654618272611 [Eh]
	 Correlation Energy        =      -1.2775407835752977 [Eh]
	 Total Energy              =    -307.2502256336302935 [Eh]

	 ================> DF-SCS-MP2 Energies <==================
	-----------------------------------------------------------
	 SCS Same-Spin Scale       =       0.3333333333333333 [-]
	 SCS Opposite-Spin Scale   =       1.2000000000000000 [-]
	 SCS Same-Spin Energy      =      -0.0993584405826789 [Eh]
	 SCS Opposite-Spin Energy  =      -1.1753585541927134 [Eh]
	 SCS Correlation Energy    =      -1.2747169947753922 [Eh]
	 SCS Total Energy          =    -307.2474018448303923 [Eh]
	-----------------------------------------------------------

  Dipole Moment: [D]
     X:     0.7271      Y:    -1.4234      Z:     0.0131     Total:     1.5984

*** Psi4 exiting successfully. Buy a developer a beer!
