                               Psi4 1.3.2 release

  ==> Input File <==

--------------------------------------------------------------------------
#psi4
#
memory 32 gb

molecule  {
0 1
  O        1.1347230    -0.7035620     0.0192210
  O        0.0419040     1.2849720    -0.0032760
  C       -1.2206870    -0.7926310    -0.0174520
  C       -2.5094275     0.0114780    -0.0810467
  C        0.0179090     0.0662010     0.0002130
  C        2.3639990     0.0443740     0.0345400
  H       -1.1894299    -1.4377101    -0.9021070
  H       -1.1802510    -1.4521290     0.8560270
  H       -2.5275640     0.6780870    -0.9162870
  H       -3.3724930    -0.6172840    -0.0483470
  H       -2.5529900     0.6769780     0.8451350
  H        3.1528260    -0.7045810     0.0501140
  H        2.4139010     0.6783770     0.9207630
  H        2.4412840     0.6703610    -0.8553990
units angstrom
no_reorient  #important for SAPT in psi4, default
symmetry c1  #important for SAPT in psi4, default
}

set PROPERTIES_ORIGIN ["COM"]
properties('MP2/aug-cc-pvtz', properties = ['dipole'])
--------------------------------------------------------------------------

    Molecular point group: c1
  Charge       = 0
  Multiplicity = 1
  Basis Set: AUG-CC-PVTZ
    Blend: AUG-CC-PVTZ
  Basis Set: (AUG-CC-PVTZ AUX)
    Blend: AUG-CC-PVTZ-JKFIT

    Orbital Energies [Eh]
    ---------------------

    Doubly Occupied:

       1A    -20.604346     2A    -20.545407     3A    -11.380123
       4A    -11.284582     5A    -11.245390     6A    -11.220333
       7A     -1.454275     8A     -1.353180     9A     -1.066194
      10A     -0.972207    11A     -0.877694    12A     -0.767172
      13A     -0.700242    14A     -0.677136    15A     -0.668385
      16A     -0.619962    17A     -0.601646    18A     -0.542538
      19A     -0.536228    20A     -0.525210    21A     -0.520720
      22A     -0.486723    23A     -0.462200    24A     -0.448317

  @DF-RHF Final Energy:  -305.98313436301237

   => Energetics <=

    Nuclear Repulsion Energy =            244.9060763297567860
    One-Electron Energy =                -902.6580051853451323
    Two-Electron Energy =                 351.7687944925760348
    Total Energy =                       -305.9831343630123683
  Basis Set: (AUG-CC-PVTZ AUX)
    Blend: AUG-CC-PVTZ-RI
    Molecular point group: c1

    Geometry (in Angstrom), charge = 0, multiplicity = 1:

       Center              X                  Y                   Z               Mass
    ------------   -----------------  -----------------  -----------------  -----------------
         O            1.136939540162    -0.700529339036     0.025585418694    15.994914619570
         O            0.044120540162     1.288004660964     0.003088418694    15.994914619570
         C           -1.218470459838    -0.789598339036    -0.011087581306    12.000000000000
         C           -2.507210959838     0.014510660964    -0.074682281306    12.000000000000
         C            0.020125540162     0.069233660964     0.006577418694    12.000000000000
         C            2.366215540162     0.047406660964     0.040904418694    12.000000000000
         H           -1.187213359838    -1.434677439036    -0.895742581306     1.007825032230
         H           -1.178034459838    -1.449096339036     0.862391418694     1.007825032230
         H           -2.525347459838     0.681119660964    -0.909922581306     1.007825032230
         H           -3.370276459838    -0.614251339036    -0.041982581306     1.007825032230
         H           -2.550773459838     0.680010660964     0.851499418694     1.007825032230
         H            3.155042540162    -0.701548339036     0.056478418694     1.007825032230
         H            2.416117540162     0.681409660964     0.927127418694     1.007825032230
         H            2.443500540162     0.673393660964    -0.849034581306     1.007825032230

  Basis Set: AUG-CC-PVTZ
    Blend: AUG-CC-PVTZ
  Basis Set: (AUG-CC-PVTZ AUX)
    Blend: AUG-CC-PVTZ-JKFIT
	 Reference Energy          =    -305.9831343630123683 [Eh]
	 Singles Energy            =      -0.0000000000000000 [Eh]
	 Same-Spin Energy          =      -0.2974471228085482 [Eh]
	 Opposite-Spin Energy      =      -0.9768142488318973 [Eh]
	 Correlation Energy        =      -1.2742613716404456 [Eh]
	 Total Energy              =    -307.2573957346527891 [Eh]

	 ================> DF-SCS-MP2 Energies <==================
	-----------------------------------------------------------
	 SCS Same-Spin Scale       =       0.3333333333333333 [-]
	 SCS Opposite-Spin Scale   =       1.2000000000000000 [-]
	 SCS Same-Spin Energy      =      -0.0991490409361827 [Eh]
	 SCS Opposite-Spin Energy  =      -1.1721770985982767 [Eh]
	 SCS Correlation Energy    =      -1.2713261395344595 [Eh]
	 SCS Total Energy          =    -307.2544605025468059 [Eh]
	-----------------------------------------------------------

  Dipole Moment: [D]
     X:     0.4477      Y:    -1.5688      Z:    -0.0125     Total:     1.6315

*** Psi4 exiting successfully. Buy a developer a beer!
