                               Psi4 1.4a3.dev225

  ==> Input File <==

--------------------------------------------------------------------------
#psi4
#
memory 32 gb

molecule  {
0 1
  O        1.1455950    -0.7206100    -0.0000020
  O        0.1065970     1.2988430     0.0000060
  C       -1.2145750    -0.7450000     0.0000080
  C       -2.4678730     0.1187130    -0.0000080
  C        0.0330632     0.0918189     0.0000031
  C        2.3963290    -0.0041190    -0.0000040
  H       -1.1806580    -1.4052490    -0.8737030
  H       -1.1806650    -1.4052230     0.8737390
  H       -2.4946670     0.7625720    -0.8811910
  H       -3.3622150    -0.5096080    -0.0000470
  H       -2.4947180     0.7625340     0.8812010
  H        3.1644210    -0.7750410    -0.0000210
  H        2.4762030     0.6232120     0.8890930
  H        2.4761870     0.6232350    -0.8890870
units angstrom
no_reorient  #important for SAPT in psi4, default
symmetry c1  #important for SAPT in psi4, default
}

set PROPERTIES_ORIGIN ["COM"]
properties('MP2/aug-cc-pvtz', properties = ['dipole'])
--------------------------------------------------------------------------

    Molecular point group: c1
  Charge       = 0
  Multiplicity = 1
  Basis Set: AUG-CC-PVTZ
    Blend: AUG-CC-PVTZ
  Basis Set: (AUG-CC-PVTZ AUX)
    Blend: AUG-CC-PVTZ-JKFIT

    Orbital Energies [Eh]
    ---------------------

    Doubly Occupied:

       1A    -20.598754     2A    -20.548623     3A    -11.379668
       4A    -11.282095     5A    -11.246512     6A    -11.221557
       7A     -1.448855     8A     -1.354795     9A     -1.067451
      10A     -0.966995    11A     -0.878246    12A     -0.763055
      13A     -0.700949    14A     -0.673401    15A     -0.666254
      16A     -0.619992    17A     -0.600344    18A     -0.539679
      19A     -0.534749    20A     -0.524174    21A     -0.520256
      22A     -0.497476    23A     -0.461829    24A     -0.449169

  @DF-RHF Final Energy:  -305.98577142460692

   => Energetics <=

    Nuclear Repulsion Energy =            244.8016750087374191
    One-Electron Energy =                -902.4851332965201891
    Two-Electron Energy =                 351.6976868631758180
    Total Energy =                       -305.9857714246069236
  Basis Set: (AUG-CC-PVTZ AUX)
    Blend: AUG-CC-PVTZ-RI
    Molecular point group: c1

    Geometry (in Angstrom), charge = 0, multiplicity = 1:

       Center              X                  Y                   Z               Mass
    ------------   -----------------  -----------------  -----------------  -----------------
         O            1.118615530145    -0.737098100456    -0.000002420823    15.994914619570
         O            0.079617530145     1.282354899544     0.000005579177    15.994914619570
         C           -1.241554469855    -0.761488100456     0.000007579177    12.000000000000
         C           -2.494852469855     0.102224899544    -0.000008420823    12.000000000000
         C            0.006083730145     0.075330799544     0.000002679177    12.000000000000
         C            2.369349530145    -0.020607100456    -0.000004420823    12.000000000000
         H           -1.207637469855    -1.421737100456    -0.873703420823     1.007825032230
         H           -1.207644469855    -1.421711100456     0.873738579177     1.007825032230
         H           -2.521646469855     0.746083899544    -0.881191420823     1.007825032230
         H           -3.389194469855    -0.526096100456    -0.000047420823     1.007825032230
         H           -2.521697469855     0.746045899544     0.881200579177     1.007825032230
         H            3.137441530145    -0.791529100456    -0.000021420823     1.007825032230
         H            2.449223530145     0.606723899544     0.889092579177     1.007825032230
         H            2.449207530145     0.606746899544    -0.889087420823     1.007825032230

  Basis Set: AUG-CC-PVTZ
    Blend: AUG-CC-PVTZ
  Basis Set: (AUG-CC-PVTZ AUX)
    Blend: AUG-CC-PVTZ-JKFIT
	 Reference Energy          =    -305.9857714246069236 [Eh]
	 Singles Energy            =      -0.0000000000000000 [Eh]
	 Same-Spin Energy          =      -0.2974082709227751 [Eh]
	 Opposite-Spin Energy      =      -0.9768222531333303 [Eh]
	 Correlation Energy        =      -1.2742305240561054 [Eh]
	 Total Energy              =    -307.2600019486630458 [Eh]

	 ================> DF-SCS-MP2 Energies <==================
	-----------------------------------------------------------
	 SCS Same-Spin Scale       =       0.3333333333333333 [-]
	 SCS Opposite-Spin Scale   =       1.2000000000000000 [-]
	 SCS Same-Spin Energy      =      -0.0991360903075917 [Eh]
	 SCS Opposite-Spin Energy  =      -1.1721867037599962 [Eh]
	 SCS Correlation Energy    =      -1.2713227940675880 [Eh]
	 SCS Total Energy          =    -307.2570942186745242 [Eh]
	-----------------------------------------------------------

  Dipole Moment: [D]
     X:     0.2432      Y:    -1.4863      Z:    -0.0000     Total:     1.5061

*** Psi4 exiting successfully. Buy a developer a beer!
