                               Psi4 1.3.2 release

  ==> Input File <==

--------------------------------------------------------------------------
#psi4
#
memory 32 gb

molecule  {
0 1
  O        1.1347230    -0.7035620     0.0192210
  O        0.0419040     1.2849720    -0.0032760
  C       -1.2206870    -0.7926310    -0.0174520
  C       -2.4959880     0.0348800    -0.0353530
  C        0.0218458     0.2661614    -0.0003594
  C        2.3639990     0.0443740     0.0345400
  H       -1.1558060    -1.4513950    -0.8901140
  H       -1.1802510    -1.4521290     0.8560270
  H       -2.5275640     0.6780870    -0.9162870
  H       -3.3724930    -0.6172840    -0.0483470
  H       -2.5529900     0.6769780     0.8451350
  H        3.1528260    -0.7045810     0.0501140
  H        2.4139010     0.6783770     0.9207630
  H        2.4412840     0.6703610    -0.8553990
units angstrom
no_reorient  #important for SAPT in psi4, default
symmetry c1  #important for SAPT in psi4, default
}

set PROPERTIES_ORIGIN ["COM"]
properties('MP2/aug-cc-pvtz', properties = ['dipole'])
--------------------------------------------------------------------------

    Molecular point group: c1
  Charge       = 0
  Multiplicity = 1
  Basis Set: AUG-CC-PVTZ
    Blend: AUG-CC-PVTZ
  Basis Set: (AUG-CC-PVTZ AUX)
    Blend: AUG-CC-PVTZ-JKFIT

    Orbital Energies [Eh]
    ---------------------

    Doubly Occupied:

       1A    -20.583465     2A    -20.567870     3A    -11.361502
       4A    -11.268466     5A    -11.239086     6A    -11.216898
       7A     -1.571089     8A     -1.355283     9A     -1.043858
      10A     -0.938980    11A     -0.854680    12A     -0.768383
      13A     -0.739625    14A     -0.694334    15A     -0.693068
      16A     -0.610199    17A     -0.594260    18A     -0.593464
      19A     -0.554720    20A     -0.523972    21A     -0.509265
      22A     -0.499489    23A     -0.452813    24A     -0.412307

  @DF-RHF Final Energy:  -305.90321936351853

   => Energetics <=

    Nuclear Repulsion Energy =            246.4444025093511641
    One-Electron Energy =                -905.4010936306062831
    Two-Electron Energy =                 353.0534717577365313
    Total Energy =                       -305.9032193635185308
  Basis Set: (AUG-CC-PVTZ AUX)
    Blend: AUG-CC-PVTZ-RI
    Molecular point group: c1

    Geometry (in Angstrom), charge = 0, multiplicity = 1:

       Center              X                  Y                   Z               Mass
    ------------   -----------------  -----------------  -----------------  -----------------
         O            1.134186605241    -0.730813078286     0.019298909068    15.994914619570
         O            0.041367605241     1.257720921714    -0.003198090932    15.994914619570
         C           -1.221223394759    -0.819882078286    -0.017374090932    12.000000000000
         C           -2.496524394759     0.007628921714    -0.035275090932    12.000000000000
         C            0.021309405241     0.238910321714    -0.000281490932    12.000000000000
         C            2.363462605241     0.017122921714     0.034617909068    12.000000000000
         H           -1.156342394759    -1.478646078286    -0.890036090932     1.007825032230
         H           -1.180787394759    -1.479380078286     0.856104909068     1.007825032230
         H           -2.528100394759     0.650835921714    -0.916209090932     1.007825032230
         H           -3.373029394759    -0.644535078286    -0.048269090932     1.007825032230
         H           -2.553526394759     0.649726921714     0.845212909068     1.007825032230
         H            3.152289605241    -0.731832078286     0.050191909068     1.007825032230
         H            2.413364605241     0.651125921714     0.920840909068     1.007825032230
         H            2.440747605241     0.643109921714    -0.855321090932     1.007825032230

  Basis Set: AUG-CC-PVTZ
    Blend: AUG-CC-PVTZ
  Basis Set: (AUG-CC-PVTZ AUX)
    Blend: AUG-CC-PVTZ-JKFIT
	 Reference Energy          =    -305.9032193635185308 [Eh]
	 Singles Energy            =      -0.0000000000000000 [Eh]
	 Same-Spin Energy          =      -0.2946739312499358 [Eh]
	 Opposite-Spin Energy      =      -0.9718846879324899 [Eh]
	 Correlation Energy        =      -1.2665586191824256 [Eh]
	 Total Energy              =    -307.1697779827009640 [Eh]

	 ================> DF-SCS-MP2 Energies <==================
	-----------------------------------------------------------
	 SCS Same-Spin Scale       =       0.3333333333333333 [-]
	 SCS Opposite-Spin Scale   =       1.2000000000000000 [-]
	 SCS Same-Spin Energy      =      -0.0982246437499786 [Eh]
	 SCS Opposite-Spin Energy  =      -1.1662616255189879 [Eh]
	 SCS Correlation Energy    =      -1.2644862692689665 [Eh]
	 SCS Total Energy          =    -307.1677056327874880 [Eh]
	-----------------------------------------------------------

  Dipole Moment: [D]
     X:    -0.0581      Y:    -0.1904      Z:    -0.0019     Total:     0.1991

*** Psi4 exiting successfully. Buy a developer a beer!
