                               Psi4 1.3.2 release

  ==> Input File <==

--------------------------------------------------------------------------
#psi4
#
memory 32 gb

molecule  {
0 1
  O        1.1347230    -0.7035620     0.0192210
  O        0.0312688     1.2851345    -0.0034517
  C       -1.2281329    -0.7817886    -0.0176092
  C       -2.4959880     0.0348800    -0.0353530
  C        0.0179090     0.0662010     0.0002130
  C        2.3639990     0.0443740     0.0345400
  H       -1.1558060    -1.4513950    -0.8901140
  H       -1.1802510    -1.4521290     0.8560270
  H       -2.5275640     0.6780870    -0.9162870
  H       -3.3724930    -0.6172840    -0.0483470
  H       -2.5529900     0.6769780     0.8451350
  H        3.1528260    -0.7045810     0.0501140
  H        2.4139010     0.6783770     0.9207630
  H        2.4412840     0.6703610    -0.8553990
units angstrom
no_reorient  #important for SAPT in psi4, default
symmetry c1  #important for SAPT in psi4, default
}

set PROPERTIES_ORIGIN ["COM"]
properties('MP2/aug-cc-pvtz', properties = ['dipole'])
--------------------------------------------------------------------------

    Molecular point group: c1
  Charge       = 0
  Multiplicity = 1
  Basis Set: AUG-CC-PVTZ
    Blend: AUG-CC-PVTZ
  Basis Set: (AUG-CC-PVTZ AUX)
    Blend: AUG-CC-PVTZ-JKFIT

    Orbital Energies [Eh]
    ---------------------

    Doubly Occupied:

       1A    -20.604866     2A    -20.544665     3A    -11.379135
       4A    -11.284960     5A    -11.245390     6A    -11.219435
       7A     -1.453894     8A     -1.353517     9A     -1.066913
      10A     -0.972614    11A     -0.877455    12A     -0.766750
      13A     -0.699358    14A     -0.676884    15A     -0.667978
      16A     -0.619427    17A     -0.600104    18A     -0.539026
      19A     -0.536783    20A     -0.527842    21A     -0.518592
      22A     -0.492841    23A     -0.462526    24A     -0.446867

  @DF-RHF Final Energy:  -305.98615014467185

   => Energetics <=

    Nuclear Repulsion Energy =            245.1211638306766929
    One-Electron Energy =                -903.0989820614718155
    Two-Electron Energy =                 351.9916680861232976
    Total Energy =                       -305.9861501446718535
  Basis Set: (AUG-CC-PVTZ AUX)
    Blend: AUG-CC-PVTZ-RI
    Molecular point group: c1

    Geometry (in Angstrom), charge = 0, multiplicity = 1:

       Center              X                  Y                   Z               Mass
    ------------   -----------------  -----------------  -----------------  -----------------
         O            1.137669774504    -0.705069134146     0.019274240884    15.994914619570
         O            0.034215574504     1.283627365854    -0.003398459116    15.994914619570
         C           -1.225186125496    -0.783295734146    -0.017555959116    12.000000000000
         C           -2.493041225496     0.033372865854    -0.035299759116    12.000000000000
         C            0.020855774504     0.064693865854     0.000266240884    12.000000000000
         C            2.366945774504     0.042866865854     0.034593240884    12.000000000000
         H           -1.152859225496    -1.452902134146    -0.890060759116     1.007825032230
         H           -1.177304225496    -1.453636134146     0.856080240884     1.007825032230
         H           -2.524617225496     0.676579865854    -0.916233759116     1.007825032230
         H           -3.369546225496    -0.618791134146    -0.048293759116     1.007825032230
         H           -2.550043225496     0.675470865854     0.845188240884     1.007825032230
         H            3.155772774504    -0.706088134146     0.050167240884     1.007825032230
         H            2.416847774504     0.676869865854     0.920816240884     1.007825032230
         H            2.444230774504     0.668853865854    -0.855345759116     1.007825032230

  Basis Set: AUG-CC-PVTZ
    Blend: AUG-CC-PVTZ
  Basis Set: (AUG-CC-PVTZ AUX)
    Blend: AUG-CC-PVTZ-JKFIT
	 Reference Energy          =    -305.9861501446718535 [Eh]
	 Singles Energy            =      -0.0000000000000000 [Eh]
	 Same-Spin Energy          =      -0.2974711639179057 [Eh]
	 Opposite-Spin Energy      =      -0.9766598610517675 [Eh]
	 Correlation Energy        =      -1.2741310249696731 [Eh]
	 Total Energy              =    -307.2602811696415301 [Eh]

	 ================> DF-SCS-MP2 Energies <==================
	-----------------------------------------------------------
	 SCS Same-Spin Scale       =       0.3333333333333333 [-]
	 SCS Opposite-Spin Scale   =       1.2000000000000000 [-]
	 SCS Same-Spin Energy      =      -0.0991570546393019 [Eh]
	 SCS Opposite-Spin Energy  =      -1.1719918332621209 [Eh]
	 SCS Correlation Energy    =      -1.2711488879014228 [Eh]
	 SCS Total Energy          =    -307.2572990325732576 [Eh]
	-----------------------------------------------------------

  Dipole Moment: [D]
     X:     0.4731      Y:    -1.5597      Z:     0.0097     Total:     1.6299

*** Psi4 exiting successfully. Buy a developer a beer!
