                               Psi4 1.3.2 release

  ==> Input File <==

--------------------------------------------------------------------------
#psi4
#
memory 32 gb

molecule  {
0 1
  O        1.1413973    -0.6937854     0.0193059
  O        0.0419040     1.2849720    -0.0032760
  C       -1.2281332    -0.7817886    -0.0175901
  C       -2.4959880     0.0348800    -0.0353530
  C        0.0179090     0.0662010     0.0002130
  C        2.3639990     0.0443740     0.0345400
  H       -1.1558060    -1.4513950    -0.8901140
  H       -1.1802510    -1.4521290     0.8560270
  H       -2.5275640     0.6780870    -0.9162870
  H       -3.3724930    -0.6172840    -0.0483470
  H       -2.5529900     0.6769780     0.8451350
  H        3.1528260    -0.7045810     0.0501140
  H        2.4139010     0.6783770     0.9207630
  H        2.4412840     0.6703610    -0.8553990
units angstrom
no_reorient  #important for SAPT in psi4, default
symmetry c1  #important for SAPT in psi4, default
}

set PROPERTIES_ORIGIN ["COM"]
properties('MP2/aug-cc-pvtz', properties = ['dipole'])
--------------------------------------------------------------------------

    Molecular point group: c1
  Charge       = 0
  Multiplicity = 1
  Basis Set: AUG-CC-PVTZ
    Blend: AUG-CC-PVTZ
  Basis Set: (AUG-CC-PVTZ AUX)
    Blend: AUG-CC-PVTZ-JKFIT

    Orbital Energies [Eh]
    ---------------------

    Doubly Occupied:

       1A    -20.603455     2A    -20.544299     3A    -11.379384
       4A    -11.283257     5A    -11.246765     6A    -11.220305
       7A     -1.455589     8A     -1.353309     9A     -1.068074
      10A     -0.973270    11A     -0.877762    12A     -0.767067
      13A     -0.700210    14A     -0.677787    15A     -0.668605
      16A     -0.620299    17A     -0.601127    18A     -0.538407
      19A     -0.535787    20A     -0.528898    21A     -0.518268
      22A     -0.493423    23A     -0.461106    24A     -0.447357

  @DF-RHF Final Energy:  -305.98664481841251

   => Energetics <=

    Nuclear Repulsion Energy =            245.2765123806995007
    One-Electron Energy =                -903.3986907014900680
    Two-Electron Energy =                 352.1355335023780526
    Total Energy =                       -305.9866448184125147
  Basis Set: (AUG-CC-PVTZ AUX)
    Blend: AUG-CC-PVTZ-RI
    Molecular point group: c1

    Geometry (in Angstrom), charge = 0, multiplicity = 1:

       Center              X                  Y                   Z               Mass
    ------------   -----------------  -----------------  -----------------  -----------------
         O            1.141199807205    -0.697038956243     0.019309199335    15.994914619570
         O            0.041706507205     1.281718443757    -0.003272700665    15.994914619570
         C           -1.228330692795    -0.785042156243    -0.017586800665    12.000000000000
         C           -2.496185492795     0.031626443757    -0.035349700665    12.000000000000
         C            0.017711507205     0.062947443757     0.000216299335    12.000000000000
         C            2.363801507205     0.041120443757     0.034543299335    12.000000000000
         H           -1.156003492795    -1.454648556243    -0.890110700665     1.007825032230
         H           -1.180448492795    -1.455382556243     0.856030299335     1.007825032230
         H           -2.527761492795     0.674833443757    -0.916283700665     1.007825032230
         H           -3.372690492795    -0.620537556243    -0.048343700665     1.007825032230
         H           -2.553187492795     0.673724443757     0.845138299335     1.007825032230
         H            3.152628507205    -0.707834556243     0.050117299335     1.007825032230
         H            2.413703507205     0.675123443757     0.920766299335     1.007825032230
         H            2.441086507205     0.667107443757    -0.855395700665     1.007825032230

  Basis Set: AUG-CC-PVTZ
    Blend: AUG-CC-PVTZ
  Basis Set: (AUG-CC-PVTZ AUX)
    Blend: AUG-CC-PVTZ-JKFIT
	 Reference Energy          =    -305.9866448184125147 [Eh]
	 Singles Energy            =      -0.0000000000000000 [Eh]
	 Same-Spin Energy          =      -0.2973786852094843 [Eh]
	 Opposite-Spin Energy      =      -0.9762995051668364 [Eh]
	 Correlation Energy        =      -1.2736781903763208 [Eh]
	 Total Energy              =    -307.2603230087888164 [Eh]

	 ================> DF-SCS-MP2 Energies <==================
	-----------------------------------------------------------
	 SCS Same-Spin Scale       =       0.3333333333333333 [-]
	 SCS Opposite-Spin Scale   =       1.2000000000000000 [-]
	 SCS Same-Spin Energy      =      -0.0991262284031614 [Eh]
	 SCS Opposite-Spin Energy  =      -1.1715594062002037 [Eh]
	 SCS Correlation Energy    =      -1.2706856346033653 [Eh]
	 SCS Total Energy          =    -307.2573304530158680 [Eh]
	-----------------------------------------------------------

  Dipole Moment: [D]
     X:     0.3955      Y:    -1.5883      Z:     0.0086     Total:     1.6368

*** Psi4 exiting successfully. Buy a developer a beer!
