                               Psi4 1.3.2 release

  ==> Input File <==

--------------------------------------------------------------------------
#psi4
#
memory 32 gb

molecule  {
0 1
  O        1.1347230    -0.7035620     0.0192210
  O        0.0419040     1.2849720    -0.0032760
  C       -1.2206870    -0.7926310    -0.0174520
  C       -2.4959880     0.0348800    -0.0353530
  C        0.0159406    -0.0337792     0.0004992
  C        2.3639990     0.0443740     0.0345400
  H       -1.1558060    -1.4513950    -0.8901140
  H       -1.1802510    -1.4521290     0.8560270
  H       -2.5275640     0.6780870    -0.9162870
  H       -3.3724930    -0.6172840    -0.0483470
  H       -2.5529900     0.6769780     0.8451350
  H        3.1528260    -0.7045810     0.0501140
  H        2.4139010     0.6783770     0.9207630
  H        2.4412840     0.6703610    -0.8553990
units angstrom
no_reorient  #important for SAPT in psi4, default
symmetry c1  #important for SAPT in psi4, default
}

set PROPERTIES_ORIGIN ["COM"]
properties('MP2/aug-cc-pvtz', properties = ['dipole'])
--------------------------------------------------------------------------

    Molecular point group: c1
  Charge       = 0
  Multiplicity = 1
  Basis Set: AUG-CC-PVTZ
    Blend: AUG-CC-PVTZ
  Basis Set: (AUG-CC-PVTZ AUX)
    Blend: AUG-CC-PVTZ-JKFIT

    Orbital Energies [Eh]
    ---------------------

    Doubly Occupied:

       1A    -20.618592     2A    -20.524786     3A    -11.385411
       4A    -11.292037     5A    -11.247828     6A    -11.222398
       7A     -1.468425     8A     -1.295115     9A     -1.079586
      10A     -0.987214    11A     -0.890948    12A     -0.775345
      13A     -0.696667    14A     -0.686421    15A     -0.667485
      16A     -0.625326    17A     -0.587817    18A     -0.539712
      19A     -0.535846    20A     -0.532463    21A     -0.507360
      22A     -0.495866    23A     -0.437260    24A     -0.436849

  @DF-RHF Final Energy:  -305.96528267606465

   => Energetics <=

    Nuclear Repulsion Energy =            244.7984427084248011
    One-Electron Energy =                -902.4539369066640120
    Two-Electron Energy =                 351.6902115221745930
    Total Energy =                       -305.9652826760646462
  Basis Set: (AUG-CC-PVTZ AUX)
    Blend: AUG-CC-PVTZ-RI
    Molecular point group: c1

    Geometry (in Angstrom), charge = 0, multiplicity = 1:

       Center              X                  Y                   Z               Mass
    ------------   -----------------  -----------------  -----------------  -----------------
         O            1.134991380309    -0.689936441258     0.019181896964    15.994914619570
         O            0.042172380309     1.298597558742    -0.003315103036    15.994914619570
         C           -1.220418619691    -0.779005441258    -0.017491103036    12.000000000000
         C           -2.495719619691     0.048505558742    -0.035392103036    12.000000000000
         C            0.016208980309    -0.020153641258     0.000460096964    12.000000000000
         C            2.364267380309     0.057999558742     0.034500896964    12.000000000000
         H           -1.155537619691    -1.437769441258    -0.890153103036     1.007825032230
         H           -1.179982619691    -1.438503441258     0.855987896964     1.007825032230
         H           -2.527295619691     0.691712558742    -0.916326103036     1.007825032230
         H           -3.372224619691    -0.603658441258    -0.048386103036     1.007825032230
         H           -2.552721619691     0.690603558742     0.845095896964     1.007825032230
         H            3.153094380309    -0.690955441258     0.050074896964     1.007825032230
         H            2.414169380309     0.692002558742     0.920723896964     1.007825032230
         H            2.441552380309     0.683986558742    -0.855438103036     1.007825032230

  Basis Set: AUG-CC-PVTZ
    Blend: AUG-CC-PVTZ
  Basis Set: (AUG-CC-PVTZ AUX)
    Blend: AUG-CC-PVTZ-JKFIT
	 Reference Energy          =    -305.9652826760646462 [Eh]
	 Singles Energy            =      -0.0000000000000000 [Eh]
	 Same-Spin Energy          =      -0.2994121888367298 [Eh]
	 Opposite-Spin Energy      =      -0.9800589749561825 [Eh]
	 Correlation Energy        =      -1.2794711637929124 [Eh]
	 Total Energy              =    -307.2447538398575375 [Eh]

	 ================> DF-SCS-MP2 Energies <==================
	-----------------------------------------------------------
	 SCS Same-Spin Scale       =       0.3333333333333333 [-]
	 SCS Opposite-Spin Scale   =       1.2000000000000000 [-]
	 SCS Same-Spin Energy      =      -0.0998040629455766 [Eh]
	 SCS Opposite-Spin Energy  =      -1.1760707699474191 [Eh]
	 SCS Correlation Energy    =      -1.2758748328929956 [Eh]
	 SCS Total Energy          =    -307.2411575089576559 [Eh]
	-----------------------------------------------------------

  Dipole Moment: [D]
     X:     0.6624      Y:    -2.1374      Z:     0.0139     Total:     2.2378

*** Psi4 exiting successfully. Buy a developer a beer!
