                               Psi4 1.3.2 release

  ==> Input File <==

--------------------------------------------------------------------------
#psi4
#
memory 32 gb

molecule  {
0 1
  O        1.1347230    -0.7035620     0.0192210
  O        0.0419040     1.2849720    -0.0032760
  C       -1.2206870    -0.7926310    -0.0174520
  C       -2.4959880     0.0348800    -0.0353530
  C        0.0417516     0.0295411    -0.0654760
  C        2.3639990     0.0443740     0.0345400
  H       -1.1053801    -1.4271908    -0.9027524
  H       -1.1802510    -1.4521290     0.8560270
  H       -2.5275640     0.6780870    -0.9162870
  H       -3.3724930    -0.6172840    -0.0483470
  H       -2.5529900     0.6769780     0.8451350
  H        3.1528260    -0.7045810     0.0501140
  H        2.4139010     0.6783770     0.9207630
  H        2.4412840     0.6703610    -0.8553990
units angstrom
no_reorient  #important for SAPT in psi4, default
symmetry c1  #important for SAPT in psi4, default
}

set PROPERTIES_ORIGIN ["COM"]
properties('MP2/aug-cc-pvtz', properties = ['dipole'])
--------------------------------------------------------------------------

    Molecular point group: c1
  Charge       = 0
  Multiplicity = 1
  Basis Set: AUG-CC-PVTZ
    Blend: AUG-CC-PVTZ
  Basis Set: (AUG-CC-PVTZ AUX)
    Blend: AUG-CC-PVTZ-JKFIT

    Orbital Energies [Eh]
    ---------------------

    Doubly Occupied:

       1A    -20.614058     2A    -20.535488     3A    -11.380317
       4A    -11.289519     5A    -11.245430     6A    -11.219887
       7A     -1.465325     8A     -1.332674     9A     -1.066201
      10A     -0.980831    11A     -0.880436    12A     -0.773737
      13A     -0.693471    14A     -0.683874    15A     -0.669262
      16A     -0.621684    17A     -0.593497    18A     -0.538886
      19A     -0.537465    20A     -0.527624    21A     -0.513961
      22A     -0.494860    23A     -0.455361    24A     -0.440958

  @DF-RHF Final Energy:  -305.97907673864489

   => Energetics <=

    Nuclear Repulsion Energy =            245.0609802497176872
    One-Electron Energy =                -902.9705017452893117
    Two-Electron Energy =                 351.9304447569267609
    Total Energy =                       -305.9790767386448920
  Basis Set: (AUG-CC-PVTZ AUX)
    Blend: AUG-CC-PVTZ-RI
    Molecular point group: c1

    Geometry (in Angstrom), charge = 0, multiplicity = 1:

       Center              X                  Y                   Z               Mass
    ------------   -----------------  -----------------  -----------------  -----------------
         O            1.130896632597    -0.698842921216     0.028317814059    15.994914619570
         O            0.038077632597     1.289691078784     0.005820814059    15.994914619570
         C           -1.224513367403    -0.787911921216    -0.008355185941    12.000000000000
         C           -2.499814367403     0.039599078784    -0.026256185941    12.000000000000
         C            0.037925232597     0.034260178784    -0.056379185941    12.000000000000
         C            2.360172632597     0.049093078784     0.043636814059    12.000000000000
         H           -1.109206467403    -1.422471721216    -0.893655585941     1.007825032230
         H           -1.184077367403    -1.447409921216     0.865123814059     1.007825032230
         H           -2.531390367403     0.682806078784    -0.907190185941     1.007825032230
         H           -3.376319367403    -0.612564921216    -0.039250185941     1.007825032230
         H           -2.556816367403     0.681697078784     0.854231814059     1.007825032230
         H            3.148999632597    -0.699861921216     0.059210814059     1.007825032230
         H            2.410074632597     0.683096078784     0.929859814059     1.007825032230
         H            2.437457632597     0.675080078784    -0.846302185941     1.007825032230

  Basis Set: AUG-CC-PVTZ
    Blend: AUG-CC-PVTZ
  Basis Set: (AUG-CC-PVTZ AUX)
    Blend: AUG-CC-PVTZ-JKFIT
	 Reference Energy          =    -305.9790767386448920 [Eh]
	 Singles Energy            =      -0.0000000000000000 [Eh]
	 Same-Spin Energy          =      -0.2980297825527513 [Eh]
	 Opposite-Spin Energy      =      -0.9776877726110427 [Eh]
	 Correlation Energy        =      -1.2757175551637940 [Eh]
	 Total Energy              =    -307.2547942938086862 [Eh]

	 ================> DF-SCS-MP2 Energies <==================
	-----------------------------------------------------------
	 SCS Same-Spin Scale       =       0.3333333333333333 [-]
	 SCS Opposite-Spin Scale   =       1.2000000000000000 [-]
	 SCS Same-Spin Energy      =      -0.0993432608509171 [Eh]
	 SCS Opposite-Spin Energy  =      -1.1732253271332511 [Eh]
	 SCS Correlation Energy    =      -1.2725685879841682 [Eh]
	 SCS Total Energy          =    -307.2516453266290455 [Eh]
	-----------------------------------------------------------

  Dipole Moment: [D]
     X:     0.7174      Y:    -1.7826      Z:    -0.0386     Total:     1.9219

*** Psi4 exiting successfully. Buy a developer a beer!
