                               Psi4 1.3.2 release

  ==> Input File <==

--------------------------------------------------------------------------
#psi4
#
memory 32 gb

molecule  {
0 1
  O        1.1347230    -0.7035620     0.0192210
  O        0.0419040     1.2849720    -0.0032760
  C       -1.2206870    -0.7926310    -0.0174520
  C       -2.4959880     0.0348800    -0.0353530
  C        0.0262372     0.0542377    -0.0216868
  C        2.3639990     0.0443740     0.0345400
  H       -1.1389708    -1.4435244    -0.8945944
  H       -1.1802510    -1.4521290     0.8560270
  H       -2.5275640     0.6780870    -0.9162870
  H       -3.3724930    -0.6172840    -0.0483470
  H       -2.5529900     0.6769780     0.8451350
  H        3.1528260    -0.7045810     0.0501140
  H        2.4139010     0.6783770     0.9207630
  H        2.4412840     0.6703610    -0.8553990
units angstrom
no_reorient  #important for SAPT in psi4, default
symmetry c1  #important for SAPT in psi4, default
}

set PROPERTIES_ORIGIN ["COM"]
properties('MP2/aug-cc-pvtz', properties = ['dipole'])
--------------------------------------------------------------------------

    Molecular point group: c1
  Charge       = 0
  Multiplicity = 1
  Basis Set: AUG-CC-PVTZ
    Blend: AUG-CC-PVTZ
  Basis Set: (AUG-CC-PVTZ AUX)
    Blend: AUG-CC-PVTZ-JKFIT

    Orbital Energies [Eh]
    ---------------------

    Doubly Occupied:

       1A    -20.607386     2A    -20.541708     3A    -11.379402
       4A    -11.286110     5A    -11.245211     6A    -11.220092
       7A     -1.456954     8A     -1.347229     9A     -1.066003
      10A     -0.974831    11A     -0.878605    12A     -0.769042
      13A     -0.697464    14A     -0.679225    15A     -0.668123
      16A     -0.620621    17A     -0.597792    18A     -0.537967
      19A     -0.536778    20A     -0.525437    21A     -0.517780
      22A     -0.495388    23A     -0.460732    24A     -0.445809

  @DF-RHF Final Energy:  -305.98539354555720

   => Energetics <=

    Nuclear Repulsion Energy =            245.0772452564195021
    One-Electron Energy =                -903.0138925235229408
    Two-Electron Energy =                 351.9512537215462658
    Total Energy =                       -305.9853935455572014
  Basis Set: (AUG-CC-PVTZ AUX)
    Blend: AUG-CC-PVTZ-RI
    Molecular point group: c1

    Geometry (in Angstrom), charge = 0, multiplicity = 1:

       Center              X                  Y                   Z               Mass
    ------------   -----------------  -----------------  -----------------  -----------------
         O            1.133395443244    -0.702021684036     0.022256740678    15.994914619570
         O            0.040576443244     1.286512315964    -0.000240259322    15.994914619570
         C           -1.222014556756    -0.791090684036    -0.014416259322    12.000000000000
         C           -2.497315556756     0.036420315964    -0.032317259322    12.000000000000
         C            0.024909643244     0.055778015964    -0.018651059322    12.000000000000
         C            2.362671443244     0.045914315964     0.037575740678    12.000000000000
         H           -1.140298356756    -1.441984084036    -0.891558659322     1.007825032230
         H           -1.181578556756    -1.450588684036     0.859062740678     1.007825032230
         H           -2.528891556756     0.679627315964    -0.913251259322     1.007825032230
         H           -3.373820556756    -0.615743684036    -0.045311259322     1.007825032230
         H           -2.554317556756     0.678518315964     0.848170740678     1.007825032230
         H            3.151498443244    -0.703040684036     0.053149740678     1.007825032230
         H            2.412573443244     0.679917315964     0.923798740678     1.007825032230
         H            2.439956443244     0.671901315964    -0.852363259322     1.007825032230

  Basis Set: AUG-CC-PVTZ
    Blend: AUG-CC-PVTZ
  Basis Set: (AUG-CC-PVTZ AUX)
    Blend: AUG-CC-PVTZ-JKFIT
	 Reference Energy          =    -305.9853935455572014 [Eh]
	 Singles Energy            =      -0.0000000000000000 [Eh]
	 Same-Spin Energy          =      -0.2975587205064528 [Eh]
	 Opposite-Spin Energy      =      -0.9768419528551575 [Eh]
	 Correlation Energy        =      -1.2744006733616104 [Eh]
	 Total Energy              =    -307.2597942189187847 [Eh]

	 ================> DF-SCS-MP2 Energies <==================
	-----------------------------------------------------------
	 SCS Same-Spin Scale       =       0.3333333333333333 [-]
	 SCS Opposite-Spin Scale   =       1.2000000000000000 [-]
	 SCS Same-Spin Energy      =      -0.0991862401688176 [Eh]
	 SCS Opposite-Spin Energy  =      -1.1722103434261890 [Eh]
	 SCS Correlation Energy    =      -1.2713965835950067 [Eh]
	 SCS Total Energy          =    -307.2567901291521935 [Eh]
	-----------------------------------------------------------

  Dipole Moment: [D]
     X:     0.5396      Y:    -1.6381      Z:    -0.0086     Total:     1.7247

*** Psi4 exiting successfully. Buy a developer a beer!
