                               Psi4 1.3.2 release

  ==> Input File <==

--------------------------------------------------------------------------
#psi4
#
memory 32 gb

molecule  {
0 1
  O        1.1347230    -0.7035620     0.0192210
  O        0.0419040     1.2849720    -0.0032760
  C       -1.2206870    -0.7926310    -0.0174520
  C       -2.4813532     0.0570132    -0.0351423
  C        0.0027331     0.0876889     0.0000019
  C        2.3639990     0.0443740     0.0345400
  H       -1.1558060    -1.4513950    -0.8901140
  H       -1.1802510    -1.4521290     0.8560270
  H       -2.5275640     0.6780870    -0.9162870
  H       -3.3724930    -0.6172840    -0.0483470
  H       -2.5529900     0.6769780     0.8451350
  H        3.1528260    -0.7045810     0.0501140
  H        2.4139010     0.6783770     0.9207630
  H        2.4412840     0.6703610    -0.8553990
units angstrom
no_reorient  #important for SAPT in psi4, default
symmetry c1  #important for SAPT in psi4, default
}

set PROPERTIES_ORIGIN ["COM"]
properties('MP2/aug-cc-pvtz', properties = ['dipole'])
--------------------------------------------------------------------------

    Molecular point group: c1
  Charge       = 0
  Multiplicity = 1
  Basis Set: AUG-CC-PVTZ
    Blend: AUG-CC-PVTZ
  Basis Set: (AUG-CC-PVTZ AUX)
    Blend: AUG-CC-PVTZ-JKFIT

    Orbital Energies [Eh]
    ---------------------

    Doubly Occupied:

       1A    -20.597014     2A    -20.550316     3A    -11.377894
       4A    -11.280865     5A    -11.245854     6A    -11.221032
       7A     -1.451568     8A     -1.359438     9A     -1.066925
      10A     -0.965777    11A     -0.876789    12A     -0.762924
      13A     -0.702150    14A     -0.673800    15A     -0.667977
      16A     -0.621601    17A     -0.599431    18A     -0.543518
      19A     -0.532323    20A     -0.526395    21A     -0.515304
      22A     -0.501566    23A     -0.462610    24A     -0.448558

  @DF-RHF Final Energy:  -305.98541495589393

   => Energetics <=

    Nuclear Repulsion Energy =            245.2312139120764414
    One-Electron Energy =                -903.3300051893902491
    Two-Electron Energy =                 352.1133763214198780
    Total Energy =                       -305.9854149558939298
  Basis Set: (AUG-CC-PVTZ AUX)
    Blend: AUG-CC-PVTZ-RI
    Molecular point group: c1

    Geometry (in Angstrom), charge = 0, multiplicity = 1:

       Center              X                  Y                   Z               Mass
    ------------   -----------------  -----------------  -----------------  -----------------
         O            1.134796864382    -0.709506776907     0.019220955512    15.994914619570
         O            0.041977864382     1.279027223093    -0.003276044488    15.994914619570
         C           -1.220613135618    -0.798575776907    -0.017452044488    12.000000000000
         C           -2.481279335618     0.051068423093    -0.035142344488    12.000000000000
         C            0.002806964382     0.081744123093     0.000001855512    12.000000000000
         C            2.364072864382     0.038429223093     0.034539955512    12.000000000000
         H           -1.155732135618    -1.457339776907    -0.890114044488     1.007825032230
         H           -1.180177135618    -1.458073776907     0.856026955512     1.007825032230
         H           -2.527490135618     0.672142223093    -0.916287044488     1.007825032230
         H           -3.372419135618    -0.623228776907    -0.048347044488     1.007825032230
         H           -2.552916135618     0.671033223093     0.845134955512     1.007825032230
         H            3.152899864382    -0.710525776907     0.050113955512     1.007825032230
         H            2.413974864382     0.672432223093     0.920762955512     1.007825032230
         H            2.441357864382     0.664416223093    -0.855399044488     1.007825032230

  Basis Set: AUG-CC-PVTZ
    Blend: AUG-CC-PVTZ
  Basis Set: (AUG-CC-PVTZ AUX)
    Blend: AUG-CC-PVTZ-JKFIT
	 Reference Energy          =    -305.9854149558939298 [Eh]
	 Singles Energy            =      -0.0000000000000000 [Eh]
	 Same-Spin Energy          =      -0.2972320568043073 [Eh]
	 Opposite-Spin Energy      =      -0.9763708748392029 [Eh]
	 Correlation Energy        =      -1.2736029316435102 [Eh]
	 Total Energy              =    -307.2590178875374249 [Eh]

	 ================> DF-SCS-MP2 Energies <==================
	-----------------------------------------------------------
	 SCS Same-Spin Scale       =       0.3333333333333333 [-]
	 SCS Opposite-Spin Scale   =       1.2000000000000000 [-]
	 SCS Same-Spin Energy      =      -0.0990773522681024 [Eh]
	 SCS Opposite-Spin Energy  =      -1.1716450498070434 [Eh]
	 SCS Correlation Energy    =      -1.2707224020751458 [Eh]
	 SCS Total Energy          =    -307.2561373579690667 [Eh]
	-----------------------------------------------------------

  Dipole Moment: [D]
     X:     0.2704      Y:    -1.4129      Z:     0.0063     Total:     1.4386

*** Psi4 exiting successfully. Buy a developer a beer!
