                               Psi4 1.3.2 release

  ==> Input File <==

--------------------------------------------------------------------------
#psi4
#
memory 32 gb

molecule  {
0 1
  O        1.1347230    -0.7035620     0.0192210
  O        0.0419040     1.2849720    -0.0032760
  C       -1.2206870    -0.7926310    -0.0174520
  C       -2.5155593    -0.0005922    -0.1038680
  C        0.0179090     0.0662010     0.0002130
  C        2.3639990     0.0443740     0.0345400
  H       -1.2062586    -1.4305719    -0.9077002
  H       -1.1802510    -1.4521290     0.8560270
  H       -2.5275640     0.6780870    -0.9162870
  H       -3.3724930    -0.6172840    -0.0483470
  H       -2.5529900     0.6769780     0.8451350
  H        3.1528260    -0.7045810     0.0501140
  H        2.4139010     0.6783770     0.9207630
  H        2.4412840     0.6703610    -0.8553990
units angstrom
no_reorient  #important for SAPT in psi4, default
symmetry c1  #important for SAPT in psi4, default
}

set PROPERTIES_ORIGIN ["COM"]
properties('MP2/aug-cc-pvtz', properties = ['dipole'])
--------------------------------------------------------------------------

    Molecular point group: c1
  Charge       = 0
  Multiplicity = 1
  Basis Set: AUG-CC-PVTZ
    Blend: AUG-CC-PVTZ
  Basis Set: (AUG-CC-PVTZ AUX)
    Blend: AUG-CC-PVTZ-JKFIT

    Orbital Energies [Eh]
    ---------------------

    Doubly Occupied:

       1A    -20.604591     2A    -20.545683     3A    -11.380625
       4A    -11.284724     5A    -11.245612     6A    -11.220794
       7A     -1.454477     8A     -1.353376     9A     -1.066437
      10A     -0.972535    11A     -0.877904    12A     -0.767424
      13A     -0.700698    14A     -0.677294    15A     -0.668740
      16A     -0.620603    17A     -0.602577    18A     -0.545955
      19A     -0.535981    20A     -0.526437    21A     -0.521671
      22A     -0.479163    23A     -0.462116    24A     -0.448638

  @DF-RHF Final Energy:  -305.97913372808290

   => Energetics <=

    Nuclear Repulsion Energy =            244.8298878900623947
    One-Electron Energy =                -902.4899339570828261
    Two-Electron Energy =                 351.6809123389375031
    Total Energy =                       -305.9791337280828998
  Basis Set: (AUG-CC-PVTZ AUX)
    Blend: AUG-CC-PVTZ-RI
    Molecular point group: c1

    Geometry (in Angstrom), charge = 0, multiplicity = 1:

       Center              X                  Y                   Z               Mass
    ------------   -----------------  -----------------  -----------------  -----------------
         O            1.137967813722    -0.698966084687     0.028759579459    15.994914619570
         O            0.045148813722     1.289567915313     0.006262579459    15.994914619570
         C           -1.217442186278    -0.788035084687    -0.007913420541    12.000000000000
         C           -2.512314486278     0.004003715313    -0.094329420541    12.000000000000
         C            0.021153813722     0.070796915313     0.009751579459    12.000000000000
         C            2.367243813722     0.048969915313     0.044078579459    12.000000000000
         H           -1.203013786278    -1.425975984687    -0.898161620541     1.007825032230
         H           -1.177006186278    -1.447533084687     0.865565579459     1.007825032230
         H           -2.524319186278     0.682682915313    -0.906748420541     1.007825032230
         H           -3.369248186278    -0.612688084687    -0.038808420541     1.007825032230
         H           -2.549745186278     0.681573915313     0.854673579459     1.007825032230
         H            3.156070813722    -0.699985084687     0.059652579459     1.007825032230
         H            2.417145813722     0.682972915313     0.930301579459     1.007825032230
         H            2.444528813722     0.674956915313    -0.845860420541     1.007825032230

  Basis Set: AUG-CC-PVTZ
    Blend: AUG-CC-PVTZ
  Basis Set: (AUG-CC-PVTZ AUX)
    Blend: AUG-CC-PVTZ-JKFIT
	 Reference Energy          =    -305.9791337280828998 [Eh]
	 Singles Energy            =      -0.0000000000000000 [Eh]
	 Same-Spin Energy          =      -0.2975145363656736 [Eh]
	 Opposite-Spin Energy      =      -0.9770326580605572 [Eh]
	 Correlation Energy        =      -1.2745471944262308 [Eh]
	 Total Energy              =    -307.2536809225091474 [Eh]

	 ================> DF-SCS-MP2 Energies <==================
	-----------------------------------------------------------
	 SCS Same-Spin Scale       =       0.3333333333333333 [-]
	 SCS Opposite-Spin Scale   =       1.2000000000000000 [-]
	 SCS Same-Spin Energy      =      -0.0991715121218912 [Eh]
	 SCS Opposite-Spin Energy  =      -1.1724391896726685 [Eh]
	 SCS Correlation Energy    =      -1.2716107017945597 [Eh]
	 SCS Total Energy          =    -307.2507444298774431 [Eh]
	-----------------------------------------------------------

  Dipole Moment: [D]
     X:     0.4519      Y:    -1.5733      Z:    -0.0251     Total:     1.6371

*** Psi4 exiting successfully. Buy a developer a beer!
