                               Psi4 1.3.2 release

  ==> Input File <==

--------------------------------------------------------------------------
#psi4
#
memory 32 gb

molecule  {
0 1
  O        1.1347230    -0.7035620     0.0192210
  O        0.0419040     1.2849720    -0.0032760
  C       -1.2206870    -0.7926310    -0.0174520
  C       -2.5375443    -0.0330047    -0.0359522
  C        0.0611550     0.0001943     0.0008137
  C        2.3639990     0.0443740     0.0345400
  H       -1.1558060    -1.4513950    -0.8901140
  H       -1.1802510    -1.4521290     0.8560270
  H       -2.5275640     0.6780870    -0.9162870
  H       -3.3724930    -0.6172840    -0.0483470
  H       -2.5529900     0.6769780     0.8451350
  H        3.1528260    -0.7045810     0.0501140
  H        2.4139010     0.6783770     0.9207630
  H        2.4412840     0.6703610    -0.8553990
units angstrom
no_reorient  #important for SAPT in psi4, default
symmetry c1  #important for SAPT in psi4, default
}

set PROPERTIES_ORIGIN ["COM"]
properties('MP2/aug-cc-pvtz', properties = ['dipole'])
--------------------------------------------------------------------------

    Molecular point group: c1
  Charge       = 0
  Multiplicity = 1
  Basis Set: AUG-CC-PVTZ
    Blend: AUG-CC-PVTZ
  Basis Set: (AUG-CC-PVTZ AUX)
    Blend: AUG-CC-PVTZ-JKFIT

    Orbital Energies [Eh]
    ---------------------

    Doubly Occupied:

       1A    -20.623690     2A    -20.528262     3A    -11.382970
       4A    -11.294844     5A    -11.245203     6A    -11.219694
       7A     -1.482854     8A     -1.315721     9A     -1.065900
      10A     -0.990445    11A     -0.882547    12A     -0.782461
      13A     -0.694103    14A     -0.691421    15A     -0.673587
      16A     -0.615721    17A     -0.598910    18A     -0.555049
      19A     -0.534871    20A     -0.528253    21A     -0.508512
      22A     -0.480568    23A     -0.447877    24A     -0.436659

  @DF-RHF Final Energy:  -305.96722094124368

   => Energetics <=

    Nuclear Repulsion Energy =            244.6984628798999495
    One-Electron Energy =                -902.1711234154306567
    Two-Electron Energy =                 351.5054395942870542
    Total Energy =                       -305.9672209412436814
  Basis Set: (AUG-CC-PVTZ AUX)
    Blend: AUG-CC-PVTZ-RI
    Molecular point group: c1

    Geometry (in Angstrom), charge = 0, multiplicity = 1:

       Center              X                  Y                   Z               Mass
    ------------   -----------------  -----------------  -----------------  -----------------
         O            1.134492845513    -0.685314940155     0.019220696575    15.994914619570
         O            0.041673845513     1.303219059845    -0.003276303425    15.994914619570
         C           -1.220917154487    -0.774383940155    -0.017452303425    12.000000000000
         C           -2.537774454487    -0.014757640155    -0.035952503425    12.000000000000
         C            0.060924845513     0.018441359845     0.000813396575    12.000000000000
         C            2.363768845513     0.062621059845     0.034539696575    12.000000000000
         H           -1.156036154487    -1.433147940155    -0.890114303425     1.007825032230
         H           -1.180481154487    -1.433881940155     0.856026696575     1.007825032230
         H           -2.527794154487     0.696334059845    -0.916287303425     1.007825032230
         H           -3.372723154487    -0.599036940155    -0.048347303425     1.007825032230
         H           -2.553220154487     0.695225059845     0.845134696575     1.007825032230
         H            3.152595845513    -0.686333940155     0.050113696575     1.007825032230
         H            2.413670845513     0.696624059845     0.920762696575     1.007825032230
         H            2.441053845513     0.688608059845    -0.855399303425     1.007825032230

  Basis Set: AUG-CC-PVTZ
    Blend: AUG-CC-PVTZ
  Basis Set: (AUG-CC-PVTZ AUX)
    Blend: AUG-CC-PVTZ-JKFIT
	 Reference Energy          =    -305.9672209412436814 [Eh]
	 Singles Energy            =      -0.0000000000000000 [Eh]
	 Same-Spin Energy          =      -0.2983095274984818 [Eh]
	 Opposite-Spin Energy      =      -0.9781715520195645 [Eh]
	 Correlation Energy        =      -1.2764810795180463 [Eh]
	 Total Energy              =    -307.2437020207617024 [Eh]

	 ================> DF-SCS-MP2 Energies <==================
	-----------------------------------------------------------
	 SCS Same-Spin Scale       =       0.3333333333333333 [-]
	 SCS Opposite-Spin Scale   =       1.2000000000000000 [-]
	 SCS Same-Spin Energy      =      -0.0994365091661606 [Eh]
	 SCS Opposite-Spin Energy  =      -1.1738058624234773 [Eh]
	 SCS Correlation Energy    =      -1.2732423715896379 [Eh]
	 SCS Total Energy          =    -307.2404633128332989 [Eh]
	-----------------------------------------------------------

  Dipole Moment: [D]
     X:     0.9576      Y:    -2.0110      Z:     0.0179     Total:     2.2275

*** Psi4 exiting successfully. Buy a developer a beer!
