                               Psi4 1.3.2 release

  ==> Input File <==

--------------------------------------------------------------------------
#psi4
#
memory 32 gb

molecule  {
0 1
  O        1.0929077    -0.7609646     0.0187813
  O       -0.0219077     1.2845547    -0.0042220
  C       -1.2206870    -0.7926310    -0.0174520
  C       -2.4959880     0.0348800    -0.0353530
  C        0.0179090     0.0662010     0.0002130
  C        2.3639990     0.0443740     0.0345400
  H       -1.1558060    -1.4513950    -0.8901140
  H       -1.1802510    -1.4521290     0.8560270
  H       -2.5275640     0.6780870    -0.9162870
  H       -3.3724930    -0.6172840    -0.0483470
  H       -2.5529900     0.6769780     0.8451350
  H        3.1528260    -0.7045810     0.0501140
  H        2.4139010     0.6783770     0.9207630
  H        2.4412840     0.6703610    -0.8553990
units angstrom
no_reorient  #important for SAPT in psi4, default
symmetry c1  #important for SAPT in psi4, default
}

set PROPERTIES_ORIGIN ["COM"]
properties('MP2/aug-cc-pvtz', properties = ['dipole'])
--------------------------------------------------------------------------

    Molecular point group: c1
  Charge       = 0
  Multiplicity = 1
  Basis Set: AUG-CC-PVTZ
    Blend: AUG-CC-PVTZ
  Basis Set: (AUG-CC-PVTZ AUX)
    Blend: AUG-CC-PVTZ-JKFIT

    Orbital Energies [Eh]
    ---------------------

    Doubly Occupied:

       1A    -20.611638     2A    -20.546989     3A    -11.378055
       4A    -11.294693     5A    -11.236993     6A    -11.214969
       7A     -1.444950     8A     -1.354310     9A     -1.059038
      10A     -0.968784    11A     -0.876083    12A     -0.764539
      13A     -0.694760    14A     -0.672214    15A     -0.664309
      16A     -0.615272    17A     -0.593582    18A     -0.547198
      19A     -0.542960    20A     -0.517969    21A     -0.514863
      22A     -0.492099    23A     -0.469412    24A     -0.443385

  @DF-RHF Final Energy:  -305.97779311905089

   => Energetics <=

    Nuclear Repulsion Energy =            244.2292362339735234
    One-Electron Energy =                -901.3759324877393055
    Two-Electron Energy =                 351.1689031347148671
    Total Energy =                       -305.9777931190508866
  Basis Set: (AUG-CC-PVTZ AUX)
    Blend: AUG-CC-PVTZ-RI
    Molecular point group: c1

    Geometry (in Angstrom), charge = 0, multiplicity = 1:

       Center              X                  Y                   Z               Mass
    ------------   -----------------  -----------------  -----------------  -----------------
         O            1.112095195387    -0.750461476808     0.019032916407    15.994914619570
         O           -0.002720204613     1.295057823192    -0.003970383593    15.994914619570
         C           -1.201499504613    -0.782127876808    -0.017200383593    12.000000000000
         C           -2.476800504613     0.045383123192    -0.035101383593    12.000000000000
         C            0.037096495387     0.076704123192     0.000464616407    12.000000000000
         C            2.383186495387     0.054877123192     0.034791616407    12.000000000000
         H           -1.136618504613    -1.440891876808    -0.889862383593     1.007825032230
         H           -1.161063504613    -1.441625876808     0.856278616407     1.007825032230
         H           -2.508376504613     0.688590123192    -0.916035383593     1.007825032230
         H           -3.353305504613    -0.606780876808    -0.048095383593     1.007825032230
         H           -2.533802504613     0.687481123192     0.845386616407     1.007825032230
         H            3.172013495387    -0.694077876808     0.050365616407     1.007825032230
         H            2.433088495387     0.688880123192     0.921014616407     1.007825032230
         H            2.460471495387     0.680864123192    -0.855147383593     1.007825032230

  Basis Set: AUG-CC-PVTZ
    Blend: AUG-CC-PVTZ
  Basis Set: (AUG-CC-PVTZ AUX)
    Blend: AUG-CC-PVTZ-JKFIT
	 Reference Energy          =    -305.9777931190508866 [Eh]
	 Singles Energy            =      -0.0000000000000000 [Eh]
	 Same-Spin Energy          =      -0.2981862440193622 [Eh]
	 Opposite-Spin Energy      =      -0.9792019566271550 [Eh]
	 Correlation Energy        =      -1.2773882006465174 [Eh]
	 Total Energy              =    -307.2551813196973853 [Eh]

	 ================> DF-SCS-MP2 Energies <==================
	-----------------------------------------------------------
	 SCS Same-Spin Scale       =       0.3333333333333333 [-]
	 SCS Opposite-Spin Scale   =       1.2000000000000000 [-]
	 SCS Same-Spin Energy      =      -0.0993954146731207 [Eh]
	 SCS Opposite-Spin Energy  =      -1.1750423479525860 [Eh]
	 SCS Correlation Energy    =      -1.2744377626257068 [Eh]
	 SCS Total Energy          =    -307.2522308816766099 [Eh]
	-----------------------------------------------------------

  Dipole Moment: [D]
     X:     0.8995      Y:    -1.4005      Z:     0.0155     Total:     1.6645

*** Psi4 exiting successfully. Buy a developer a beer!
