                               Psi4 1.3.2 release

  ==> Input File <==

--------------------------------------------------------------------------
#psi4
#
memory 32 gb

molecule  {
0 1
  O        1.1347230    -0.7035620     0.0192210
  O        0.0419040     1.2849720    -0.0032760
  C       -1.2206870    -0.7926310    -0.0174520
  C       -2.4959880     0.0348800    -0.0353530
  C       -0.0644198     0.1229461    -0.0011882
  C        2.3639990     0.0443740     0.0345400
  H       -1.1558060    -1.4513950    -0.8901140
  H       -1.1802510    -1.4521290     0.8560270
  H       -2.5275640     0.6780870    -0.9162870
  H       -3.3724930    -0.6172840    -0.0483470
  H       -2.5529900     0.6769780     0.8451350
  H        3.1528260    -0.7045810     0.0501140
  H        2.4139010     0.6783770     0.9207630
  H        2.4412840     0.6703610    -0.8553990
units angstrom
no_reorient  #important for SAPT in psi4, default
symmetry c1  #important for SAPT in psi4, default
}

set PROPERTIES_ORIGIN ["COM"]
properties('MP2/aug-cc-pvtz', properties = ['dipole'])
--------------------------------------------------------------------------

    Molecular point group: c1
  Charge       = 0
  Multiplicity = 1
  Basis Set: AUG-CC-PVTZ
    Blend: AUG-CC-PVTZ
  Basis Set: (AUG-CC-PVTZ AUX)
    Blend: AUG-CC-PVTZ-JKFIT

    Orbital Energies [Eh]
    ---------------------

    Doubly Occupied:

       1A    -20.576716     2A    -20.562872     3A    -11.379846
       4A    -11.271085     5A    -11.249630     6A    -11.225342
       7A     -1.456099     8A     -1.347397     9A     -1.077776
      10A     -0.951823    11A     -0.879584    12A     -0.755197
      13A     -0.706992    14A     -0.669309    15A     -0.667901
      16A     -0.617958    17A     -0.600379    18A     -0.548810
      19A     -0.537262    20A     -0.526561    21A     -0.518653
      22A     -0.505476    23A     -0.452750    24A     -0.447907

  @DF-RHF Final Energy:  -305.97608663505866

   => Energetics <=

    Nuclear Repulsion Energy =            244.9764445790283105
    One-Electron Energy =                -902.8384153697907095
    Two-Electron Energy =                 351.8858841557037067
    Total Energy =                       -305.9760866350586639
  Basis Set: (AUG-CC-PVTZ AUX)
    Blend: AUG-CC-PVTZ-RI
    Molecular point group: c1

    Geometry (in Angstrom), charge = 0, multiplicity = 1:

       Center              X                  Y                   Z               Mass
    ------------   -----------------  -----------------  -----------------  -----------------
         O            1.145943091756    -0.711295347658     0.019411859955    15.994914619570
         O            0.053124091756     1.277238652342    -0.003085140045    15.994914619570
         C           -1.209466908244    -0.800364347658    -0.017261140045    12.000000000000
         C           -2.484767908244     0.027146652342    -0.035162140045    12.000000000000
         C           -0.053199708244     0.115212752342    -0.000997340045    12.000000000000
         C            2.375219091756     0.036640652342     0.034730859955    12.000000000000
         H           -1.144585908244    -1.459128347658    -0.889923140045     1.007825032230
         H           -1.169030908244    -1.459862347658     0.856217859955     1.007825032230
         H           -2.516343908244     0.670353652342    -0.916096140045     1.007825032230
         H           -3.361272908244    -0.625017347658    -0.048156140045     1.007825032230
         H           -2.541769908244     0.669244652342     0.845325859955     1.007825032230
         H            3.164046091756    -0.712314347658     0.050304859955     1.007825032230
         H            2.425121091756     0.670643652342     0.920953859955     1.007825032230
         H            2.452504091756     0.662627652342    -0.855208140045     1.007825032230

  Basis Set: AUG-CC-PVTZ
    Blend: AUG-CC-PVTZ
  Basis Set: (AUG-CC-PVTZ AUX)
    Blend: AUG-CC-PVTZ-JKFIT
	 Reference Energy          =    -305.9760866350586639 [Eh]
	 Singles Energy            =      -0.0000000000000000 [Eh]
	 Same-Spin Energy          =      -0.2975853874470969 [Eh]
	 Opposite-Spin Energy      =      -0.9772156593207777 [Eh]
	 Correlation Energy        =      -1.2748010467678745 [Eh]
	 Total Energy              =    -307.2508876818265549 [Eh]

	 ================> DF-SCS-MP2 Energies <==================
	-----------------------------------------------------------
	 SCS Same-Spin Scale       =       0.3333333333333333 [-]
	 SCS Opposite-Spin Scale   =       1.2000000000000000 [-]
	 SCS Same-Spin Energy      =      -0.0991951291490323 [Eh]
	 SCS Opposite-Spin Energy  =      -1.1726587911849331 [Eh]
	 SCS Correlation Energy    =      -1.2718539203339654 [Eh]
	 SCS Total Energy          =    -307.2479405553926313 [Eh]
	-----------------------------------------------------------

  Dipole Moment: [D]
     X:    -0.3971      Y:    -1.1533      Z:    -0.0047     Total:     1.2198

*** Psi4 exiting successfully. Buy a developer a beer!
