                               Psi4 1.3.2 release

  ==> Input File <==

--------------------------------------------------------------------------
#psi4
#
memory 32 gb

molecule  {
0 1
  O        1.1347230    -0.7035620     0.0192210
  O        0.0419040     1.2849720    -0.0032760
  C       -1.2206870    -0.7926310    -0.0174520
  C       -2.5031600     0.0237184    -0.0354563
  C        0.0253557     0.0553585     0.0003165
  C        2.3639990     0.0443740     0.0345400
  H       -1.1558060    -1.4513950    -0.8901140
  H       -1.1802510    -1.4521290     0.8560270
  H       -2.5275640     0.6780870    -0.9162870
  H       -3.3724930    -0.6172840    -0.0483470
  H       -2.5529900     0.6769780     0.8451350
  H        3.1528260    -0.7045810     0.0501140
  H        2.4139010     0.6783770     0.9207630
  H        2.4412840     0.6703610    -0.8553990
units angstrom
no_reorient  #important for SAPT in psi4, default
symmetry c1  #important for SAPT in psi4, default
}

set PROPERTIES_ORIGIN ["COM"]
properties('MP2/aug-cc-pvtz', properties = ['dipole'])
--------------------------------------------------------------------------

    Molecular point group: c1
  Charge       = 0
  Multiplicity = 1
  Basis Set: AUG-CC-PVTZ
    Blend: AUG-CC-PVTZ
  Basis Set: (AUG-CC-PVTZ AUX)
    Blend: AUG-CC-PVTZ-JKFIT

    Orbital Energies [Eh]
    ---------------------

    Doubly Occupied:

       1A    -20.607293     2A    -20.542202     3A    -11.379842
       4A    -11.286077     5A    -11.245101     6A    -11.219983
       7A     -1.456907     8A     -1.348034     9A     -1.065821
      10A     -0.974773    11A     -0.878396    12A     -0.769110
      13A     -0.698373    14A     -0.678880    15A     -0.668314
      16A     -0.619323    17A     -0.599320    18A     -0.538389
      19A     -0.537028    20A     -0.524809    21A     -0.519153
      22A     -0.493185    23A     -0.461019    24A     -0.446544

  @DF-RHF Final Energy:  -305.98562829103003

   => Energetics <=

    Nuclear Repulsion Energy =            244.9921810062174643
    One-Electron Energy =                -902.8398667883113831
    Two-Electron Energy =                 351.8620574910638652
    Total Energy =                       -305.9856282910300251
  Basis Set: (AUG-CC-PVTZ AUX)
    Blend: AUG-CC-PVTZ-RI
    Molecular point group: c1

    Geometry (in Angstrom), charge = 0, multiplicity = 1:

       Center              X                  Y                   Z               Mass
    ------------   -----------------  -----------------  -----------------  -----------------
         O            1.134685685167    -0.700563214481     0.019220873742    15.994914619570
         O            0.041866685167     1.287970785519    -0.003276126258    15.994914619570
         C           -1.220724314833    -0.789632214481    -0.017452126258    12.000000000000
         C           -2.503197314833     0.026717185519    -0.035456426258    12.000000000000
         C            0.025318385167     0.058357285519     0.000316373742    12.000000000000
         C            2.363961685167     0.047372785519     0.034539873742    12.000000000000
         H           -1.155843314833    -1.448396214481    -0.890114126258     1.007825032230
         H           -1.180288314833    -1.449130214481     0.856026873742     1.007825032230
         H           -2.527601314833     0.681085785519    -0.916287126258     1.007825032230
         H           -3.372530314833    -0.614285214481    -0.048347126258     1.007825032230
         H           -2.553027314833     0.679976785519     0.845134873742     1.007825032230
         H            3.152788685167    -0.701582214481     0.050113873742     1.007825032230
         H            2.413863685167     0.681375785519     0.920762873742     1.007825032230
         H            2.441246685167     0.673359785519    -0.855399126258     1.007825032230

  Basis Set: AUG-CC-PVTZ
    Blend: AUG-CC-PVTZ
  Basis Set: (AUG-CC-PVTZ AUX)
    Blend: AUG-CC-PVTZ-JKFIT
	 Reference Energy          =    -305.9856282910300251 [Eh]
	 Singles Energy            =      -0.0000000000000000 [Eh]
	 Same-Spin Energy          =      -0.2975223018784335 [Eh]
	 Opposite-Spin Energy      =      -0.9767925343536235 [Eh]
	 Correlation Energy        =      -1.2743148362320569 [Eh]
	 Total Energy              =    -307.2599431272620905 [Eh]

	 ================> DF-SCS-MP2 Energies <==================
	-----------------------------------------------------------
	 SCS Same-Spin Scale       =       0.3333333333333333 [-]
	 SCS Opposite-Spin Scale   =       1.2000000000000000 [-]
	 SCS Same-Spin Energy      =      -0.0991741006261445 [Eh]
	 SCS Opposite-Spin Energy  =      -1.1721510412243481 [Eh]
	 SCS Correlation Energy    =      -1.2713251418504925 [Eh]
	 SCS Total Energy          =    -307.2569534328804934 [Eh]
	-----------------------------------------------------------

  Dipole Moment: [D]
     X:     0.5313      Y:    -1.6388      Z:     0.0107     Total:     1.7228

*** Psi4 exiting successfully. Buy a developer a beer!
