                               Psi4 1.4a3.dev225

  ==> Input File <==

--------------------------------------------------------------------------
#psi4
#
memory 32 gb

molecule  {
0 1
  O        1.1455950    -0.7206100    -0.0000020
  O        0.1065970     1.2988430     0.0000060
  C       -1.2145750    -0.7450000     0.0000080
  C       -2.4678730     0.1187130    -0.0000080
  C        0.0659623     0.0909569     0.0000029
  C        2.3963290    -0.0041190    -0.0000040
  H       -1.1806580    -1.4052490    -0.8737030
  H       -1.1806650    -1.4052230     0.8737390
  H       -2.4946670     0.7625720    -0.8811910
  H       -3.3622150    -0.5096080    -0.0000470
  H       -2.4947180     0.7625340     0.8812010
  H        3.1644210    -0.7750410    -0.0000210
  H        2.4762030     0.6232120     0.8890930
  H        2.4761870     0.6232350    -0.8890870
units angstrom
no_reorient  #important for SAPT in psi4, default
symmetry c1  #important for SAPT in psi4, default
}

set PROPERTIES_ORIGIN ["COM"]
properties('MP2/aug-cc-pvtz', properties = ['dipole'])
--------------------------------------------------------------------------

    Molecular point group: c1
  Charge       = 0
  Multiplicity = 1
  Basis Set: AUG-CC-PVTZ
    Blend: AUG-CC-PVTZ
  Basis Set: (AUG-CC-PVTZ AUX)
    Blend: AUG-CC-PVTZ-JKFIT

    Orbital Energies [Eh]
    ---------------------

    Doubly Occupied:

       1A    -20.605591     2A    -20.545878     3A    -11.377997
       4A    -11.285571     5A    -11.244438     6A    -11.219234
       7A     -1.457968     8A     -1.359450     9A     -1.060574
      10A     -0.971973    11A     -0.874247    12A     -0.768525
      13A     -0.698934    14A     -0.677928    15A     -0.670060
      16A     -0.618432    17A     -0.599061    18A     -0.540917
      19A     -0.537903    20A     -0.522048    21A     -0.519432
      22A     -0.495560    23A     -0.464985    24A     -0.445378

  @DF-RHF Final Energy:  -305.98695081172770

   => Energetics <=

    Nuclear Repulsion Energy =            244.9503855947231443
    One-Electron Energy =                -902.7505044986113489
    Two-Electron Energy =                 351.8131680921605380
    Total Energy =                       -305.9869508117276951
  Basis Set: (AUG-CC-PVTZ AUX)
    Blend: AUG-CC-PVTZ-RI
    Molecular point group: c1

    Geometry (in Angstrom), charge = 0, multiplicity = 1:

       Center              X                  Y                   Z               Mass
    ------------   -----------------  -----------------  -----------------  -----------------
         O            1.114131960501    -0.736980624992    -0.000002393566    15.994914619570
         O            0.075133960501     1.282472375008     0.000005606434    15.994914619570
         C           -1.246038039499    -0.761370624992     0.000007606434    12.000000000000
         C           -2.499336039499     0.102342375008    -0.000008393566    12.000000000000
         C            0.034499260501     0.074586275008     0.000002506434    12.000000000000
         C            2.364865960501    -0.020489624992    -0.000004393566    12.000000000000
         H           -1.212121039499    -1.421619624992    -0.873703393566     1.007825032230
         H           -1.212128039499    -1.421593624992     0.873738606434     1.007825032230
         H           -2.526130039499     0.746201375008    -0.881191393566     1.007825032230
         H           -3.393678039499    -0.525978624992    -0.000047393566     1.007825032230
         H           -2.526181039499     0.746163375008     0.881200606434     1.007825032230
         H            3.132957960501    -0.791411624992    -0.000021393566     1.007825032230
         H            2.444739960501     0.606841375008     0.889092606434     1.007825032230
         H            2.444723960501     0.606864375008    -0.889087393566     1.007825032230

  Basis Set: AUG-CC-PVTZ
    Blend: AUG-CC-PVTZ
  Basis Set: (AUG-CC-PVTZ AUX)
    Blend: AUG-CC-PVTZ-JKFIT
	 Reference Energy          =    -305.9869508117276951 [Eh]
	 Singles Energy            =      -0.0000000000000000 [Eh]
	 Same-Spin Energy          =      -0.2970599754492428 [Eh]
	 Opposite-Spin Energy      =      -0.9761123371157507 [Eh]
	 Correlation Energy        =      -1.2731723125649936 [Eh]
	 Total Energy              =    -307.2601231242927042 [Eh]

	 ================> DF-SCS-MP2 Energies <==================
	-----------------------------------------------------------
	 SCS Same-Spin Scale       =       0.3333333333333333 [-]
	 SCS Opposite-Spin Scale   =       1.2000000000000000 [-]
	 SCS Same-Spin Energy      =      -0.0990199918164143 [Eh]
	 SCS Opposite-Spin Energy  =      -1.1713348045389009 [Eh]
	 SCS Correlation Energy    =      -1.2703547963553152 [Eh]
	 SCS Total Energy          =    -307.2573056080830156 [Eh]
	-----------------------------------------------------------

  Dipole Moment: [D]
     X:     0.5144      Y:    -1.5174      Z:    -0.0000     Total:     1.6022

*** Psi4 exiting successfully. Buy a developer a beer!
