                               Psi4 1.3.2 release

  ==> Input File <==

--------------------------------------------------------------------------
#psi4
#
memory 32 gb

molecule  {
0 1
  O        1.1347230    -0.7035620     0.0192210
  O        0.0419040     1.2849720    -0.0032760
  C       -1.2206870    -0.7926310    -0.0174520
  C       -2.4959880     0.0348800    -0.0353530
  C       -0.0093285     0.1005069     0.0658535
  C        2.3639990     0.0443740     0.0345400
  H       -1.2064097    -1.4737936    -0.8750837
  H       -1.1802510    -1.4521290     0.8560270
  H       -2.5275640     0.6780870    -0.9162870
  H       -3.3724930    -0.6172840    -0.0483470
  H       -2.5529900     0.6769780     0.8451350
  H        3.1528260    -0.7045810     0.0501140
  H        2.4139010     0.6783770     0.9207630
  H        2.4412840     0.6703610    -0.8553990
units angstrom
no_reorient  #important for SAPT in psi4, default
symmetry c1  #important for SAPT in psi4, default
}

set PROPERTIES_ORIGIN ["COM"]
properties('MP2/aug-cc-pvtz', properties = ['dipole'])
--------------------------------------------------------------------------

    Molecular point group: c1
  Charge       = 0
  Multiplicity = 1
  Basis Set: AUG-CC-PVTZ
    Blend: AUG-CC-PVTZ
  Basis Set: (AUG-CC-PVTZ AUX)
    Blend: AUG-CC-PVTZ-JKFIT

    Orbital Energies [Eh]
    ---------------------

    Doubly Occupied:

       1A    -20.592985     2A    -20.554922     3A    -11.379616
       4A    -11.278797     5A    -11.246272     6A    -11.221006
       7A     -1.452157     8A     -1.360240     9A     -1.067120
      10A     -0.962219    11A     -0.875737    12A     -0.761618
      13A     -0.705408    14A     -0.671420    15A     -0.668509
      16A     -0.618480    17A     -0.601843    18A     -0.543576
      19A     -0.535262    20A     -0.522871    21A     -0.520906
      22A     -0.497481    23A     -0.461463    24A     -0.449909

  @DF-RHF Final Energy:  -305.98170349865762

   => Energetics <=

    Nuclear Repulsion Energy =            244.9569395743093594
    One-Electron Energy =                -902.7776505075212299
    Two-Electron Energy =                 351.8390074345542757
    Total Energy =                       -305.9817034986576232
  Basis Set: (AUG-CC-PVTZ AUX)
    Blend: AUG-CC-PVTZ-RI
    Molecular point group: c1

    Geometry (in Angstrom), charge = 0, multiplicity = 1:

       Center              X                  Y                   Z               Mass
    ------------   -----------------  -----------------  -----------------  -----------------
         O            1.139014311620    -0.707980910210     0.010103220576    15.994914619570
         O            0.046195311620     1.280553089790    -0.012393779424    15.994914619570
         C           -1.216395688380    -0.797049910210    -0.026569779424    12.000000000000
         C           -2.491696688380     0.030461089790    -0.044470779424    12.000000000000
         C           -0.005037188380     0.096087989790     0.056735720576    12.000000000000
         C            2.368290311620     0.039955089790     0.025422220576    12.000000000000
         H           -1.202118388380    -1.478212510210    -0.884201479424     1.007825032230
         H           -1.175959688380    -1.456547910210     0.846909220576     1.007825032230
         H           -2.523272688380     0.673668089790    -0.925404779424     1.007825032230
         H           -3.368201688380    -0.621702910210    -0.057464779424     1.007825032230
         H           -2.548698688380     0.672559089790     0.836017220576     1.007825032230
         H            3.157117311620    -0.708999910210     0.040996220576     1.007825032230
         H            2.418192311620     0.673958089790     0.911645220576     1.007825032230
         H            2.445575311620     0.665942089790    -0.864516779424     1.007825032230

  Basis Set: AUG-CC-PVTZ
    Blend: AUG-CC-PVTZ
  Basis Set: (AUG-CC-PVTZ AUX)
    Blend: AUG-CC-PVTZ-JKFIT
	 Reference Energy          =    -305.9817034986576232 [Eh]
	 Singles Energy            =      -0.0000000000000000 [Eh]
	 Same-Spin Energy          =      -0.2973095395523314 [Eh]
	 Opposite-Spin Energy      =      -0.9767344222707179 [Eh]
	 Correlation Energy        =      -1.2740439618230492 [Eh]
	 Total Energy              =    -307.2557474604806771 [Eh]

	 ================> DF-SCS-MP2 Energies <==================
	-----------------------------------------------------------
	 SCS Same-Spin Scale       =       0.3333333333333333 [-]
	 SCS Opposite-Spin Scale   =       1.2000000000000000 [-]
	 SCS Same-Spin Energy      =      -0.0991031798507771 [Eh]
	 SCS Opposite-Spin Energy  =      -1.1720813067248614 [Eh]
	 SCS Correlation Energy    =      -1.2711844865756385 [Eh]
	 SCS Total Energy          =    -307.2528879852332580 [Eh]
	-----------------------------------------------------------

  Dipole Moment: [D]
     X:     0.1384      Y:    -1.3369      Z:     0.0728     Total:     1.3460

*** Psi4 exiting successfully. Buy a developer a beer!
