                               Psi4 1.4a3.dev225

  ==> Input File <==

--------------------------------------------------------------------------
#psi4
#
memory 32 gb

molecule  {
0 1
  O        1.1455950    -0.7206100    -0.0000020
  O        0.1065970     1.2988430     0.0000060
  C       -1.2145750    -0.7450000     0.0000080
  C       -2.4678730     0.1187130    -0.0000080
  C        0.0492150     0.0800240     0.0000030
  C        2.4397144     0.0207346    -0.0000041
  H       -1.1806580    -1.4052490    -0.8737030
  H       -1.1806650    -1.4052230     0.8737390
  H       -2.4946670     0.7625720    -0.8811910
  H       -3.3622150    -0.5096080    -0.0000470
  H       -2.4947180     0.7625340     0.8812010
  H        3.1644210    -0.7750410    -0.0000210
  H        2.4762030     0.6232120     0.8890930
  H        2.4761870     0.6232350    -0.8890870
units angstrom
no_reorient  #important for SAPT in psi4, default
symmetry c1  #important for SAPT in psi4, default
}

set PROPERTIES_ORIGIN ["COM"]
properties('MP2/aug-cc-pvtz', properties = ['dipole'])
--------------------------------------------------------------------------

    Molecular point group: c1
  Charge       = 0
  Multiplicity = 1
  Basis Set: AUG-CC-PVTZ
    Blend: AUG-CC-PVTZ
  Basis Set: (AUG-CC-PVTZ AUX)
    Blend: AUG-CC-PVTZ-JKFIT

    Orbital Energies [Eh]
    ---------------------

    Doubly Occupied:

       1A    -20.599216     2A    -20.541967     3A    -11.376611
       4A    -11.286214     5A    -11.243894     6A    -11.219253
       7A     -1.442469     8A     -1.344403     9A     -1.062629
      10A     -0.971875    11A     -0.878348    12A     -0.760387
      13A     -0.695941    14A     -0.672306    15A     -0.659224
      16A     -0.620069    17A     -0.597721    18A     -0.544221
      19A     -0.542539    20A     -0.521211    21A     -0.514721
      22A     -0.495174    23A     -0.461674    24A     -0.444385

  @DF-RHF Final Energy:  -305.98349367493199

   => Energetics <=

    Nuclear Repulsion Energy =            243.9911891580674421
    One-Electron Energy =                -900.9564637484756986
    Two-Electron Energy =                 350.9817809154762926
    Total Energy =                       -305.9834936749319922
  Basis Set: (AUG-CC-PVTZ AUX)
    Blend: AUG-CC-PVTZ-RI
    Molecular point group: c1

    Geometry (in Angstrom), charge = 0, multiplicity = 1:

       Center              X                  Y                   Z               Mass
    ------------   -----------------  -----------------  -----------------  -----------------
         O            1.110501655218    -0.738877771964    -0.000002393566    15.994914619570
         O            0.071503655218     1.280575228036     0.000005606434    15.994914619570
         C           -1.249668344782    -0.763267771964     0.000007606434    12.000000000000
         C           -2.502966344782     0.100445228036    -0.000008393566    12.000000000000
         C            0.014121655218     0.061756228036     0.000002606434    12.000000000000
         C            2.404621055218     0.002466828036    -0.000004493566    12.000000000000
         H           -1.215751344782    -1.423516771964    -0.873703393566     1.007825032230
         H           -1.215758344782    -1.423490771964     0.873738606434     1.007825032230
         H           -2.529760344782     0.744304228036    -0.881191393566     1.007825032230
         H           -3.397308344782    -0.527875771964    -0.000047393566     1.007825032230
         H           -2.529811344782     0.744266228036     0.881200606434     1.007825032230
         H            3.129327655218    -0.793308771964    -0.000021393566     1.007825032230
         H            2.441109655218     0.604944228036     0.889092606434     1.007825032230
         H            2.441093655218     0.604967228036    -0.889087393566     1.007825032230

  Basis Set: AUG-CC-PVTZ
    Blend: AUG-CC-PVTZ
  Basis Set: (AUG-CC-PVTZ AUX)
    Blend: AUG-CC-PVTZ-JKFIT
	 Reference Energy          =    -305.9834936749319922 [Eh]
	 Singles Energy            =      -0.0000000000000000 [Eh]
	 Same-Spin Energy          =      -0.2974657028936030 [Eh]
	 Opposite-Spin Energy      =      -0.9774042063946640 [Eh]
	 Correlation Energy        =      -1.2748699092882669 [Eh]
	 Total Energy              =    -307.2583635842202625 [Eh]

	 ================> DF-SCS-MP2 Energies <==================
	-----------------------------------------------------------
	 SCS Same-Spin Scale       =       0.3333333333333333 [-]
	 SCS Opposite-Spin Scale   =       1.2000000000000000 [-]
	 SCS Same-Spin Energy      =      -0.0991552342978677 [Eh]
	 SCS Opposite-Spin Energy  =      -1.1728850476735968 [Eh]
	 SCS Correlation Energy    =      -1.2720402819714645 [Eh]
	 SCS Total Energy          =    -307.2555339569034345 [Eh]
	-----------------------------------------------------------

  Dipole Moment: [D]
     X:     0.5862      Y:    -1.5304      Z:    -0.0000     Total:     1.6389

*** Psi4 exiting successfully. Buy a developer a beer!
