                               Psi4 1.4a3.dev225

  ==> Input File <==

--------------------------------------------------------------------------
#psi4
#
memory 32 gb

molecule  {
0 1
  O        1.1455950    -0.7206100    -0.0000020
  O        0.1065970     1.2988430     0.0000060
  C       -1.2145750    -0.7450000     0.0000080
  C       -2.4678730     0.1187130    -0.0000080
  C        0.0653668     0.0682291     0.0000029
  C        2.3963290    -0.0041190    -0.0000040
  H       -1.1806580    -1.4052490    -0.8737030
  H       -1.1806650    -1.4052230     0.8737390
  H       -2.4946670     0.7625720    -0.8811910
  H       -3.3622150    -0.5096080    -0.0000470
  H       -2.4947180     0.7625340     0.8812010
  H        3.1644210    -0.7750410    -0.0000210
  H        2.4762030     0.6232120     0.8890930
  H        2.4761870     0.6232350    -0.8890870
units angstrom
no_reorient  #important for SAPT in psi4, default
symmetry c1  #important for SAPT in psi4, default
}

set PROPERTIES_ORIGIN ["COM"]
properties('MP2/aug-cc-pvtz', properties = ['dipole'])
--------------------------------------------------------------------------

    Molecular point group: c1
  Charge       = 0
  Multiplicity = 1
  Basis Set: AUG-CC-PVTZ
    Blend: AUG-CC-PVTZ
  Basis Set: (AUG-CC-PVTZ AUX)
    Blend: AUG-CC-PVTZ-JKFIT

    Orbital Energies [Eh]
    ---------------------

    Doubly Occupied:

       1A    -20.609175     2A    -20.541362     3A    -11.379593
       4A    -11.287387     5A    -11.245121     6A    -11.219672
       7A     -1.458998     8A     -1.347626     9A     -1.063357
      10A     -0.975676    11A     -0.877036    12A     -0.770444
      13A     -0.697091    14A     -0.679754    15A     -0.668924
      16A     -0.619517    17A     -0.597107    18A     -0.538489
      19A     -0.537907    20A     -0.523941    21A     -0.517410
      22A     -0.494791    23A     -0.461372    24A     -0.445090

  @DF-RHF Final Energy:  -305.98554356528984

   => Energetics <=

    Nuclear Repulsion Energy =            244.8692515949636004
    One-Electron Energy =                -902.5959091467979079
    Two-Electron Energy =                 351.7411139865444056
    Total Energy =                       -305.9855435652898450
  Basis Set: (AUG-CC-PVTZ AUX)
    Blend: AUG-CC-PVTZ-RI
    Molecular point group: c1

    Geometry (in Angstrom), charge = 0, multiplicity = 1:

       Center              X                  Y                   Z               Mass
    ------------   -----------------  -----------------  -----------------  -----------------
         O            1.114213116695    -0.733883224937    -0.000002393566    15.994914619570
         O            0.075215116695     1.285569775063     0.000005606434    15.994914619570
         C           -1.245956883305    -0.758273224937     0.000007606434    12.000000000000
         C           -2.499254883305     0.105439775063    -0.000008393566    12.000000000000
         C            0.033984916695     0.054955875063     0.000002506434    12.000000000000
         C            2.364947116695    -0.017392224937    -0.000004393566    12.000000000000
         H           -1.212039883305    -1.418522224937    -0.873703393566     1.007825032230
         H           -1.212046883305    -1.418496224937     0.873738606434     1.007825032230
         H           -2.526048883305     0.749298775063    -0.881191393566     1.007825032230
         H           -3.393596883305    -0.522881224937    -0.000047393566     1.007825032230
         H           -2.526099883305     0.749260775063     0.881200606434     1.007825032230
         H            3.133039116695    -0.788314224937    -0.000021393566     1.007825032230
         H            2.444821116695     0.609938775063     0.889092606434     1.007825032230
         H            2.444805116695     0.609961775063    -0.889087393566     1.007825032230

  Basis Set: AUG-CC-PVTZ
    Blend: AUG-CC-PVTZ
  Basis Set: (AUG-CC-PVTZ AUX)
    Blend: AUG-CC-PVTZ-JKFIT
	 Reference Energy          =    -305.9855435652898450 [Eh]
	 Singles Energy            =      -0.0000000000000000 [Eh]
	 Same-Spin Energy          =      -0.2974548824992859 [Eh]
	 Opposite-Spin Energy      =      -0.9767853191483289 [Eh]
	 Correlation Energy        =      -1.2742402016476149 [Eh]
	 Total Energy              =    -307.2597837669374599 [Eh]

	 ================> DF-SCS-MP2 Energies <==================
	-----------------------------------------------------------
	 SCS Same-Spin Scale       =       0.3333333333333333 [-]
	 SCS Opposite-Spin Scale   =       1.2000000000000000 [-]
	 SCS Same-Spin Energy      =      -0.0991516274997619 [Eh]
	 SCS Opposite-Spin Energy  =      -1.1721423829779947 [Eh]
	 SCS Correlation Energy    =      -1.2712940104777566 [Eh]
	 SCS Total Energy          =    -307.2568375757675767 [Eh]
	-----------------------------------------------------------

  Dipole Moment: [D]
     X:     0.5653      Y:    -1.6582      Z:    -0.0000     Total:     1.7519

*** Psi4 exiting successfully. Buy a developer a beer!
