                               Psi4 1.3.2 release

  ==> Input File <==

--------------------------------------------------------------------------
#psi4
#
memory 32 gb

molecule  {
0 1
  O        1.1347230    -0.7035620     0.0192210
  O        0.0419040     1.2849720    -0.0032760
  C       -1.2206870    -0.7926310    -0.0174520
  C       -2.4729211     0.0680841     0.0332111
  C        0.0179090     0.0662010     0.0002130
  C        2.3639990     0.0443740     0.0345400
  H       -1.1055312    -1.4704125    -0.8701359
  H       -1.1802510    -1.4521290     0.8560270
  H       -2.5275640     0.6780870    -0.9162870
  H       -3.3724930    -0.6172840    -0.0483470
  H       -2.5529900     0.6769780     0.8451350
  H        3.1528260    -0.7045810     0.0501140
  H        2.4139010     0.6783770     0.9207630
  H        2.4412840     0.6703610    -0.8553990
units angstrom
no_reorient  #important for SAPT in psi4, default
symmetry c1  #important for SAPT in psi4, default
}

set PROPERTIES_ORIGIN ["COM"]
properties('MP2/aug-cc-pvtz', properties = ['dipole'])
--------------------------------------------------------------------------

    Molecular point group: c1
  Charge       = 0
  Multiplicity = 1
  Basis Set: AUG-CC-PVTZ
    Blend: AUG-CC-PVTZ
  Basis Set: (AUG-CC-PVTZ AUX)
    Blend: AUG-CC-PVTZ-JKFIT

    Orbital Energies [Eh]
    ---------------------

    Doubly Occupied:

       1A    -20.603429     2A    -20.544381     3A    -11.377989
       4A    -11.284095     5A    -11.246007     6A    -11.222155
       7A     -1.453614     8A     -1.352552     9A     -1.066880
      10A     -0.971555    11A     -0.879690    12A     -0.766980
      13A     -0.699201    14A     -0.676891    15A     -0.667912
      16A     -0.622370    17A     -0.596413    18A     -0.552410
      19A     -0.532412    20A     -0.529397    21A     -0.509569
      22A     -0.490469    23A     -0.461960    24A     -0.446528

  @DF-RHF Final Energy:  -305.97801451300785

   => Energetics <=

    Nuclear Repulsion Energy =            245.3340545242961355
    One-Electron Energy =                -903.5144196020235086
    Two-Electron Energy =                 352.2023505647195520
    Total Energy =                       -305.9780145130078495
  Basis Set: (AUG-CC-PVTZ AUX)
    Blend: AUG-CC-PVTZ-RI
    Molecular point group: c1

    Geometry (in Angstrom), charge = 0, multiplicity = 1:

       Center              X                  Y                   Z               Mass
    ------------   -----------------  -----------------  -----------------  -----------------
         O            1.131004076337    -0.707869453401     0.009648154011    15.994914619570
         O            0.038185076337     1.280664546599    -0.012848845989    15.994914619570
         C           -1.224405923663    -0.796938453401    -0.027024845989    12.000000000000
         C           -2.476640023663     0.063776646599     0.023638254011    12.000000000000
         C            0.014190076337     0.061893546599    -0.009359845989    12.000000000000
         C            2.360280076337     0.040066546599     0.024967154011    12.000000000000
         H           -1.109250123663    -1.474719953401    -0.879708745989     1.007825032230
         H           -1.183969923663    -1.456436453401     0.846454154011     1.007825032230
         H           -2.531282923663     0.673779546599    -0.925859845989     1.007825032230
         H           -3.376211923663    -0.621591453401    -0.057919845989     1.007825032230
         H           -2.556708923663     0.672670546599     0.835562154011     1.007825032230
         H            3.149107076337    -0.708888453401     0.040541154011     1.007825032230
         H            2.410182076337     0.674069546599     0.911190154011     1.007825032230
         H            2.437565076337     0.666053546599    -0.864971845989     1.007825032230

  Basis Set: AUG-CC-PVTZ
    Blend: AUG-CC-PVTZ
  Basis Set: (AUG-CC-PVTZ AUX)
    Blend: AUG-CC-PVTZ-JKFIT
	 Reference Energy          =    -305.9780145130078495 [Eh]
	 Singles Energy            =      -0.0000000000000000 [Eh]
	 Same-Spin Energy          =      -0.2975956508974809 [Eh]
	 Opposite-Spin Energy      =      -0.9769469699697648 [Eh]
	 Correlation Energy        =      -1.2745426208672457 [Eh]
	 Total Energy              =    -307.2525571338750865 [Eh]

	 ================> DF-SCS-MP2 Energies <==================
	-----------------------------------------------------------
	 SCS Same-Spin Scale       =       0.3333333333333333 [-]
	 SCS Opposite-Spin Scale   =       1.2000000000000000 [-]
	 SCS Same-Spin Energy      =      -0.0991985502991603 [Eh]
	 SCS Opposite-Spin Energy  =      -1.1723363639637177 [Eh]
	 SCS Correlation Energy    =      -1.2715349142628780 [Eh]
	 SCS Total Energy          =    -307.2495494272707219 [Eh]
	-----------------------------------------------------------

  Dipole Moment: [D]
     X:     0.4574      Y:    -1.5672      Z:     0.0328     Total:     1.6330

*** Psi4 exiting successfully. Buy a developer a beer!
