                               Psi4 1.3.2 release

  ==> Input File <==

--------------------------------------------------------------------------
#psi4
#
memory 32 gb

molecule  {
0 1
  O        1.1347230    -0.7035620     0.0192210
  O        0.0419040     1.2849720    -0.0032760
  C       -1.2206870    -0.7926310    -0.0174520
  C       -2.5029030     0.0233033    -0.0582061
  C        0.0179090     0.0662010     0.0002130
  C        2.3639990     0.0443740     0.0345400
  H       -1.1726106    -1.4446519    -0.8962443
  H       -1.1802510    -1.4521290     0.8560270
  H       -2.5275640     0.6780870    -0.9162870
  H       -3.3724930    -0.6172840    -0.0483470
  H       -2.5529900     0.6769780     0.8451350
  H        3.1528260    -0.7045810     0.0501140
  H        2.4139010     0.6783770     0.9207630
  H        2.4412840     0.6703610    -0.8553990
units angstrom
no_reorient  #important for SAPT in psi4, default
symmetry c1  #important for SAPT in psi4, default
}

set PROPERTIES_ORIGIN ["COM"]
properties('MP2/aug-cc-pvtz', properties = ['dipole'])
--------------------------------------------------------------------------

    Molecular point group: c1
  Charge       = 0
  Multiplicity = 1
  Basis Set: AUG-CC-PVTZ
    Blend: AUG-CC-PVTZ
  Basis Set: (AUG-CC-PVTZ AUX)
    Blend: AUG-CC-PVTZ-JKFIT

    Orbital Energies [Eh]
    ---------------------

    Doubly Occupied:

       1A    -20.604119     2A    -20.545152     3A    -11.379643
       4A    -11.284453     5A    -11.245277     6A    -11.220155
       7A     -1.454094     8A     -1.353006     9A     -1.066080
      10A     -0.971937    11A     -0.877648    12A     -0.766982
      13A     -0.699877    14A     -0.677022    15A     -0.668096
      16A     -0.619830    17A     -0.600585    18A     -0.539583
      19A     -0.536569    20A     -0.524073    21A     -0.520243
      22A     -0.492662    23A     -0.462181    24A     -0.447976

  @DF-RHF Final Energy:  -305.98561999606272

   => Energetics <=

    Nuclear Repulsion Energy =            244.9849158688898854
    One-Electron Energy =                -902.8265870289626491
    Two-Electron Energy =                 351.8560511640100685
    Total Energy =                       -305.9856199960627237
  Basis Set: (AUG-CC-PVTZ AUX)
    Blend: AUG-CC-PVTZ-RI
    Molecular point group: c1

    Geometry (in Angstrom), charge = 0, multiplicity = 1:

       Center              X                  Y                   Z               Mass
    ------------   -----------------  -----------------  -----------------  -----------------
         O            1.135857856078    -0.702061465758     0.022405543051    15.994914619570
         O            0.043038856078     1.286472534242    -0.000091456949    15.994914619570
         C           -1.219552143922    -0.791130465758    -0.014267456949    12.000000000000
         C           -2.501768143922     0.024803834242    -0.055021556949    12.000000000000
         C            0.019043856078     0.067701534242     0.003397543051    12.000000000000
         C            2.365133856078     0.045874534242     0.037724543051    12.000000000000
         H           -1.171475743922    -1.443151365758    -0.893059756949     1.007825032230
         H           -1.179116143922    -1.450628465758     0.859211543051     1.007825032230
         H           -2.526429143922     0.679587534242    -0.913102456949     1.007825032230
         H           -3.371358143922    -0.615783465758    -0.045162456949     1.007825032230
         H           -2.551855143922     0.678478534242     0.848319543051     1.007825032230
         H            3.153960856078    -0.703080465758     0.053298543051     1.007825032230
         H            2.415035856078     0.679877534242     0.923947543051     1.007825032230
         H            2.442418856078     0.671861534242    -0.852214456949     1.007825032230

  Basis Set: AUG-CC-PVTZ
    Blend: AUG-CC-PVTZ
  Basis Set: (AUG-CC-PVTZ AUX)
    Blend: AUG-CC-PVTZ-JKFIT
	 Reference Energy          =    -305.9856199960627237 [Eh]
	 Singles Energy            =      -0.0000000000000000 [Eh]
	 Same-Spin Energy          =      -0.2974118195537198 [Eh]
	 Opposite-Spin Energy      =      -0.9766749000443076 [Eh]
	 Correlation Energy        =      -1.2740867195980274 [Eh]
	 Total Energy              =    -307.2597067156607409 [Eh]

	 ================> DF-SCS-MP2 Energies <==================
	-----------------------------------------------------------
	 SCS Same-Spin Scale       =       0.3333333333333333 [-]
	 SCS Opposite-Spin Scale   =       1.2000000000000000 [-]
	 SCS Same-Spin Energy      =      -0.0991372731845733 [Eh]
	 SCS Opposite-Spin Energy  =      -1.1720098800531691 [Eh]
	 SCS Correlation Energy    =      -1.2711471532377423 [Eh]
	 SCS Total Energy          =    -307.2567671493004582 [Eh]
	-----------------------------------------------------------

  Dipole Moment: [D]
     X:     0.4453      Y:    -1.5656      Z:    -0.0010     Total:     1.6277

*** Psi4 exiting successfully. Buy a developer a beer!
