                               Psi4 1.3.2 release

  ==> Input File <==

--------------------------------------------------------------------------
#psi4
#
memory 32 gb

molecule  {
0 1
  O        1.1347230    -0.7035620     0.0192210
  O        0.0419040     1.2849720    -0.0032760
  C       -1.2206870    -0.7926310    -0.0174520
  C       -2.4959880     0.0348800    -0.0353530
  C        0.0179090     0.0662010     0.0002130
  C        2.4494239     0.0963496     0.0356045
  H       -1.1558060    -1.4513950    -0.8901140
  H       -1.1802510    -1.4521290     0.8560270
  H       -2.5275640     0.6780870    -0.9162870
  H       -3.3724930    -0.6172840    -0.0483470
  H       -2.5529900     0.6769780     0.8451350
  H        3.1528260    -0.7045810     0.0501140
  H        2.4139010     0.6783770     0.9207630
  H        2.4412840     0.6703610    -0.8553990
units angstrom
no_reorient  #important for SAPT in psi4, default
symmetry c1  #important for SAPT in psi4, default
}

set PROPERTIES_ORIGIN ["COM"]
properties('MP2/aug-cc-pvtz', properties = ['dipole'])
--------------------------------------------------------------------------

    Molecular point group: c1
  Charge       = 0
  Multiplicity = 1
  Basis Set: AUG-CC-PVTZ
    Blend: AUG-CC-PVTZ
  Basis Set: (AUG-CC-PVTZ AUX)
    Blend: AUG-CC-PVTZ-JKFIT

    Orbital Energies [Eh]
    ---------------------

    Doubly Occupied:

       1A    -20.594075     2A    -20.538923     3A    -11.373171
       4A    -11.288310     5A    -11.241489     6A    -11.217545
       7A     -1.434687     8A     -1.337597     9A     -1.060811
      10A     -0.973805    11A     -0.878676    12A     -0.754912
      13A     -0.693581    14A     -0.670024    15A     -0.652665
      16A     -0.621533    17A     -0.599443    18A     -0.548881
      19A     -0.546269    20A     -0.519476    21A     -0.508186
      22A     -0.494029    23A     -0.460057    24A     -0.441489

  @DF-RHF Final Energy:  -305.97802365186732

   => Energetics <=

    Nuclear Repulsion Energy =            243.4110972419434233
    One-Electron Energy =                -899.8789712071310305
    Two-Electron Energy =                 350.4898503133203462
    Total Energy =                       -305.9780236518673178
  Basis Set: (AUG-CC-PVTZ AUX)
    Blend: AUG-CC-PVTZ-RI
    Molecular point group: c1

    Geometry (in Angstrom), charge = 0, multiplicity = 1:

       Center              X                  Y                   Z               Mass
    ------------   -----------------  -----------------  -----------------  -----------------
         O            1.123081208086    -0.710645348558     0.019075828341    15.994914619570
         O            0.030262208086     1.277888651442    -0.003421171659    15.994914619570
         C           -1.232328791914    -0.799714348558    -0.017597171659    12.000000000000
         C           -2.507629791914     0.027796651442    -0.035498171659    12.000000000000
         C            0.006267208086     0.059117651442     0.000067828341    12.000000000000
         C            2.437782108086     0.089266251442     0.035459328341    12.000000000000
         H           -1.167447791914    -1.458478348558    -0.890259171659     1.007825032230
         H           -1.191892791914    -1.459212348558     0.855881828341     1.007825032230
         H           -2.539205791914     0.671003651442    -0.916432171659     1.007825032230
         H           -3.384134791914    -0.624367348558    -0.048492171659     1.007825032230
         H           -2.564631791914     0.669894651442     0.844989828341     1.007825032230
         H            3.141184208086    -0.711664348558     0.049968828341     1.007825032230
         H            2.402259208086     0.671293651442     0.920617828341     1.007825032230
         H            2.429642208086     0.663277651442    -0.855544171659     1.007825032230

  Basis Set: AUG-CC-PVTZ
    Blend: AUG-CC-PVTZ
  Basis Set: (AUG-CC-PVTZ AUX)
    Blend: AUG-CC-PVTZ-JKFIT
	 Reference Energy          =    -305.9780236518673178 [Eh]
	 Singles Energy            =      -0.0000000000000000 [Eh]
	 Same-Spin Energy          =      -0.2975982881867111 [Eh]
	 Opposite-Spin Energy      =      -0.9780160382012620 [Eh]
	 Correlation Energy        =      -1.2756143263879731 [Eh]
	 Total Energy              =    -307.2536379782553126 [Eh]

	 ================> DF-SCS-MP2 Energies <==================
	-----------------------------------------------------------
	 SCS Same-Spin Scale       =       0.3333333333333333 [-]
	 SCS Opposite-Spin Scale   =       1.2000000000000000 [-]
	 SCS Same-Spin Energy      =      -0.0991994293955704 [Eh]
	 SCS Opposite-Spin Energy  =      -1.1736192458415144 [Eh]
	 SCS Correlation Energy    =      -1.2728186752370849 [Eh]
	 SCS Total Energy          =    -307.2508423271044080 [Eh]
	-----------------------------------------------------------

  Dipole Moment: [D]
     X:     0.7931      Y:    -1.4734      Z:     0.0140     Total:     1.6734

*** Psi4 exiting successfully. Buy a developer a beer!
