                               Psi4 1.3.2 release

  ==> Input File <==

--------------------------------------------------------------------------
#psi4
#
memory 32 gb

molecule  {
0 1
  O        1.1490395    -0.7245177    -0.0241241
  O        0.0419040     1.2849720    -0.0032760
  C       -1.2206870    -0.7926310    -0.0174520
  C       -2.4959880     0.0348800    -0.0353530
  C        0.0179090     0.0662010     0.0002130
  C        2.3639990     0.0443740     0.0345400
  H       -1.1558060    -1.4513950    -0.8901140
  H       -1.1802510    -1.4521290     0.8560270
  H       -2.5275640     0.6780870    -0.9162870
  H       -3.3724930    -0.6172840    -0.0483470
  H       -2.5529900     0.6769780     0.8451350
  H        3.1528260    -0.7045810     0.0501140
  H        2.4479334     0.6908491     0.9091063
  H        2.4412840     0.6703610    -0.8553990
units angstrom
no_reorient  #important for SAPT in psi4, default
symmetry c1  #important for SAPT in psi4, default
}

set PROPERTIES_ORIGIN ["COM"]
properties('MP2/aug-cc-pvtz', properties = ['dipole'])
--------------------------------------------------------------------------

    Molecular point group: c1
  Charge       = 0
  Multiplicity = 1
  Basis Set: AUG-CC-PVTZ
    Blend: AUG-CC-PVTZ
  Basis Set: (AUG-CC-PVTZ AUX)
    Blend: AUG-CC-PVTZ-JKFIT

    Orbital Energies [Eh]
    ---------------------

    Doubly Occupied:

       1A    -20.604084     2A    -20.549841     3A    -11.382658
       4A    -11.282300     5A    -11.246529     6A    -11.221224
       7A     -1.447448     8A     -1.354182     9A     -1.066563
      10A     -0.967415    11A     -0.878843    12A     -0.765616
      13A     -0.699913    14A     -0.673299    15A     -0.666480
      16A     -0.619908    17A     -0.598499    18A     -0.538154
      19A     -0.535051    20A     -0.525491    21A     -0.521619
      22A     -0.496568    23A     -0.463241    24A     -0.448933

  @DF-RHF Final Energy:  -305.98339558751604

   => Energetics <=

    Nuclear Repulsion Energy =            244.4069071556623953
    One-Electron Energy =                -901.6728858483753584
    Two-Electron Energy =                 351.2825831051968635
    Total Energy =                       -305.9833955875160427
  Basis Set: (AUG-CC-PVTZ AUX)
    Blend: AUG-CC-PVTZ-RI
    Molecular point group: c1

    Geometry (in Angstrom), charge = 0, multiplicity = 1:

       Center              X                  Y                   Z               Mass
    ------------   -----------------  -----------------  -----------------  -----------------
         O            1.146049472774    -0.720853791008    -0.016117048128    15.994914619570
         O            0.038913972774     1.288635908992     0.004731051872    15.994914619570
         C           -1.223677027226    -0.788967091008    -0.009444948128    12.000000000000
         C           -2.498978027226     0.038543908992    -0.027345948128    12.000000000000
         C            0.014918972774     0.069864908992     0.008220051872    12.000000000000
         C            2.361008972774     0.048037908992     0.042547051872    12.000000000000
         H           -1.158796027226    -1.447731091008    -0.882106948128     1.007825032230
         H           -1.183241027226    -1.448465091008     0.864034051872     1.007825032230
         H           -2.530554027226     0.681750908992    -0.908279948128     1.007825032230
         H           -3.375483027226    -0.613620091008    -0.040339948128     1.007825032230
         H           -2.555980027226     0.680641908992     0.853142051872     1.007825032230
         H            3.149835972774    -0.700917091008     0.058121051872     1.007825032230
         H            2.444943372774     0.694513008992     0.917113351872     1.007825032230
         H            2.438293972774     0.674024908992    -0.847391948128     1.007825032230

  Basis Set: AUG-CC-PVTZ
    Blend: AUG-CC-PVTZ
  Basis Set: (AUG-CC-PVTZ AUX)
    Blend: AUG-CC-PVTZ-JKFIT
	 Reference Energy          =    -305.9833955875160427 [Eh]
	 Singles Energy            =      -0.0000000000000000 [Eh]
	 Same-Spin Energy          =      -0.2977865854504794 [Eh]
	 Opposite-Spin Energy      =      -0.9777322036889140 [Eh]
	 Correlation Energy        =      -1.2755187891393933 [Eh]
	 Total Energy              =    -307.2589143766554116 [Eh]

	 ================> DF-SCS-MP2 Energies <==================
	-----------------------------------------------------------
	 SCS Same-Spin Scale       =       0.3333333333333333 [-]
	 SCS Opposite-Spin Scale   =       1.2000000000000000 [-]
	 SCS Same-Spin Energy      =      -0.0992621951501598 [Eh]
	 SCS Opposite-Spin Energy  =      -1.1732786444266967 [Eh]
	 SCS Correlation Energy    =      -1.2725408395768565 [Eh]
	 SCS Total Energy          =    -307.2559364270928768 [Eh]
	-----------------------------------------------------------

  Dipole Moment: [D]
     X:     0.3029      Y:    -1.4708      Z:     0.0687     Total:     1.5032

*** Psi4 exiting successfully. Buy a developer a beer!
