                               Psi4 1.3.2 release

  ==> Input File <==

--------------------------------------------------------------------------
#psi4
#
memory 32 gb

molecule  {
0 1
  O        1.1347230    -0.7035620     0.0192210
  O        0.0419040     1.2849720    -0.0032760
  C       -1.2206870    -0.7926310    -0.0174520
  C       -2.4959880     0.0348800    -0.0353530
  C        0.0246687     0.0759189     0.0002776
  C        2.3574265     0.0550736     0.0344065
  H       -1.1558060    -1.4513950    -0.8901140
  H       -1.1802510    -1.4521290     0.8560270
  H       -2.5275640     0.6780870    -0.9162870
  H       -3.3724930    -0.6172840    -0.0483470
  H       -2.5529900     0.6769780     0.8451350
  H        3.1528260    -0.7045810     0.0501140
  H        2.4139010     0.6783770     0.9207630
  H        2.4412840     0.6703610    -0.8553990
units angstrom
no_reorient  #important for SAPT in psi4, default
symmetry c1  #important for SAPT in psi4, default
}

set PROPERTIES_ORIGIN ["COM"]
properties('MP2/aug-cc-pvtz', properties = ['dipole'])
--------------------------------------------------------------------------

    Molecular point group: c1
  Charge       = 0
  Multiplicity = 1
  Basis Set: AUG-CC-PVTZ
    Blend: AUG-CC-PVTZ
  Basis Set: (AUG-CC-PVTZ AUX)
    Blend: AUG-CC-PVTZ-JKFIT

    Orbital Energies [Eh]
    ---------------------

    Doubly Occupied:

       1A    -20.604180     2A    -20.546399     3A    -11.378105
       4A    -11.284204     5A    -11.244602     6A    -11.219620
       7A     -1.456587     8A     -1.358459     9A     -1.063507
      10A     -0.970819    11A     -0.875777    12A     -0.767732
      13A     -0.699846    14A     -0.678241    15A     -0.669313
      16A     -0.620059    17A     -0.597857    18A     -0.541670
      19A     -0.534774    20A     -0.523249    21A     -0.520086
      22A     -0.496125    23A     -0.464926    24A     -0.446903

  @DF-RHF Final Energy:  -305.98682253877621

   => Energetics <=

    Nuclear Repulsion Energy =            245.2100934597976618
    One-Electron Energy =                -903.2677479834665064
    Two-Electron Energy =                 352.0708319848926067
    Total Energy =                       -305.9868225387762095
  Basis Set: (AUG-CC-PVTZ AUX)
    Blend: AUG-CC-PVTZ-RI
    Molecular point group: c1

    Geometry (in Angstrom), charge = 0, multiplicity = 1:

       Center              X                  Y                   Z               Mass
    ------------   -----------------  -----------------  -----------------  -----------------
         O            1.134697609880    -0.706344533666     0.019230290859    15.994914619570
         O            0.041878609880     1.282189466334    -0.003266709141    15.994914619570
         C           -1.220712390120    -0.795413533666    -0.017442709141    12.000000000000
         C           -2.496013390120     0.032097466334    -0.035343709141    12.000000000000
         C            0.024643309880     0.073136366334     0.000286890859    12.000000000000
         C            2.357401109880     0.052291066334     0.034415790859    12.000000000000
         H           -1.155831390120    -1.454177533666    -0.890104709141     1.007825032230
         H           -1.180276390120    -1.454911533666     0.856036290859     1.007825032230
         H           -2.527589390120     0.675304466334    -0.916277709141     1.007825032230
         H           -3.372518390120    -0.620066533666    -0.048337709141     1.007825032230
         H           -2.553015390120     0.674195466334     0.845144290859     1.007825032230
         H            3.152800609880    -0.707363533666     0.050123290859     1.007825032230
         H            2.413875609880     0.675594466334     0.920772290859     1.007825032230
         H            2.441258609880     0.667578466334    -0.855389709141     1.007825032230

  Basis Set: AUG-CC-PVTZ
    Blend: AUG-CC-PVTZ
  Basis Set: (AUG-CC-PVTZ AUX)
    Blend: AUG-CC-PVTZ-JKFIT
	 Reference Energy          =    -305.9868225387762095 [Eh]
	 Singles Energy            =      -0.0000000000000000 [Eh]
	 Same-Spin Energy          =      -0.2971989807631726 [Eh]
	 Opposite-Spin Energy      =      -0.9762575778977487 [Eh]
	 Correlation Energy        =      -1.2734565586609214 [Eh]
	 Total Energy              =    -307.2602790974371487 [Eh]

	 ================> DF-SCS-MP2 Energies <==================
	-----------------------------------------------------------
	 SCS Same-Spin Scale       =       0.3333333333333333 [-]
	 SCS Opposite-Spin Scale   =       1.2000000000000000 [-]
	 SCS Same-Spin Energy      =      -0.0990663269210575 [Eh]
	 SCS Opposite-Spin Energy  =      -1.1715090934772985 [Eh]
	 SCS Correlation Energy    =      -1.2705754203983561 [Eh]
	 SCS Total Energy          =    -307.2573979591745683 [Eh]
	-----------------------------------------------------------

  Dipole Moment: [D]
     X:     0.4651      Y:    -1.4963      Z:     0.0094     Total:     1.5669

*** Psi4 exiting successfully. Buy a developer a beer!
