                               Psi4 1.3.2 release

  ==> Input File <==

--------------------------------------------------------------------------
#psi4
#
memory 32 gb

molecule  {
0 1
  O        1.1347230    -0.7035620     0.0192210
  O        0.0419040     1.2849720    -0.0032760
  C       -1.2206870    -0.7926310    -0.0174520
  C       -2.4959880     0.0348800    -0.0353530
  C       -0.1467486     0.1796911    -0.0025894
  C        2.3639990     0.0443740     0.0345400
  H       -1.1558060    -1.4513950    -0.8901140
  H       -1.1802510    -1.4521290     0.8560270
  H       -2.5275640     0.6780870    -0.9162870
  H       -3.3724930    -0.6172840    -0.0483470
  H       -2.5529900     0.6769780     0.8451350
  H        3.1528260    -0.7045810     0.0501140
  H        2.4139010     0.6783770     0.9207630
  H        2.4412840     0.6703610    -0.8553990
units angstrom
no_reorient  #important for SAPT in psi4, default
symmetry c1  #important for SAPT in psi4, default
}

set PROPERTIES_ORIGIN ["COM"]
properties('MP2/aug-cc-pvtz', properties = ['dipole'])
--------------------------------------------------------------------------

    Molecular point group: c1
  Charge       = 0
  Multiplicity = 1
  Basis Set: AUG-CC-PVTZ
    Blend: AUG-CC-PVTZ
  Basis Set: (AUG-CC-PVTZ AUX)
    Blend: AUG-CC-PVTZ-JKFIT

    Orbital Energies [Eh]
    ---------------------

    Doubly Occupied:

       1A    -20.581755     2A    -20.546316     3A    -11.382816
       4A    -11.257264     5A    -11.256322     6A    -11.231577
       7A     -1.491052     8A     -1.315026     9A     -1.091805
      10A     -0.937164    11A     -0.877778    12A     -0.759486
      13A     -0.711173    14A     -0.680463    15A     -0.672617
      16A     -0.610286    17A     -0.590576    18A     -0.565638
      19A     -0.545387    20A     -0.534552    21A     -0.515272
      22A     -0.511928    23A     -0.432279    24A     -0.428906

  @DF-RHF Final Energy:  -305.94794858588057

   => Energetics <=

    Nuclear Repulsion Energy =            244.9892576430876829
    One-Electron Energy =                -902.8195384437774464
    Two-Electron Energy =                 351.8823322148091393
    Total Energy =                       -305.9479485858805674
  Basis Set: (AUG-CC-PVTZ AUX)
    Blend: AUG-CC-PVTZ-RI
    Molecular point group: c1

    Geometry (in Angstrom), charge = 0, multiplicity = 1:

       Center              X                  Y                   Z               Mass
    ------------   -----------------  -----------------  -----------------  -----------------
         O            1.157163061558    -0.719028694755     0.019602818911    15.994914619570
         O            0.064344061558     1.269505305245    -0.002894181089    15.994914619570
         C           -1.198246938442    -0.808097694755    -0.017070181089    12.000000000000
         C           -2.473547938442     0.019413305245    -0.034971181089    12.000000000000
         C           -0.124308538442     0.164224405245    -0.002207581089    12.000000000000
         C            2.386439061558     0.028907305245     0.034921818911    12.000000000000
         H           -1.133365938442    -1.466861694755    -0.889732181089     1.007825032230
         H           -1.157810938442    -1.467595694755     0.856408818911     1.007825032230
         H           -2.505123938442     0.662620305245    -0.915905181089     1.007825032230
         H           -3.350052938442    -0.632750694755    -0.047965181089     1.007825032230
         H           -2.530549938442     0.661511305245     0.845516818911     1.007825032230
         H            3.175266061558    -0.720047694755     0.050495818911     1.007825032230
         H            2.436341061558     0.662910305245     0.921144818911     1.007825032230
         H            2.463724061558     0.654894305245    -0.855017181089     1.007825032230

  Basis Set: AUG-CC-PVTZ
    Blend: AUG-CC-PVTZ
  Basis Set: (AUG-CC-PVTZ AUX)
    Blend: AUG-CC-PVTZ-JKFIT
	 Reference Energy          =    -305.9479485858805674 [Eh]
	 Singles Energy            =      -0.0000000000000000 [Eh]
	 Same-Spin Energy          =      -0.2983121068858456 [Eh]
	 Opposite-Spin Energy      =      -0.9786863065410856 [Eh]
	 Correlation Energy        =      -1.2769984134269312 [Eh]
	 Total Energy              =    -307.2249469993075195 [Eh]

	 ================> DF-SCS-MP2 Energies <==================
	-----------------------------------------------------------
	 SCS Same-Spin Scale       =       0.3333333333333333 [-]
	 SCS Opposite-Spin Scale   =       1.2000000000000000 [-]
	 SCS Same-Spin Energy      =      -0.0994373689619485 [Eh]
	 SCS Opposite-Spin Energy  =      -1.1744235678493027 [Eh]
	 SCS Correlation Energy    =      -1.2738609368112512 [Eh]
	 SCS Total Energy          =    -307.2218095226918422 [Eh]
	-----------------------------------------------------------

  Dipole Moment: [D]
     X:    -1.3004      Y:    -0.7268      Z:    -0.0196     Total:     1.4899

*** Psi4 exiting successfully. Buy a developer a beer!
