                               Psi4 1.3.2 release

  ==> Input File <==

--------------------------------------------------------------------------
#psi4
#
memory 32 gb

molecule  {
0 1
  O        1.1281253    -0.6927408     0.0409039
  O        0.0419040     1.2849720    -0.0032760
  C       -1.2206870    -0.7926310    -0.0174520
  C       -2.4959880     0.0348800    -0.0353530
  C        0.0179090     0.0662010     0.0002130
  C        2.3639990     0.0443740     0.0345400
  H       -1.1558060    -1.4513950    -0.8901140
  H       -1.1802510    -1.4521290     0.8560270
  H       -2.5275640     0.6780870    -0.9162870
  H       -3.3724930    -0.6172840    -0.0483470
  H       -2.5529900     0.6769780     0.8451350
  H        3.1528260    -0.7045810     0.0501140
  H        2.3968594     0.6718503     0.9261873
  H        2.4412840     0.6703610    -0.8553990
units angstrom
no_reorient  #important for SAPT in psi4, default
symmetry c1  #important for SAPT in psi4, default
}

set PROPERTIES_ORIGIN ["COM"]
properties('MP2/aug-cc-pvtz', properties = ['dipole'])
--------------------------------------------------------------------------

    Molecular point group: c1
  Charge       = 0
  Multiplicity = 1
  Basis Set: AUG-CC-PVTZ
    Blend: AUG-CC-PVTZ
  Basis Set: (AUG-CC-PVTZ AUX)
    Blend: AUG-CC-PVTZ-JKFIT

    Orbital Energies [Eh]
    ---------------------

    Doubly Occupied:

       1A    -20.603713     2A    -20.542534     3A    -11.377521
       4A    -11.285314     5A    -11.244730     6A    -11.219815
       7A     -1.457272     8A     -1.352010     9A     -1.065919
      10A     -0.973818    11A     -0.877334    12A     -0.767424
      13A     -0.699468    14A     -0.678901    15A     -0.668507
      16A     -0.620186    17A     -0.599869    18A     -0.539426
      19A     -0.536504    20A     -0.523802    21A     -0.517722
      22A     -0.495546    23A     -0.461310    24A     -0.446844

  @DF-RHF Final Energy:  -305.98708294675384

   => Energetics <=

    Nuclear Repulsion Energy =            245.3848319989754430
    One-Electron Energy =                -903.6328538941111219
    Two-Electron Energy =                 352.2609389483818632
    Total Energy =                       -305.9870829467538442
  Basis Set: (AUG-CC-PVTZ AUX)
    Blend: AUG-CC-PVTZ-RI
    Molecular point group: c1

    Geometry (in Angstrom), charge = 0, multiplicity = 1:

       Center              X                  Y                   Z               Mass
    ------------   -----------------  -----------------  -----------------  -----------------
         O            1.129518962142    -0.694631778464     0.036902970113    15.994914619570
         O            0.043297662142     1.283081021536    -0.007276929887    15.994914619570
         C           -1.219293337858    -0.794521978464    -0.021452929887    12.000000000000
         C           -2.494594337858     0.032989021536    -0.039353929887    12.000000000000
         C            0.019302662142     0.064310021536    -0.003787929887    12.000000000000
         C            2.365392662142     0.042483021536     0.030539070113    12.000000000000
         H           -1.154412337858    -1.453285978464    -0.894114929887     1.007825032230
         H           -1.178857337858    -1.454019978464     0.852026070113     1.007825032230
         H           -2.526170337858     0.676196021536    -0.920287929887     1.007825032230
         H           -3.371099337858    -0.619174978464    -0.052347929887     1.007825032230
         H           -2.551596337858     0.675087021536     0.841134070113     1.007825032230
         H            3.154219662142    -0.706471978464     0.046113070113     1.007825032230
         H            2.398253062142     0.669959321536     0.922186370113     1.007825032230
         H            2.442677662142     0.668470021536    -0.859399929887     1.007825032230

  Basis Set: AUG-CC-PVTZ
    Blend: AUG-CC-PVTZ
  Basis Set: (AUG-CC-PVTZ AUX)
    Blend: AUG-CC-PVTZ-JKFIT
	 Reference Energy          =    -305.9870829467538442 [Eh]
	 Singles Energy            =      -0.0000000000000000 [Eh]
	 Same-Spin Energy          =      -0.2972533463750694 [Eh]
	 Opposite-Spin Energy      =      -0.9761353989324439 [Eh]
	 Correlation Energy        =      -1.2733887453075132 [Eh]
	 Total Energy              =    -307.2604716920613441 [Eh]

	 ================> DF-SCS-MP2 Energies <==================
	-----------------------------------------------------------
	 SCS Same-Spin Scale       =       0.3333333333333333 [-]
	 SCS Opposite-Spin Scale   =       1.2000000000000000 [-]
	 SCS Same-Spin Energy      =      -0.0990844487916898 [Eh]
	 SCS Opposite-Spin Energy  =      -1.1713624787189327 [Eh]
	 SCS Correlation Energy    =      -1.2704469275106225 [Eh]
	 SCS Total Energy          =    -307.2575298742644918 [Eh]
	-----------------------------------------------------------

  Dipole Moment: [D]
     X:     0.5098      Y:    -1.6101      Z:    -0.0200     Total:     1.6890

*** Psi4 exiting successfully. Buy a developer a beer!
