                               Psi4 1.3.2 release

  ==> Input File <==

--------------------------------------------------------------------------
#psi4
#
memory 32 gb

molecule  {
0 1
  O        1.1347230    -0.7035620     0.0192210
  O        0.0419040     1.2849720    -0.0032760
  C       -1.2206870    -0.7926310    -0.0174520
  C       -2.4959880     0.0348800    -0.0353530
  C        0.0092035     0.0779026     0.0221075
  C        2.3639990     0.0443740     0.0345400
  H       -1.1726610    -1.4590650    -0.8853678
  H       -1.1802510    -1.4521290     0.8560270
  H       -2.5275640     0.6780870    -0.9162870
  H       -3.3724930    -0.6172840    -0.0483470
  H       -2.5529900     0.6769780     0.8451350
  H        3.1528260    -0.7045810     0.0501140
  H        2.4139010     0.6783770     0.9207630
  H        2.4412840     0.6703610    -0.8553990
units angstrom
no_reorient  #important for SAPT in psi4, default
symmetry c1  #important for SAPT in psi4, default
}

set PROPERTIES_ORIGIN ["COM"]
properties('MP2/aug-cc-pvtz', properties = ['dipole'])
--------------------------------------------------------------------------

    Molecular point group: c1
  Charge       = 0
  Multiplicity = 1
  Basis Set: AUG-CC-PVTZ
    Blend: AUG-CC-PVTZ
  Basis Set: (AUG-CC-PVTZ AUX)
    Blend: AUG-CC-PVTZ-JKFIT

    Orbital Energies [Eh]
    ---------------------

    Doubly Occupied:

       1A    -20.600352     2A    -20.548196     3A    -11.379146
       4A    -11.282528     5A    -11.245475     6A    -11.220460
       7A     -1.452024     8A     -1.357016     9A     -1.066310
      10A     -0.968587    11A     -0.877048    12A     -0.764858
      13A     -0.701682    14A     -0.674778    15A     -0.667943
      16A     -0.619585    17A     -0.600727    18A     -0.540025
      19A     -0.535368    20A     -0.523530    21A     -0.520397
      22A     -0.496417    23A     -0.462651    24A     -0.448954

  @DF-RHF Final Energy:  -305.98618532104598

   => Energetics <=

    Nuclear Repulsion Energy =            245.0434847273819798
    One-Electron Energy =                -902.9512227011624645
    Two-Electron Energy =                 351.9215526527345332
    Total Energy =                       -305.9861853210459799
  Basis Set: (AUG-CC-PVTZ AUX)
    Blend: AUG-CC-PVTZ-RI
    Molecular point group: c1

    Geometry (in Angstrom), charge = 0, multiplicity = 1:

       Center              X                  Y                   Z               Mass
    ------------   -----------------  -----------------  -----------------  -----------------
         O            1.136102446653    -0.705068920732     0.016182741340    15.994914619570
         O            0.043283446653     1.283465079268    -0.006314258660    15.994914619570
         C           -1.219307553347    -0.794137920732    -0.020490258660    12.000000000000
         C           -2.494608553347     0.033373079268    -0.038391258660    12.000000000000
         C            0.010582946653     0.076395679268     0.019069241340    12.000000000000
         C            2.365378446653     0.042867079268     0.031501741340    12.000000000000
         H           -1.171281553347    -1.460571920732    -0.888406058660     1.007825032230
         H           -1.178871553347    -1.453635920732     0.852988741340     1.007825032230
         H           -2.526184553347     0.676580079268    -0.919325258660     1.007825032230
         H           -3.371113553347    -0.618790920732    -0.051385258660     1.007825032230
         H           -2.551610553347     0.675471079268     0.842096741340     1.007825032230
         H            3.154205446653    -0.706087920732     0.047075741340     1.007825032230
         H            2.415280446653     0.676870079268     0.917724741340     1.007825032230
         H            2.442663446653     0.668854079268    -0.858437258660     1.007825032230

  Basis Set: AUG-CC-PVTZ
    Blend: AUG-CC-PVTZ
  Basis Set: (AUG-CC-PVTZ AUX)
    Blend: AUG-CC-PVTZ-JKFIT
	 Reference Energy          =    -305.9861853210459799 [Eh]
	 Singles Energy            =      -0.0000000000000000 [Eh]
	 Same-Spin Energy          =      -0.2973168533297742 [Eh]
	 Opposite-Spin Energy      =      -0.9765219437020959 [Eh]
	 Correlation Energy        =      -1.2738387970318701 [Eh]
	 Total Energy              =    -307.2600241180778653 [Eh]

	 ================> DF-SCS-MP2 Energies <==================
	-----------------------------------------------------------
	 SCS Same-Spin Scale       =       0.3333333333333333 [-]
	 SCS Opposite-Spin Scale   =       1.2000000000000000 [-]
	 SCS Same-Spin Energy      =      -0.0991056177765914 [Eh]
	 SCS Opposite-Spin Energy  =      -1.1718263324425151 [Eh]
	 SCS Correlation Energy    =      -1.2709319502191065 [Eh]
	 SCS Total Energy          =    -307.2571172712650878 [Eh]
	-----------------------------------------------------------

  Dipole Moment: [D]
     X:     0.3464      Y:    -1.4887      Z:     0.0288     Total:     1.5288

*** Psi4 exiting successfully. Buy a developer a beer!
