                               Psi4 1.3.2 release

  ==> Input File <==

--------------------------------------------------------------------------
#psi4
#
memory 32 gb

molecule  {
0 1
  O        1.1347230    -0.7035620     0.0192210
  O        0.0419040     1.2849720    -0.0032760
  C       -1.2206870    -0.7926310    -0.0174520
  C       -2.4809948     0.0572738     0.0103626
  C        0.0179090     0.0662010     0.0002130
  C        2.3639990     0.0443740     0.0345400
  H       -1.1222612    -1.4642773    -0.8770578
  H       -1.1802510    -1.4521290     0.8560270
  H       -2.5275640     0.6780870    -0.9162870
  H       -3.3724930    -0.6172840    -0.0483470
  H       -2.5529900     0.6769780     0.8451350
  H        3.1528260    -0.7045810     0.0501140
  H        2.4139010     0.6783770     0.9207630
  H        2.4412840     0.6703610    -0.8553990
units angstrom
no_reorient  #important for SAPT in psi4, default
symmetry c1  #important for SAPT in psi4, default
}

set PROPERTIES_ORIGIN ["COM"]
properties('MP2/aug-cc-pvtz', properties = ['dipole'])
--------------------------------------------------------------------------

    Molecular point group: c1
  Charge       = 0
  Multiplicity = 1
  Basis Set: AUG-CC-PVTZ
    Blend: AUG-CC-PVTZ
  Basis Set: (AUG-CC-PVTZ AUX)
    Blend: AUG-CC-PVTZ-JKFIT

    Orbital Energies [Eh]
    ---------------------

    Doubly Occupied:

       1A    -20.603566     2A    -20.544534     3A    -11.378359
       4A    -11.284159     5A    -11.245641     6A    -11.221261
       7A     -1.453694     8A     -1.352625     9A     -1.066495
      10A     -0.971536    11A     -0.878785    12A     -0.766854
      13A     -0.699266    14A     -0.676885    15A     -0.667776
      16A     -0.621446    17A     -0.597344    18A     -0.545919
      19A     -0.533076    20A     -0.528573    21A     -0.513338
      22A     -0.493932    23A     -0.462015    24A     -0.446904

  @DF-RHF Final Energy:  -305.98278094818733

   => Energetics <=

    Nuclear Repulsion Energy =            245.2410172057572879
    One-Electron Energy =                -903.3396292225151001
    Two-Electron Energy =                 352.1158310685704578
    Total Energy =                       -305.9827809481873260
  Basis Set: (AUG-CC-PVTZ AUX)
    Blend: AUG-CC-PVTZ-RI
    Molecular point group: c1

    Geometry (in Angstrom), charge = 0, multiplicity = 1:

       Center              X                  Y                   Z               Mass
    ------------   -----------------  -----------------  -----------------  -----------------
         O            1.132295867074    -0.706466421224     0.012841229610    15.994914619570
         O            0.039476867074     1.282067578776    -0.009655770390    15.994914619570
         C           -1.223114132926    -0.795535421224    -0.023831770390    12.000000000000
         C           -2.483421932926     0.054369378776     0.003982829610    12.000000000000
         C            0.015481867074     0.063296578776    -0.006166770390    12.000000000000
         C            2.361571867074     0.041469578776     0.028160229610    12.000000000000
         H           -1.124688332926    -1.467181721224    -0.883437570390     1.007825032230
         H           -1.182678132926    -1.455033421224     0.849647229610     1.007825032230
         H           -2.529991132926     0.675182578776    -0.922666770390     1.007825032230
         H           -3.374920132926    -0.620188421224    -0.054726770390     1.007825032230
         H           -2.555417132926     0.674073578776     0.838755229610     1.007825032230
         H            3.150398867074    -0.707485421224     0.043734229610     1.007825032230
         H            2.411473867074     0.675472578776     0.914383229610     1.007825032230
         H            2.438856867074     0.667456578776    -0.861778770390     1.007825032230

  Basis Set: AUG-CC-PVTZ
    Blend: AUG-CC-PVTZ
  Basis Set: (AUG-CC-PVTZ AUX)
    Blend: AUG-CC-PVTZ-JKFIT
	 Reference Energy          =    -305.9827809481873260 [Eh]
	 Singles Energy            =      -0.0000000000000000 [Eh]
	 Same-Spin Energy          =      -0.2975002407874890 [Eh]
	 Opposite-Spin Energy      =      -0.9767480933688419 [Eh]
	 Correlation Energy        =      -1.2742483341563311 [Eh]
	 Total Energy              =    -307.2570292823436375 [Eh]

	 ================> DF-SCS-MP2 Energies <==================
	-----------------------------------------------------------
	 SCS Same-Spin Scale       =       0.3333333333333333 [-]
	 SCS Opposite-Spin Scale   =       1.2000000000000000 [-]
	 SCS Same-Spin Energy      =      -0.0991667469291630 [Eh]
	 SCS Opposite-Spin Energy  =      -1.1720977120426104 [Eh]
	 SCS Correlation Energy    =      -1.2712644589717734 [Eh]
	 SCS Total Energy          =    -307.2540454071590830 [Eh]
	-----------------------------------------------------------

  Dipole Moment: [D]
     X:     0.4508      Y:    -1.5646      Z:     0.0262     Total:     1.6285

*** Psi4 exiting successfully. Buy a developer a beer!
