                               Psi4 1.3.2 release

  ==> Input File <==

--------------------------------------------------------------------------
#psi4
#
memory 32 gb

molecule  {
0 1
  O        1.1347230    -0.7035620     0.0192210
  O       -0.0006395     1.2850648    -0.0039771
  C       -1.2498991    -0.7488774    -0.0180726
  C       -2.4959880     0.0348800    -0.0353530
  C        0.0179090     0.0662010     0.0002130
  C        2.3639990     0.0443740     0.0345400
  H       -1.1558060    -1.4513950    -0.8901140
  H       -1.1802510    -1.4521290     0.8560270
  H       -2.5275640     0.6780870    -0.9162870
  H       -3.3724930    -0.6172840    -0.0483470
  H       -2.5529900     0.6769780     0.8451350
  H        3.1528260    -0.7045810     0.0501140
  H        2.4139010     0.6783770     0.9207630
  H        2.4412840     0.6703610    -0.8553990
units angstrom
no_reorient  #important for SAPT in psi4, default
symmetry c1  #important for SAPT in psi4, default
}

set PROPERTIES_ORIGIN ["COM"]
properties('MP2/aug-cc-pvtz', properties = ['dipole'])
--------------------------------------------------------------------------

    Molecular point group: c1
  Charge       = 0
  Multiplicity = 1
  Basis Set: AUG-CC-PVTZ
    Blend: AUG-CC-PVTZ
  Basis Set: (AUG-CC-PVTZ AUX)
    Blend: AUG-CC-PVTZ-JKFIT

    Orbital Energies [Eh]
    ---------------------

    Doubly Occupied:

       1A    -20.607731     2A    -20.543887     3A    -11.379110
       4A    -11.286822     5A    -11.246005     6A    -11.216953
       7A     -1.453897     8A     -1.355550     9A     -1.069869
      10A     -0.975261    11A     -0.876457    12A     -0.766503
      13A     -0.698563    14A     -0.676984    15A     -0.668382
      16A     -0.617877    17A     -0.602153    18A     -0.542553
      19A     -0.539803    20A     -0.534918    21A     -0.516155
      22A     -0.483182    23A     -0.463725    24A     -0.444104

  @DF-RHF Final Energy:  -305.98238611402519

   => Energetics <=

    Nuclear Repulsion Energy =            245.3089108797496465
    One-Electron Energy =                -903.4497077202955779
    Two-Electron Energy =                 352.1584107265207422
    Total Energy =                       -305.9823861140251893
  Basis Set: (AUG-CC-PVTZ AUX)
    Blend: AUG-CC-PVTZ-RI
    Molecular point group: c1

    Geometry (in Angstrom), charge = 0, multiplicity = 1:

       Center              X                  Y                   Z               Mass
    ------------   -----------------  -----------------  -----------------  -----------------
         O            1.146432337202    -0.709541691651     0.019432834216    15.994914619570
         O            0.011069837202     1.279085108349    -0.003765265784    15.994914619570
         C           -1.238189762798    -0.754857091651    -0.017860765784    12.000000000000
         C           -2.484278662798     0.028900308349    -0.035141165784    12.000000000000
         C            0.029618337202     0.060221308349     0.000424834216    12.000000000000
         C            2.375708337202     0.038394308349     0.034751834216    12.000000000000
         H           -1.144096662798    -1.457374691651    -0.889902165784     1.007825032230
         H           -1.168541662798    -1.458108691651     0.856238834216     1.007825032230
         H           -2.515854662798     0.672107308349    -0.916075165784     1.007825032230
         H           -3.360783662798    -0.623263691651    -0.048135165784     1.007825032230
         H           -2.541280662798     0.670998308349     0.845346834216     1.007825032230
         H            3.164535337202    -0.710560691651     0.050325834216     1.007825032230
         H            2.425610337202     0.672397308349     0.920974834216     1.007825032230
         H            2.452993337202     0.664381308349    -0.855187165784     1.007825032230

  Basis Set: AUG-CC-PVTZ
    Blend: AUG-CC-PVTZ
  Basis Set: (AUG-CC-PVTZ AUX)
    Blend: AUG-CC-PVTZ-JKFIT
	 Reference Energy          =    -305.9823861140251893 [Eh]
	 Singles Energy            =      -0.0000000000000000 [Eh]
	 Same-Spin Energy          =      -0.2977554373542029 [Eh]
	 Opposite-Spin Energy      =      -0.9769871209839168 [Eh]
	 Correlation Energy        =      -1.2747425583381198 [Eh]
	 Total Energy              =    -307.2571286723633079 [Eh]

	 ================> DF-SCS-MP2 Energies <==================
	-----------------------------------------------------------
	 SCS Same-Spin Scale       =       0.3333333333333333 [-]
	 SCS Opposite-Spin Scale   =       1.2000000000000000 [-]
	 SCS Same-Spin Energy      =      -0.0992518124514010 [Eh]
	 SCS Opposite-Spin Energy  =      -1.1723845451807002 [Eh]
	 SCS Correlation Energy    =      -1.2716363576321013 [Eh]
	 SCS Total Energy          =    -307.2540224716572652 [Eh]
	-----------------------------------------------------------

  Dipole Moment: [D]
     X:     0.5564      Y:    -1.5428      Z:     0.0109     Total:     1.6401

*** Psi4 exiting successfully. Buy a developer a beer!
