                               Psi4 1.3.2 release

  ==> Input File <==

--------------------------------------------------------------------------
#psi4
#
memory 32 gb

molecule  {
0 1
  O        1.1347230    -0.7035620     0.0192210
  O        0.0419040     1.2849720    -0.0032760
  C       -1.2206870    -0.7926310    -0.0174520
  C       -2.4959880     0.0348800    -0.0353530
  C        0.0341855     0.0420165    -0.0435854
  C        2.3639990     0.0443740     0.0345400
  H       -1.1221604    -1.4354555    -0.8988076
  H       -1.1802510    -1.4521290     0.8560270
  H       -2.5275640     0.6780870    -0.9162870
  H       -3.3724930    -0.6172840    -0.0483470
  H       -2.5529900     0.6769780     0.8451350
  H        3.1528260    -0.7045810     0.0501140
  H        2.4139010     0.6783770     0.9207630
  H        2.4412840     0.6703610    -0.8553990
units angstrom
no_reorient  #important for SAPT in psi4, default
symmetry c1  #important for SAPT in psi4, default
}

set PROPERTIES_ORIGIN ["COM"]
properties('MP2/aug-cc-pvtz', properties = ['dipole'])
--------------------------------------------------------------------------

    Molecular point group: c1
  Charge       = 0
  Multiplicity = 1
  Basis Set: AUG-CC-PVTZ
    Blend: AUG-CC-PVTZ
  Basis Set: (AUG-CC-PVTZ AUX)
    Blend: AUG-CC-PVTZ-JKFIT

    Orbital Energies [Eh]
    ---------------------

    Doubly Occupied:

       1A    -20.610768     2A    -20.538562     3A    -11.379782
       4A    -11.287838     5A    -11.245264     6A    -11.219970
       7A     -1.460832     8A     -1.340414     9A     -1.066039
      10A     -0.977869    11A     -0.879485    12A     -0.771350
      13A     -0.695379    14A     -0.681559    15A     -0.668609
      16A     -0.621151    17A     -0.595767    18A     -0.537795
      19A     -0.537524    20A     -0.526520    21A     -0.515993
      22A     -0.495075    23A     -0.458448    24A     -0.443566

  @DF-RHF Final Energy:  -305.98293390187865

   => Energetics <=

    Nuclear Repulsion Energy =            245.0752132178282068
    One-Electron Energy =                -903.0051776043192149
    Two-Electron Energy =                 351.9470304846124122
    Total Energy =                       -305.9829339018786527
  Basis Set: (AUG-CC-PVTZ AUX)
    Blend: AUG-CC-PVTZ-RI
    Molecular point group: c1

    Geometry (in Angstrom), charge = 0, multiplicity = 1:

       Center              X                  Y                   Z               Mass
    ------------   -----------------  -----------------  -----------------  -----------------
         O            1.132119822087    -0.700448503587     0.025289358516    15.994914619570
         O            0.039300822087     1.288085496413     0.002792358516    15.994914619570
         C           -1.223290177913    -0.789517503587    -0.011383641484    12.000000000000
         C           -2.498591177913     0.037993496413    -0.029284641484    12.000000000000
         C            0.031582322087     0.045129996413    -0.037517041484    12.000000000000
         C            2.361395822087     0.047487496413     0.040608358516    12.000000000000
         H           -1.124763577913    -1.432342003587    -0.892739241484     1.007825032230
         H           -1.182854177913    -1.449015503587     0.862095358516     1.007825032230
         H           -2.530167177913     0.681200496413    -0.910218641484     1.007825032230
         H           -3.375096177913    -0.614170503587    -0.042278641484     1.007825032230
         H           -2.555593177913     0.680091496413     0.851203358516     1.007825032230
         H            3.150222822087    -0.701467503587     0.056182358516     1.007825032230
         H            2.411297822087     0.681490496413     0.926831358516     1.007825032230
         H            2.438680822087     0.673474496413    -0.849330641484     1.007825032230

  Basis Set: AUG-CC-PVTZ
    Blend: AUG-CC-PVTZ
  Basis Set: (AUG-CC-PVTZ AUX)
    Blend: AUG-CC-PVTZ-JKFIT
	 Reference Energy          =    -305.9829339018786527 [Eh]
	 Singles Energy            =      -0.0000000000000000 [Eh]
	 Same-Spin Energy          =      -0.2977660687150842 [Eh]
	 Opposite-Spin Energy      =      -0.9771996131302449 [Eh]
	 Correlation Energy        =      -1.2749656818453290 [Eh]
	 Total Energy              =    -307.2578995837239972 [Eh]

	 ================> DF-SCS-MP2 Energies <==================
	-----------------------------------------------------------
	 SCS Same-Spin Scale       =       0.3333333333333333 [-]
	 SCS Opposite-Spin Scale   =       1.2000000000000000 [-]
	 SCS Same-Spin Energy      =      -0.0992553562383614 [Eh]
	 SCS Opposite-Spin Energy  =      -1.1726395357562940 [Eh]
	 SCS Correlation Energy    =      -1.2718948919946553 [Eh]
	 SCS Total Energy          =    -307.2548287938732869 [Eh]
	-----------------------------------------------------------

  Dipole Moment: [D]
     X:     0.6305      Y:    -1.7111      Z:    -0.0246     Total:     1.8237

*** Psi4 exiting successfully. Buy a developer a beer!
