                               Psi4 1.3.2 release

  ==> Input File <==

--------------------------------------------------------------------------
#psi4
#
memory 32 gb

molecule  {
0 1
  O        1.1347230    -0.7035620     0.0192210
  O        0.0419040     1.2849720    -0.0032760
  C       -1.2206870    -0.7926310    -0.0174520
  C       -2.4887189     0.0459785    -0.0352483
  C        0.0103679     0.0769780     0.0001081
  C        2.3639990     0.0443740     0.0345400
  H       -1.1558060    -1.4513950    -0.8901140
  H       -1.1802510    -1.4521290     0.8560270
  H       -2.5275640     0.6780870    -0.9162870
  H       -3.3724930    -0.6172840    -0.0483470
  H       -2.5529900     0.6769780     0.8451350
  H        3.1528260    -0.7045810     0.0501140
  H        2.4139010     0.6783770     0.9207630
  H        2.4412840     0.6703610    -0.8553990
units angstrom
no_reorient  #important for SAPT in psi4, default
symmetry c1  #important for SAPT in psi4, default
}

set PROPERTIES_ORIGIN ["COM"]
properties('MP2/aug-cc-pvtz', properties = ['dipole'])
--------------------------------------------------------------------------

    Molecular point group: c1
  Charge       = 0
  Multiplicity = 1
  Basis Set: AUG-CC-PVTZ
    Blend: AUG-CC-PVTZ
  Basis Set: (AUG-CC-PVTZ AUX)
    Blend: AUG-CC-PVTZ-JKFIT

    Orbital Energies [Eh]
    ---------------------

    Doubly Occupied:

       1A    -20.600488     2A    -20.547624     3A    -11.378536
       4A    -11.282603     5A    -11.245530     6A    -11.220604
       7A     -1.452097     8A     -1.356716     9A     -1.066461
      10A     -0.968733    11A     -0.877260    12A     -0.764793
      13A     -0.700861    14A     -0.675244    15A     -0.667771
      16A     -0.620867    17A     -0.599518    18A     -0.540973
      19A     -0.533932    20A     -0.525165    21A     -0.517735
      22A     -0.498642    23A     -0.462650    24A     -0.448311

  @DF-RHF Final Energy:  -305.98639332680619

   => Energetics <=

    Nuclear Repulsion Energy =            245.1464888477609350
    One-Electron Energy =                -903.1595385476630327
    Two-Electron Energy =                 352.0266563730959319
    Total Energy =                       -305.9863933268061942
  Basis Set: (AUG-CC-PVTZ AUX)
    Blend: AUG-CC-PVTZ-RI
    Molecular point group: c1

    Geometry (in Angstrom), charge = 0, multiplicity = 1:

       Center              X                  Y                   Z               Mass
    ------------   -----------------  -----------------  -----------------  -----------------
         O            1.134760190777    -0.706543233465     0.019220928255    15.994914619570
         O            0.041941190777     1.281990766535    -0.003276071745    15.994914619570
         C           -1.220649809223    -0.795612233465    -0.017452071745    12.000000000000
         C           -2.488681709223     0.042997266535    -0.035248371745    12.000000000000
         C            0.010405090777     0.073996766535     0.000108028255    12.000000000000
         C            2.364036190777     0.041392766535     0.034539928255    12.000000000000
         H           -1.155768809223    -1.454376233465    -0.890114071745     1.007825032230
         H           -1.180213809223    -1.455110233465     0.856026928255     1.007825032230
         H           -2.527526809223     0.675105766535    -0.916287071745     1.007825032230
         H           -3.372455809223    -0.620265233465    -0.048347071745     1.007825032230
         H           -2.552952809223     0.673996766535     0.845134928255     1.007825032230
         H            3.152863190777    -0.707562233465     0.050113928255     1.007825032230
         H            2.413938190777     0.675395766535     0.920762928255     1.007825032230
         H            2.441321190777     0.667379766535    -0.855399071745     1.007825032230

  Basis Set: AUG-CC-PVTZ
    Blend: AUG-CC-PVTZ
  Basis Set: (AUG-CC-PVTZ AUX)
    Blend: AUG-CC-PVTZ-JKFIT
	 Reference Energy          =    -305.9863933268061942 [Eh]
	 Singles Energy            =      -0.0000000000000000 [Eh]
	 Same-Spin Energy          =      -0.2973117720992240 [Eh]
	 Opposite-Spin Energy      =      -0.9764749284112935 [Eh]
	 Correlation Energy        =      -1.2737867005105175 [Eh]
	 Total Energy              =    -307.2601800273167214 [Eh]

	 ================> DF-SCS-MP2 Energies <==================
	-----------------------------------------------------------
	 SCS Same-Spin Scale       =       0.3333333333333333 [-]
	 SCS Opposite-Spin Scale   =       1.2000000000000000 [-]
	 SCS Same-Spin Energy      =      -0.0991039240330747 [Eh]
	 SCS Opposite-Spin Energy  =      -1.1717699140935520 [Eh]
	 SCS Correlation Energy    =      -1.2708738381266267 [Eh]
	 SCS Total Energy          =    -307.2572671649328413 [Eh]
	-----------------------------------------------------------

  Dipole Moment: [D]
     X:     0.3580      Y:    -1.4886      Z:     0.0078     Total:     1.5310

*** Psi4 exiting successfully. Buy a developer a beer!
