                               Psi4 1.3.2 release

  ==> Input File <==

--------------------------------------------------------------------------
#psi4
#
memory 32 gb

molecule  {
0 1
  O        1.1347230    -0.7035620     0.0192210
  O        0.0631680     1.2843687    -0.0029238
  C       -1.2055128    -0.8141187    -0.0171336
  C       -2.4959880     0.0348800    -0.0353530
  C        0.0179090     0.0662010     0.0002130
  C        2.3639990     0.0443740     0.0345400
  H       -1.1558060    -1.4513950    -0.8901140
  H       -1.1802510    -1.4521290     0.8560270
  H       -2.5275640     0.6780870    -0.9162870
  H       -3.3724930    -0.6172840    -0.0483470
  H       -2.5529900     0.6769780     0.8451350
  H        3.1528260    -0.7045810     0.0501140
  H        2.4139010     0.6783770     0.9207630
  H        2.4412840     0.6703610    -0.8553990
units angstrom
no_reorient  #important for SAPT in psi4, default
symmetry c1  #important for SAPT in psi4, default
}

set PROPERTIES_ORIGIN ["COM"]
properties('MP2/aug-cc-pvtz', properties = ['dipole'])
--------------------------------------------------------------------------

    Molecular point group: c1
  Charge       = 0
  Multiplicity = 1
  Basis Set: AUG-CC-PVTZ
    Blend: AUG-CC-PVTZ
  Basis Set: (AUG-CC-PVTZ AUX)
    Blend: AUG-CC-PVTZ-JKFIT

    Orbital Energies [Eh]
    ---------------------

    Doubly Occupied:

       1A    -20.602010     2A    -20.545424     3A    -11.379357
       4A    -11.283100     5A    -11.245202     6A    -11.221877
       7A     -1.454081     8A     -1.351544     9A     -1.064679
      10A     -0.969982    11A     -0.878481    12A     -0.767122
      13A     -0.700031    14A     -0.677233    15A     -0.667769
      16A     -0.621660    17A     -0.598262    18A     -0.538382
      19A     -0.534779    20A     -0.521055    21A     -0.516481
      22A     -0.501502    23A     -0.461349    24A     -0.448914

  @DF-RHF Final Energy:  -305.98576484564558

   => Energetics <=

    Nuclear Repulsion Energy =            244.9700592348691828
    One-Electron Energy =                -902.8110972035145778
    Two-Electron Energy =                 351.8552731229998471
    Total Energy =                       -305.9857648456455763
  Basis Set: (AUG-CC-PVTZ AUX)
    Blend: AUG-CC-PVTZ-RI
    Molecular point group: c1

    Geometry (in Angstrom), charge = 0, multiplicity = 1:

       Center              X                  Y                   Z               Mass
    ------------   -----------------  -----------------  -----------------  -----------------
         O            1.128792493265    -0.700523999981     0.019113530777    15.994914619570
         O            0.057237493265     1.287406700019    -0.003031269223    15.994914619570
         C           -1.211443306735    -0.811080699981    -0.017241069223    12.000000000000
         C           -2.501918506735     0.037918000019    -0.035460469223    12.000000000000
         C            0.011978493265     0.069239000019     0.000105530777    12.000000000000
         C            2.358068493265     0.047412000019     0.034432530777    12.000000000000
         H           -1.161736506735    -1.448356999981    -0.890221469223     1.007825032230
         H           -1.186181506735    -1.449090999981     0.855919530777     1.007825032230
         H           -2.533494506735     0.681125000019    -0.916394469223     1.007825032230
         H           -3.378423506735    -0.614245999981    -0.048454469223     1.007825032230
         H           -2.558920506735     0.680016000019     0.845027530777     1.007825032230
         H            3.146895493265    -0.701542999981     0.050006530777     1.007825032230
         H            2.407970493265     0.681415000019     0.920655530777     1.007825032230
         H            2.435353493265     0.673399000019    -0.855506469223     1.007825032230

  Basis Set: AUG-CC-PVTZ
    Blend: AUG-CC-PVTZ
  Basis Set: (AUG-CC-PVTZ AUX)
    Blend: AUG-CC-PVTZ-JKFIT
	 Reference Energy          =    -305.9857648456455763 [Eh]
	 Singles Energy            =      -0.0000000000000000 [Eh]
	 Same-Spin Energy          =      -0.2973317644194055 [Eh]
	 Opposite-Spin Energy      =      -0.9766248216189654 [Eh]
	 Correlation Energy        =      -1.2739565860383708 [Eh]
	 Total Energy              =    -307.2597214316839427 [Eh]

	 ================> DF-SCS-MP2 Energies <==================
	-----------------------------------------------------------
	 SCS Same-Spin Scale       =       0.3333333333333333 [-]
	 SCS Opposite-Spin Scale   =       1.2000000000000000 [-]
	 SCS Same-Spin Energy      =      -0.0991105881398018 [Eh]
	 SCS Opposite-Spin Energy  =      -1.1719497859427583 [Eh]
	 SCS Correlation Energy    =      -1.2710603740825601 [Eh]
	 SCS Total Energy          =    -307.2568252197281140 [Eh]
	-----------------------------------------------------------

  Dipole Moment: [D]
     X:     0.3883      Y:    -1.5700      Z:     0.0084     Total:     1.6173

*** Psi4 exiting successfully. Buy a developer a beer!
