                               Psi4 1.3.2 release

  ==> Input File <==

--------------------------------------------------------------------------
#psi4
#
memory 32 gb

molecule  {
0 1
  O        1.1347230    -0.7035620     0.0192210
  O        0.0419040     1.2849720    -0.0032760
  C       -1.2206870    -0.7926310    -0.0174520
  C       -2.4923847     0.0405741    -0.0239240
  C        0.0179090     0.0662010     0.0002130
  C        2.3639990     0.0443740     0.0345400
  H       -1.1474108    -1.4546914    -0.8869490
  H       -1.1802510    -1.4521290     0.8560270
  H       -2.5275640     0.6780870    -0.9162870
  H       -3.3724930    -0.6172840    -0.0483470
  H       -2.5529900     0.6769780     0.8451350
  H        3.1528260    -0.7045810     0.0501140
  H        2.4139010     0.6783770     0.9207630
  H        2.4412840     0.6703610    -0.8553990
units angstrom
no_reorient  #important for SAPT in psi4, default
symmetry c1  #important for SAPT in psi4, default
}

set PROPERTIES_ORIGIN ["COM"]
properties('MP2/aug-cc-pvtz', properties = ['dipole'])
--------------------------------------------------------------------------

    Molecular point group: c1
  Charge       = 0
  Multiplicity = 1
  Basis Set: AUG-CC-PVTZ
    Blend: AUG-CC-PVTZ
  Basis Set: (AUG-CC-PVTZ AUX)
    Blend: AUG-CC-PVTZ-JKFIT

    Orbital Energies [Eh]
    ---------------------

    Doubly Occupied:

       1A    -20.603817     2A    -20.544814     3A    -11.378970
       4A    -11.284288     5A    -11.245324     6A    -11.220407
       7A     -1.453865     8A     -1.352787     9A     -1.066147
      10A     -0.971656    11A     -0.877949    12A     -0.766829
      13A     -0.699486    14A     -0.676920    15A     -0.667817
      16A     -0.620354    17A     -0.598916    18A     -0.539682
      19A     -0.535085    20A     -0.525447    21A     -0.518151
      22A     -0.496265    23A     -0.462102    24A     -0.447448

  @DF-RHF Final Energy:  -305.98624197832640

   => Energetics <=

    Nuclear Repulsion Energy =            245.1089605697592617
    One-Electron Energy =                -903.0813477794501978
    Two-Electron Energy =                 351.9861452313645600
    Total Energy =                       -305.9862419783264045
  Basis Set: (AUG-CC-PVTZ AUX)
    Blend: AUG-CC-PVTZ-RI
    Molecular point group: c1

    Geometry (in Angstrom), charge = 0, multiplicity = 1:

       Center              X                  Y                   Z               Mass
    ------------   -----------------  -----------------  -----------------  -----------------
         O            1.134135966176    -0.704300263049     0.017627103224    15.994914619570
         O            0.041316966176     1.284233736951    -0.004869896776    15.994914619570
         C           -1.221274033824    -0.793369263049    -0.019045896776    12.000000000000
         C           -2.492971733824     0.039835836951    -0.025517896776    12.000000000000
         C            0.017321966176     0.065462736951    -0.001380896776    12.000000000000
         C            2.363411966176     0.043635736951     0.032946103224    12.000000000000
         H           -1.147997833824    -1.455429663049    -0.888542896776     1.007825032230
         H           -1.180838033824    -1.452867263049     0.854433103224     1.007825032230
         H           -2.528151033824     0.677348736951    -0.917880896776     1.007825032230
         H           -3.373080033824    -0.618022263049    -0.049940896776     1.007825032230
         H           -2.553577033824     0.676239736951     0.843541103224     1.007825032230
         H            3.152238966176    -0.705319263049     0.048520103224     1.007825032230
         H            2.413313966176     0.677638736951     0.919169103224     1.007825032230
         H            2.440696966176     0.669622736951    -0.856992896776     1.007825032230

  Basis Set: AUG-CC-PVTZ
    Blend: AUG-CC-PVTZ
  Basis Set: (AUG-CC-PVTZ AUX)
    Blend: AUG-CC-PVTZ-JKFIT
	 Reference Energy          =    -305.9862419783264045 [Eh]
	 Singles Energy            =      -0.0000000000000000 [Eh]
	 Same-Spin Energy          =      -0.2974193292944025 [Eh]
	 Opposite-Spin Energy      =      -0.9766169457940241 [Eh]
	 Correlation Energy        =      -1.2740362750884267 [Eh]
	 Total Energy              =    -307.2602782534148105 [Eh]

	 ================> DF-SCS-MP2 Energies <==================
	-----------------------------------------------------------
	 SCS Same-Spin Scale       =       0.3333333333333333 [-]
	 SCS Opposite-Spin Scale   =       1.2000000000000000 [-]
	 SCS Same-Spin Energy      =      -0.0991397764314675 [Eh]
	 SCS Opposite-Spin Energy  =      -1.1719403349528290 [Eh]
	 SCS Correlation Energy    =      -1.2710801113842964 [Eh]
	 SCS Total Energy          =    -307.2573220897107262 [Eh]
	-----------------------------------------------------------

  Dipole Moment: [D]
     X:     0.4455      Y:    -1.5635      Z:     0.0139     Total:     1.6258

*** Psi4 exiting successfully. Buy a developer a beer!
