                               Psi4 1.3.2 release

  ==> Input File <==

--------------------------------------------------------------------------
#psi4
#
memory 32 gb

molecule  {
0 1
  O        1.1347230    -0.7035620     0.0192210
  O        0.0206327     1.2852041    -0.0036271
  C       -1.2354839    -0.7708817    -0.0177651
  C       -2.4959880     0.0348800    -0.0353530
  C        0.0179090     0.0662010     0.0002130
  C        2.3639990     0.0443740     0.0345400
  H       -1.1558060    -1.4513950    -0.8901140
  H       -1.1802510    -1.4521290     0.8560270
  H       -2.5275640     0.6780870    -0.9162870
  H       -3.3724930    -0.6172840    -0.0483470
  H       -2.5529900     0.6769780     0.8451350
  H        3.1528260    -0.7045810     0.0501140
  H        2.4139010     0.6783770     0.9207630
  H        2.4412840     0.6703610    -0.8553990
units angstrom
no_reorient  #important for SAPT in psi4, default
symmetry c1  #important for SAPT in psi4, default
}

set PROPERTIES_ORIGIN ["COM"]
properties('MP2/aug-cc-pvtz', properties = ['dipole'])
--------------------------------------------------------------------------

    Molecular point group: c1
  Charge       = 0
  Multiplicity = 1
  Basis Set: AUG-CC-PVTZ
    Blend: AUG-CC-PVTZ
  Basis Set: (AUG-CC-PVTZ AUX)
    Blend: AUG-CC-PVTZ-JKFIT

    Orbital Energies [Eh]
    ---------------------

    Doubly Occupied:

       1A    -20.605820     2A    -20.544408     3A    -11.379104
       4A    -11.285580     5A    -11.245549     6A    -11.218610
       7A     -1.453875     8A     -1.354187     9A     -1.067813
      10A     -0.973498    11A     -0.877119    12A     -0.766652
      13A     -0.699106    14A     -0.676873    15A     -0.668091
      16A     -0.618829    17A     -0.600762    18A     -0.539271
      19A     -0.538002    20A     -0.530922    21A     -0.517822
      22A     -0.489725    23A     -0.462923    24A     -0.446029

  @DF-RHF Final Energy:  -305.98537023232308

   => Energetics <=

    Nuclear Repulsion Energy =            245.1796216791535983
    One-Electron Energy =                -903.2088469909384685
    Two-Electron Energy =                 352.0438550794618209
    Total Energy =                       -305.9853702323230777
  Basis Set: (AUG-CC-PVTZ AUX)
    Blend: AUG-CC-PVTZ-RI
    Molecular point group: c1

    Geometry (in Angstrom), charge = 0, multiplicity = 1:

       Center              X                  Y                   Z               Mass
    ------------   -----------------  -----------------  -----------------  -----------------
         O            1.140603657338    -0.706568196089     0.019327349107    15.994914619570
         O            0.026513357338     1.282197903911    -0.003520750893    15.994914619570
         C           -1.229603242662    -0.773887896089    -0.017658750893    12.000000000000
         C           -2.490107342662     0.031873803911    -0.035246650893    12.000000000000
         C            0.023789657338     0.063194803911     0.000319349107    12.000000000000
         C            2.369879657338     0.041367803911     0.034646349107    12.000000000000
         H           -1.149925342662    -1.454401196089    -0.890007650893     1.007825032230
         H           -1.174370342662    -1.455135196089     0.856133349107     1.007825032230
         H           -2.521683342662     0.675080803911    -0.916180650893     1.007825032230
         H           -3.366612342662    -0.620290196089    -0.048240650893     1.007825032230
         H           -2.547109342662     0.673971803911     0.845241349107     1.007825032230
         H            3.158706657338    -0.707587196089     0.050220349107     1.007825032230
         H            2.419781657338     0.675370803911     0.920869349107     1.007825032230
         H            2.447164657338     0.667354803911    -0.855292650893     1.007825032230

  Basis Set: AUG-CC-PVTZ
    Blend: AUG-CC-PVTZ
  Basis Set: (AUG-CC-PVTZ AUX)
    Blend: AUG-CC-PVTZ-JKFIT
	 Reference Energy          =    -305.9853702323230777 [Eh]
	 Singles Energy            =      -0.0000000000000000 [Eh]
	 Same-Spin Energy          =      -0.2975496915739189 [Eh]
	 Opposite-Spin Energy      =      -0.9767364540879044 [Eh]
	 Correlation Energy        =      -1.2742861456618233 [Eh]
	 Total Energy              =    -307.2596563779849248 [Eh]

	 ================> DF-SCS-MP2 Energies <==================
	-----------------------------------------------------------
	 SCS Same-Spin Scale       =       0.3333333333333333 [-]
	 SCS Opposite-Spin Scale   =       1.2000000000000000 [-]
	 SCS Same-Spin Energy      =      -0.0991832305246396 [Eh]
	 SCS Opposite-Spin Energy  =      -1.1720837449054853 [Eh]
	 SCS Correlation Energy    =      -1.2712669754301249 [Eh]
	 SCS Total Energy          =    -307.2566372077532151 [Eh]
	-----------------------------------------------------------

  Dipole Moment: [D]
     X:     0.5010      Y:    -1.5549      Z:     0.0101     Total:     1.6336

*** Psi4 exiting successfully. Buy a developer a beer!
