                               Psi4 1.3.2 release

  ==> Input File <==

--------------------------------------------------------------------------
#psi4
#
memory 32 gb

molecule  {
0 1
  O        1.1347230    -0.7035620     0.0192210
  O        0.0419040     1.2849720    -0.0032760
  C       -1.2206870    -0.7926310    -0.0174520
  C       -2.5240878    -0.0101358    -0.0357581
  C        0.0471244     0.0224471     0.0006189
  C        2.3639990     0.0443740     0.0345400
  H       -1.1558060    -1.4513950    -0.8901140
  H       -1.1802510    -1.4521290     0.8560270
  H       -2.5275640     0.6780870    -0.9162870
  H       -3.3724930    -0.6172840    -0.0483470
  H       -2.5529900     0.6769780     0.8451350
  H        3.1528260    -0.7045810     0.0501140
  H        2.4139010     0.6783770     0.9207630
  H        2.4412840     0.6703610    -0.8553990
units angstrom
no_reorient  #important for SAPT in psi4, default
symmetry c1  #important for SAPT in psi4, default
}

set PROPERTIES_ORIGIN ["COM"]
properties('MP2/aug-cc-pvtz', properties = ['dipole'])
--------------------------------------------------------------------------

    Molecular point group: c1
  Charge       = 0
  Multiplicity = 1
  Basis Set: AUG-CC-PVTZ
    Blend: AUG-CC-PVTZ
  Basis Set: (AUG-CC-PVTZ AUX)
    Blend: AUG-CC-PVTZ-JKFIT

    Orbital Energies [Eh]
    ---------------------

    Doubly Occupied:

       1A    -20.617215     2A    -20.533916     3A    -11.381768
       4A    -11.291318     5A    -11.244972     6A    -11.219605
       7A     -1.470804     8A     -1.329718     9A     -1.065576
      10A     -0.984101    11A     -0.880646    12A     -0.776762
      13A     -0.695236    14A     -0.685888    15A     -0.671120
      16A     -0.617059    17A     -0.598755    18A     -0.547873
      19A     -0.534422    20A     -0.527660    21A     -0.513651
      22A     -0.485685    23A     -0.454370    24A     -0.441347

  @DF-RHF Final Energy:  -305.97747886699460

   => Energetics <=

    Nuclear Repulsion Energy =            244.7998493556301298
    One-Electron Energy =                -902.4157214056825751
    Two-Electron Energy =                 351.6383931830578149
    Total Energy =                       -305.9774788669946020
  Basis Set: (AUG-CC-PVTZ AUX)
    Blend: AUG-CC-PVTZ-RI
    Molecular point group: c1

    Geometry (in Angstrom), charge = 0, multiplicity = 1:

       Center              X                  Y                   Z               Mass
    ------------   -----------------  -----------------  -----------------  -----------------
         O            1.134571085262    -0.691464235559     0.019220791973    15.994914619570
         O            0.041752085262     1.297069764441    -0.003276208027    15.994914619570
         C           -1.220838914738    -0.780533235559    -0.017452208027    12.000000000000
         C           -2.524239714738     0.001961964441    -0.035758308027    12.000000000000
         C            0.046972485262     0.034544864441     0.000618691973    12.000000000000
         C            2.363847085262     0.056471764441     0.034539791973    12.000000000000
         H           -1.155957914738    -1.439297235559    -0.890114208027     1.007825032230
         H           -1.180402914738    -1.440031235559     0.856026791973     1.007825032230
         H           -2.527715914738     0.690184764441    -0.916287208027     1.007825032230
         H           -3.372644914738    -0.605186235559    -0.048347208027     1.007825032230
         H           -2.553141914738     0.689075764441     0.845134791973     1.007825032230
         H            3.152674085262    -0.692483235559     0.050113791973     1.007825032230
         H            2.413749085262     0.690474764441     0.920762791973     1.007825032230
         H            2.441132085262     0.682458764441    -0.855399208027     1.007825032230

  Basis Set: AUG-CC-PVTZ
    Blend: AUG-CC-PVTZ
  Basis Set: (AUG-CC-PVTZ AUX)
    Blend: AUG-CC-PVTZ-JKFIT
	 Reference Energy          =    -305.9774788669946020 [Eh]
	 Singles Energy            =      -0.0000000000000000 [Eh]
	 Same-Spin Energy          =      -0.2979546512624064 [Eh]
	 Opposite-Spin Energy      =      -0.9775264275372129 [Eh]
	 Correlation Energy        =      -1.2754810787996194 [Eh]
	 Total Energy              =    -307.2529599457942027 [Eh]

	 ================> DF-SCS-MP2 Energies <==================
	-----------------------------------------------------------
	 SCS Same-Spin Scale       =       0.3333333333333333 [-]
	 SCS Opposite-Spin Scale   =       1.2000000000000000 [-]
	 SCS Same-Spin Energy      =      -0.0993182170874688 [Eh]
	 SCS Opposite-Spin Energy  =      -1.1730317130446555 [Eh]
	 SCS Correlation Energy    =      -1.2723499301321244 [Eh]
	 SCS Total Energy          =    -307.2498287971267246 [Eh]
	-----------------------------------------------------------

  Dipole Moment: [D]
     X:     0.7878      Y:    -1.8624      Z:     0.0151     Total:     2.0222

*** Psi4 exiting successfully. Buy a developer a beer!
