                               Psi4 1.3.2 release

  ==> Input File <==

--------------------------------------------------------------------------
#psi4
#
memory 32 gb

molecule  {
0 1
  O        1.1347230    -0.7035620     0.0192210
  O        0.0419040     1.2849720    -0.0032760
  C       -1.2206870    -0.7926310    -0.0174520
  C       -2.4959880     0.0348800    -0.0353530
  C        0.0136033     0.0720847     0.0111613
  C        2.3639990     0.0443740     0.0345400
  H       -1.1642313    -1.4552552    -0.8877740
  H       -1.1802510    -1.4521290     0.8560270
  H       -2.5275640     0.6780870    -0.9162870
  H       -3.3724930    -0.6172840    -0.0483470
  H       -2.5529900     0.6769780     0.8451350
  H        3.1528260    -0.7045810     0.0501140
  H        2.4139010     0.6783770     0.9207630
  H        2.4412840     0.6703610    -0.8553990
units angstrom
no_reorient  #important for SAPT in psi4, default
symmetry c1  #important for SAPT in psi4, default
}

set PROPERTIES_ORIGIN ["COM"]
properties('MP2/aug-cc-pvtz', properties = ['dipole'])
--------------------------------------------------------------------------

    Molecular point group: c1
  Charge       = 0
  Multiplicity = 1
  Basis Set: AUG-CC-PVTZ
    Blend: AUG-CC-PVTZ
  Basis Set: (AUG-CC-PVTZ AUX)
    Blend: AUG-CC-PVTZ-JKFIT

    Orbital Energies [Eh]
    ---------------------

    Doubly Occupied:

       1A    -20.602143     2A    -20.546551     3A    -11.379145
       4A    -11.283438     5A    -11.245361     6A    -11.220352
       7A     -1.452827     8A     -1.355133     9A     -1.066186
      10A     -0.970165    11A     -0.877413    12A     -0.765834
      13A     -0.700650    14A     -0.675844    15A     -0.667878
      16A     -0.619844    17A     -0.600155    18A     -0.539360
      19A     -0.535618    20A     -0.523952    21A     -0.519886
      22A     -0.496123    23A     -0.462497    24A     -0.448355

  @DF-RHF Final Energy:  -305.98649484056449

   => Energetics <=

    Nuclear Repulsion Energy =            245.0567584377055823
    One-Electron Energy =                -902.9770895064632441
    Two-Electron Energy =                 351.9338362281931154
    Total Energy =                       -305.9864948405644896
  Basis Set: (AUG-CC-PVTZ AUX)
    Blend: AUG-CC-PVTZ-RI
    Molecular point group: c1

    Geometry (in Angstrom), charge = 0, multiplicity = 1:

       Center              X                  Y                   Z               Mass
    ------------   -----------------  -----------------  -----------------  -----------------
         O            1.135406347034    -0.704319649092     0.017702056927    15.994914619570
         O            0.042587347034     1.284214350908    -0.004794943073    15.994914619570
         C           -1.220003652966    -0.793388649092    -0.018970943073    12.000000000000
         C           -2.495304652966     0.034122350908    -0.036871943073    12.000000000000
         C            0.014286647034     0.071327050908     0.009642356927    12.000000000000
         C            2.364682347034     0.043616350908     0.033021056927    12.000000000000
         H           -1.163547952966    -1.456012849092    -0.889292943073     1.007825032230
         H           -1.179567652966    -1.452886649092     0.854508056927     1.007825032230
         H           -2.526880652966     0.677329350908    -0.917805943073     1.007825032230
         H           -3.371809652966    -0.618041649092    -0.049865943073     1.007825032230
         H           -2.552306652966     0.676220350908     0.843616056927     1.007825032230
         H            3.153509347034    -0.705338649092     0.048595056927     1.007825032230
         H            2.414584347034     0.677619350908     0.919244056927     1.007825032230
         H            2.441967347034     0.669603350908    -0.856917943073     1.007825032230

  Basis Set: AUG-CC-PVTZ
    Blend: AUG-CC-PVTZ
  Basis Set: (AUG-CC-PVTZ AUX)
    Blend: AUG-CC-PVTZ-JKFIT
	 Reference Energy          =    -305.9864948405644896 [Eh]
	 Singles Energy            =      -0.0000000000000000 [Eh]
	 Same-Spin Energy          =      -0.2973554856151859 [Eh]
	 Opposite-Spin Energy      =      -0.9765522657955269 [Eh]
	 Correlation Energy        =      -1.2739077514107127 [Eh]
	 Total Energy              =    -307.2604025919752075 [Eh]

	 ================> DF-SCS-MP2 Energies <==================
	-----------------------------------------------------------
	 SCS Same-Spin Scale       =       0.3333333333333333 [-]
	 SCS Opposite-Spin Scale   =       1.2000000000000000 [-]
	 SCS Same-Spin Energy      =      -0.0991184952050620 [Eh]
	 SCS Opposite-Spin Energy  =      -1.1718627189546322 [Eh]
	 SCS Correlation Energy    =      -1.2709812141596941 [Eh]
	 SCS Total Energy          =    -307.2574760547241794 [Eh]
	-----------------------------------------------------------

  Dipole Moment: [D]
     X:     0.3961      Y:    -1.5264      Z:     0.0188     Total:     1.5771

*** Psi4 exiting successfully. Buy a developer a beer!
