                               Psi4 1.3.2 release

  ==> Input File <==

--------------------------------------------------------------------------
#psi4
#
memory 32 gb

molecule  {
0 1
  O        1.1347230    -0.7035620     0.0192210
  O        0.0525373     1.2847167    -0.0031000
  C       -1.2131468    -0.8034080    -0.0172935
  C       -2.4959880     0.0348800    -0.0353530
  C        0.0179090     0.0662010     0.0002130
  C        2.3639990     0.0443740     0.0345400
  H       -1.1558060    -1.4513950    -0.8901140
  H       -1.1802510    -1.4521290     0.8560270
  H       -2.5275640     0.6780870    -0.9162870
  H       -3.3724930    -0.6172840    -0.0483470
  H       -2.5529900     0.6769780     0.8451350
  H        3.1528260    -0.7045810     0.0501140
  H        2.4139010     0.6783770     0.9207630
  H        2.4412840     0.6703610    -0.8553990
units angstrom
no_reorient  #important for SAPT in psi4, default
symmetry c1  #important for SAPT in psi4, default
}

set PROPERTIES_ORIGIN ["COM"]
properties('MP2/aug-cc-pvtz', properties = ['dipole'])
--------------------------------------------------------------------------

    Molecular point group: c1
  Charge       = 0
  Multiplicity = 1
  Basis Set: AUG-CC-PVTZ
    Blend: AUG-CC-PVTZ
  Basis Set: (AUG-CC-PVTZ AUX)
    Blend: AUG-CC-PVTZ-JKFIT

    Orbital Energies [Eh]
    ---------------------

    Doubly Occupied:

       1A    -20.602960     2A    -20.545174     3A    -11.379262
       4A    -11.283719     5A    -11.245216     6A    -11.221069
       7A     -1.453997     8A     -1.352197     9A     -1.065350
      10A     -0.970854    11A     -0.878136    12A     -0.766986
      13A     -0.699821    14A     -0.677061    15A     -0.667817
      16A     -0.620848    17A     -0.598856    18A     -0.538580
      19A     -0.535301    20A     -0.521322    21A     -0.519375
      22A     -0.498735    23A     -0.461738    24A     -0.448308

  @DF-RHF Final Energy:  -305.98633676390023

   => Energetics <=

    Nuclear Repulsion Energy =            245.0164264833011600
    One-Electron Energy =                -902.9001610381061482
    Two-Electron Energy =                 351.8973977909047335
    Total Energy =                       -305.9863367639002263
  Basis Set: (AUG-CC-PVTZ AUX)
    Blend: AUG-CC-PVTZ-RI
    Molecular point group: c1

    Geometry (in Angstrom), charge = 0, multiplicity = 1:

       Center              X                  Y                   Z               Mass
    ------------   -----------------  -----------------  -----------------  -----------------
         O            1.131763963108    -0.702046895272     0.019167329451    15.994914619570
         O            0.049578263108     1.286231804728    -0.003153670549    15.994914619570
         C           -1.216105836892    -0.801892895272    -0.017347170549    12.000000000000
         C           -2.498947036892     0.036395104728    -0.035406670549    12.000000000000
         C            0.014949963108     0.067716104728     0.000159329451    12.000000000000
         C            2.361039963108     0.045889104728     0.034486329451    12.000000000000
         H           -1.158765036892    -1.449879895272    -0.890167670549     1.007825032230
         H           -1.183210036892    -1.450613895272     0.855973329451     1.007825032230
         H           -2.530523036892     0.679602104728    -0.916340670549     1.007825032230
         H           -3.375452036892    -0.615768895272    -0.048400670549     1.007825032230
         H           -2.555949036892     0.678493104728     0.845081329451     1.007825032230
         H            3.149866963108    -0.703065895272     0.050060329451     1.007825032230
         H            2.410941963108     0.679892104728     0.920709329451     1.007825032230
         H            2.438324963108     0.671876104728    -0.855452670549     1.007825032230

  Basis Set: AUG-CC-PVTZ
    Blend: AUG-CC-PVTZ
  Basis Set: (AUG-CC-PVTZ AUX)
    Blend: AUG-CC-PVTZ-JKFIT
	 Reference Energy          =    -305.9863367639002263 [Eh]
	 Singles Energy            =      -0.0000000000000000 [Eh]
	 Same-Spin Energy          =      -0.2973622893287076 [Eh]
	 Opposite-Spin Energy      =      -0.9766041401463115 [Eh]
	 Correlation Energy        =      -1.2739664294750190 [Eh]
	 Total Energy              =    -307.2603031933752504 [Eh]

	 ================> DF-SCS-MP2 Energies <==================
	-----------------------------------------------------------
	 SCS Same-Spin Scale       =       0.3333333333333333 [-]
	 SCS Opposite-Spin Scale   =       1.2000000000000000 [-]
	 SCS Same-Spin Energy      =      -0.0991207631095692 [Eh]
	 SCS Opposite-Spin Energy  =      -1.1719249681755737 [Eh]
	 SCS Correlation Energy    =      -1.2710457312851429 [Eh]
	 SCS Total Energy          =    -307.2573824951853680 [Eh]
	-----------------------------------------------------------

  Dipole Moment: [D]
     X:     0.4167      Y:    -1.5673      Z:     0.0088     Total:     1.6217

*** Psi4 exiting successfully. Buy a developer a beer!
