                               Psi4 1.3.2 release

  ==> Input File <==

--------------------------------------------------------------------------
#psi4
#
memory 32 gb

molecule  {
0 1
  O        1.1479866    -0.6839510     0.0193560
  O        0.0631686     1.2843686    -0.0029584
  C       -1.2206870    -0.7926310    -0.0174520
  C       -2.4959880     0.0348800    -0.0353530
  C        0.0179090     0.0662010     0.0002130
  C        2.3639990     0.0443740     0.0345400
  H       -1.1558060    -1.4513950    -0.8901140
  H       -1.1802510    -1.4521290     0.8560270
  H       -2.5275640     0.6780870    -0.9162870
  H       -3.3724930    -0.6172840    -0.0483470
  H       -2.5529900     0.6769780     0.8451350
  H        3.1528260    -0.7045810     0.0501140
  H        2.4139010     0.6783770     0.9207630
  H        2.4412840     0.6703610    -0.8553990
units angstrom
no_reorient  #important for SAPT in psi4, default
symmetry c1  #important for SAPT in psi4, default
}

set PROPERTIES_ORIGIN ["COM"]
properties('MP2/aug-cc-pvtz', properties = ['dipole'])
--------------------------------------------------------------------------

    Molecular point group: c1
  Charge       = 0
  Multiplicity = 1
  Basis Set: AUG-CC-PVTZ
    Blend: AUG-CC-PVTZ
  Basis Set: (AUG-CC-PVTZ AUX)
    Blend: AUG-CC-PVTZ-JKFIT

    Orbital Energies [Eh]
    ---------------------

    Doubly Occupied:

       1A    -20.601031     2A    -20.544165     3A    -11.379708
       4A    -11.280943     5A    -11.248010     6A    -11.221999
       7A     -1.457383     8A     -1.352433     9A     -1.068415
      10A     -0.973077    11A     -0.878436    12A     -0.767410
      13A     -0.701357    14A     -0.678765    15A     -0.669091
      16A     -0.621896    17A     -0.601603    18A     -0.537639
      19A     -0.534059    20A     -0.526925    21A     -0.518077
      22A     -0.496933    23A     -0.459202    24A     -0.448415

  @DF-RHF Final Energy:  -305.98701824295409

   => Energetics <=

    Nuclear Repulsion Energy =            245.3867483383382364
    One-Electron Energy =                -903.6135849292787725
    Two-Electron Energy =                 352.2398183479864997
    Total Energy =                       -305.9870182429540932
  Basis Set: (AUG-CC-PVTZ AUX)
    Blend: AUG-CC-PVTZ-RI
    Molecular point group: c1

    Geometry (in Angstrom), charge = 0, multiplicity = 1:

       Center              X                  Y                   Z               Mass
    ------------   -----------------  -----------------  -----------------  -----------------
         O            1.141714599604    -0.687403758661     0.019273685228    15.994914619570
         O            0.056896599604     1.280915841339    -0.003040714772    15.994914619570
         C           -1.226959000396    -0.796083758661    -0.017534314772    12.000000000000
         C           -2.502260000396     0.031427241339    -0.035435314772    12.000000000000
         C            0.011636999604     0.062748241339     0.000130685228    12.000000000000
         C            2.357726999604     0.040921241339     0.034457685228    12.000000000000
         H           -1.162078000396    -1.454847758661    -0.890196314772     1.007825032230
         H           -1.186523000396    -1.455581758661     0.855944685228     1.007825032230
         H           -2.533836000396     0.674634241339    -0.916369314772     1.007825032230
         H           -3.378765000396    -0.620736758661    -0.048429314772     1.007825032230
         H           -2.559262000396     0.673525241339     0.845052685228     1.007825032230
         H            3.146553999604    -0.708033758661     0.050031685228     1.007825032230
         H            2.407628999604     0.674924241339     0.920680685228     1.007825032230
         H            2.435011999604     0.666908241339    -0.855481314772     1.007825032230

  Basis Set: AUG-CC-PVTZ
    Blend: AUG-CC-PVTZ
  Basis Set: (AUG-CC-PVTZ AUX)
    Blend: AUG-CC-PVTZ-JKFIT
	 Reference Energy          =    -305.9870182429540932 [Eh]
	 Singles Energy            =      -0.0000000000000000 [Eh]
	 Same-Spin Energy          =      -0.2972398952622597 [Eh]
	 Opposite-Spin Energy      =      -0.9759264069233866 [Eh]
	 Correlation Energy        =      -1.2731663021856463 [Eh]
	 Total Energy              =    -307.2601845451397367 [Eh]

	 ================> DF-SCS-MP2 Energies <==================
	-----------------------------------------------------------
	 SCS Same-Spin Scale       =       0.3333333333333333 [-]
	 SCS Opposite-Spin Scale   =       1.2000000000000000 [-]
	 SCS Same-Spin Energy      =      -0.0990799650874199 [Eh]
	 SCS Opposite-Spin Energy  =      -1.1711116883080639 [Eh]
	 SCS Correlation Energy    =      -1.2701916533954838 [Eh]
	 SCS Total Energy          =    -307.2572098963495932 [Eh]
	-----------------------------------------------------------

  Dipole Moment: [D]
     X:     0.2893      Y:    -1.6207      Z:     0.0071     Total:     1.6463

*** Psi4 exiting successfully. Buy a developer a beer!
