                               Psi4 1.4a3.dev225

  ==> Input File <==

--------------------------------------------------------------------------
#psi4
#
memory 32 gb

molecule  {
0 1
  O        1.1455950    -0.7206100    -0.0000020
  O        0.1065970     1.2988430     0.0000060
  C       -1.2145750    -0.7450000     0.0000080
  C       -2.4678730     0.1187130    -0.0000080
  C        0.0492150     0.0800240     0.0000030
  C        2.3789748    -0.0140605    -0.0000040
  H       -1.1806580    -1.4052490    -0.8737030
  H       -1.1806650    -1.4052230     0.8737390
  H       -2.4946670     0.7625720    -0.8811910
  H       -3.3622150    -0.5096080    -0.0000470
  H       -2.4947180     0.7625340     0.8812010
  H        3.1644210    -0.7750410    -0.0000210
  H        2.4762030     0.6232120     0.8890930
  H        2.4761870     0.6232350    -0.8890870
units angstrom
no_reorient  #important for SAPT in psi4, default
symmetry c1  #important for SAPT in psi4, default
}

set PROPERTIES_ORIGIN ["COM"]
properties('MP2/aug-cc-pvtz', properties = ['dipole'])
--------------------------------------------------------------------------

    Molecular point group: c1
  Charge       = 0
  Multiplicity = 1
  Basis Set: AUG-CC-PVTZ
    Blend: AUG-CC-PVTZ
  Basis Set: (AUG-CC-PVTZ AUX)
    Blend: AUG-CC-PVTZ-JKFIT

    Orbital Energies [Eh]
    ---------------------

    Doubly Occupied:

       1A    -20.605834     2A    -20.546268     3A    -11.380845
       4A    -11.284453     5A    -11.246550     6A    -11.221146
       7A     -1.457614     8A     -1.355153     9A     -1.066476
      10A     -0.971370    11A     -0.877274    12A     -0.769080
      13A     -0.700354    14A     -0.678285    15A     -0.670800
      16A     -0.620093    17A     -0.600116    18A     -0.536587
      19A     -0.532883    20A     -0.525529    21A     -0.519901
      22A     -0.496188    23A     -0.461742    24A     -0.448705

  @DF-RHF Final Energy:  -305.98605961395020

   => Energetics <=

    Nuclear Repulsion Energy =            245.1777691595015369
    One-Electron Energy =                -903.1811604729155079
    Two-Electron Energy =                 352.0173316994637958
    Total Energy =                       -305.9860596139502036
  Basis Set: (AUG-CC-PVTZ AUX)
    Blend: AUG-CC-PVTZ-RI
    Molecular point group: c1

    Geometry (in Angstrom), charge = 0, multiplicity = 1:

       Center              X                  Y                   Z               Mass
    ------------   -----------------  -----------------  -----------------  -----------------
         O            1.118779396152    -0.734135810813    -0.000002407194    15.994914619570
         O            0.079781396152     1.285317189187     0.000005592806    15.994914619570
         C           -1.241390603848    -0.758525810813     0.000007592806    12.000000000000
         C           -2.494688603848     0.105187189187    -0.000008407194    12.000000000000
         C            0.022399396152     0.066498189187     0.000002592806    12.000000000000
         C            2.352159196152    -0.027586310813    -0.000004407194    12.000000000000
         H           -1.207473603848    -1.418774810813    -0.873703407194     1.007825032230
         H           -1.207480603848    -1.418748810813     0.873738592806     1.007825032230
         H           -2.521482603848     0.749046189187    -0.881191407194     1.007825032230
         H           -3.389030603848    -0.523133810813    -0.000047407194     1.007825032230
         H           -2.521533603848     0.749008189187     0.881200592806     1.007825032230
         H            3.137605396152    -0.788566810813    -0.000021407194     1.007825032230
         H            2.449387396152     0.609686189187     0.889092592806     1.007825032230
         H            2.449371396152     0.609709189187    -0.889087407194     1.007825032230

  Basis Set: AUG-CC-PVTZ
    Blend: AUG-CC-PVTZ
  Basis Set: (AUG-CC-PVTZ AUX)
    Blend: AUG-CC-PVTZ-JKFIT
	 Reference Energy          =    -305.9860596139502036 [Eh]
	 Singles Energy            =      -0.0000000000000000 [Eh]
	 Same-Spin Energy          =      -0.2974366393117557 [Eh]
	 Opposite-Spin Energy      =      -0.9765922670724234 [Eh]
	 Correlation Energy        =      -1.2740289063841792 [Eh]
	 Total Energy              =    -307.2600885203343637 [Eh]

	 ================> DF-SCS-MP2 Energies <==================
	-----------------------------------------------------------
	 SCS Same-Spin Scale       =       0.3333333333333333 [-]
	 SCS Opposite-Spin Scale   =       1.2000000000000000 [-]
	 SCS Same-Spin Energy      =      -0.0991455464372519 [Eh]
	 SCS Opposite-Spin Energy  =      -1.1719107204869081 [Eh]
	 SCS Correlation Energy    =      -1.2710562669241601 [Eh]
	 SCS Total Energy          =    -307.2571158808743803 [Eh]
	-----------------------------------------------------------

  Dipole Moment: [D]
     X:     0.3291      Y:    -1.5899      Z:    -0.0000     Total:     1.6236

*** Psi4 exiting successfully. Buy a developer a beer!
