                               Psi4 1.3.2 release

  ==> Input File <==

--------------------------------------------------------------------------
#psi4
#
memory 32 gb

molecule  {
0 1
  O        1.1347230    -0.7035620     0.0192210
  O        0.0419040     1.2849720    -0.0032760
  C       -1.2206870    -0.7926310    -0.0174520
  C       -2.4959880     0.0348800    -0.0353530
  C        0.1822527     0.1801556     0.0025569
  C        2.3639990     0.0443740     0.0345400
  H       -1.1558060    -1.4513950    -0.8901140
  H       -1.1802510    -1.4521290     0.8560270
  H       -2.5275640     0.6780870    -0.9162870
  H       -3.3724930    -0.6172840    -0.0483470
  H       -2.5529900     0.6769780     0.8451350
  H        3.1528260    -0.7045810     0.0501140
  H        2.4139010     0.6783770     0.9207630
  H        2.4412840     0.6703610    -0.8553990
units angstrom
no_reorient  #important for SAPT in psi4, default
symmetry c1  #important for SAPT in psi4, default
}

set PROPERTIES_ORIGIN ["COM"]
properties('MP2/aug-cc-pvtz', properties = ['dipole'])
--------------------------------------------------------------------------

    Molecular point group: c1
  Charge       = 0
  Multiplicity = 1
  Basis Set: AUG-CC-PVTZ
    Blend: AUG-CC-PVTZ
  Basis Set: (AUG-CC-PVTZ AUX)
    Blend: AUG-CC-PVTZ-JKFIT

    Orbital Energies [Eh]
    ---------------------

    Doubly Occupied:

       1A    -20.621668     2A    -20.558652     3A    -11.371827
       4A    -11.294246     5A    -11.223709     6A    -11.206001
       7A     -1.506962     8A     -1.427269     9A     -1.027435
      10A     -0.978089    11A     -0.844492    12A     -0.789728
      13A     -0.711492    14A     -0.701773    15A     -0.692546
      16A     -0.604890    17A     -0.601784    18A     -0.566693
      19A     -0.557839    20A     -0.528961    21A     -0.503796
      22A     -0.495695    23A     -0.478460    24A     -0.396643

  @DF-RHF Final Energy:  -305.94489859220914

   => Energetics <=

    Nuclear Repulsion Energy =            246.3309901115235334
    One-Electron Energy =                -905.1704730036902902
    Two-Electron Energy =                 352.8945842999576143
    Total Energy =                       -305.9448985922091424
  Basis Set: (AUG-CC-PVTZ AUX)
    Blend: AUG-CC-PVTZ-RI
    Molecular point group: c1

    Geometry (in Angstrom), charge = 0, multiplicity = 1:

       Center              X                  Y                   Z               Mass
    ------------   -----------------  -----------------  -----------------  -----------------
         O            1.112325961406    -0.719091997949     0.018901468586    15.994914619570
         O            0.019506961406     1.269442002051    -0.003595531414    15.994914619570
         C           -1.243084038594    -0.808160997949    -0.017771531414    12.000000000000
         C           -2.518385038594     0.019350002051    -0.035672531414    12.000000000000
         C            0.159855661406     0.164625602051     0.002237368586    12.000000000000
         C            2.341601961406     0.028844002051     0.034220468586    12.000000000000
         H           -1.178203038594    -1.466924997949    -0.890433531414     1.007825032230
         H           -1.202648038594    -1.467658997949     0.855707468586     1.007825032230
         H           -2.549961038594     0.662557002051    -0.916606531414     1.007825032230
         H           -3.394890038594    -0.632813997949    -0.048666531414     1.007825032230
         H           -2.575387038594     0.661448002051     0.844815468586     1.007825032230
         H            3.130428961406    -0.720110997949     0.049794468586     1.007825032230
         H            2.391503961406     0.662847002051     0.920443468586     1.007825032230
         H            2.418886961406     0.654831002051    -0.855718531414     1.007825032230

  Basis Set: AUG-CC-PVTZ
    Blend: AUG-CC-PVTZ
  Basis Set: (AUG-CC-PVTZ AUX)
    Blend: AUG-CC-PVTZ-JKFIT
	 Reference Energy          =    -305.9448985922091424 [Eh]
	 Singles Energy            =      -0.0000000000000000 [Eh]
	 Same-Spin Energy          =      -0.2960206957296551 [Eh]
	 Opposite-Spin Energy      =      -0.9739315630187074 [Eh]
	 Correlation Energy        =      -1.2699522587483625 [Eh]
	 Total Energy              =    -307.2148508509575322 [Eh]

	 ================> DF-SCS-MP2 Energies <==================
	-----------------------------------------------------------
	 SCS Same-Spin Scale       =       0.3333333333333333 [-]
	 SCS Opposite-Spin Scale   =       1.2000000000000000 [-]
	 SCS Same-Spin Energy      =      -0.0986735652432184 [Eh]
	 SCS Opposite-Spin Energy  =      -1.1687178756224488 [Eh]
	 SCS Correlation Energy    =      -1.2673914408656670 [Eh]
	 SCS Total Energy          =    -307.2122900330747939 [Eh]
	-----------------------------------------------------------

  Dipole Moment: [D]
     X:     1.6290      Y:    -0.8656      Z:     0.0260     Total:     1.8449

*** Psi4 exiting successfully. Buy a developer a beer!
