                               Psi4 1.4a3.dev225

  ==> Input File <==

--------------------------------------------------------------------------
#psi4
#
memory 32 gb

molecule  {
0 1
  O        1.1455950    -0.7206100    -0.0000020
  O        0.1065970     1.2988430     0.0000060
  C       -1.2145750    -0.7450000     0.0000080
  C       -2.4678730     0.1187130    -0.0000080
  C        0.0482744     0.0600461     0.0000030
  C        2.3963290    -0.0041190    -0.0000040
  H       -1.1806580    -1.4052490    -0.8737030
  H       -1.1806650    -1.4052230     0.8737390
  H       -2.4946670     0.7625720    -0.8811910
  H       -3.3622150    -0.5096080    -0.0000470
  H       -2.4947180     0.7625340     0.8812010
  H        3.1644210    -0.7750410    -0.0000210
  H        2.4762030     0.6232120     0.8890930
  H        2.4761870     0.6232350    -0.8890870
units angstrom
no_reorient  #important for SAPT in psi4, default
symmetry c1  #important for SAPT in psi4, default
}

set PROPERTIES_ORIGIN ["COM"]
properties('MP2/aug-cc-pvtz', properties = ['dipole'])
--------------------------------------------------------------------------

    Molecular point group: c1
  Charge       = 0
  Multiplicity = 1
  Basis Set: AUG-CC-PVTZ
    Blend: AUG-CC-PVTZ
  Basis Set: (AUG-CC-PVTZ AUX)
    Blend: AUG-CC-PVTZ-JKFIT

    Orbital Energies [Eh]
    ---------------------

    Doubly Occupied:

       1A    -20.607055     2A    -20.541093     3A    -11.381055
       4A    -11.286288     5A    -11.246319     6A    -11.221018
       7A     -1.453698     8A     -1.341672     9A     -1.067948
      10A     -0.974413    11A     -0.880227    12A     -0.768047
      13A     -0.697787    14A     -0.677878    15A     -0.666257
      16A     -0.620882    17A     -0.597221    18A     -0.536932
      19A     -0.535889    20A     -0.525872    21A     -0.517528
      22A     -0.495214    23A     -0.458734    24A     -0.446758

  @DF-RHF Final Energy:  -305.98413495686242

   => Energetics <=

    Nuclear Repulsion Energy =            244.7615149200617566
    One-Electron Energy =                -902.3997290601816985
    Two-Electron Energy =                 351.6540791832575792
    Total Energy =                       -305.9841349568624196
  Basis Set: (AUG-CC-PVTZ AUX)
    Blend: AUG-CC-PVTZ-RI
    Molecular point group: c1

    Geometry (in Angstrom), charge = 0, multiplicity = 1:

       Center              X                  Y                   Z               Mass
    ------------   -----------------  -----------------  -----------------  -----------------
         O            1.116542510684    -0.732768025725    -0.000002407194    15.994914619570
         O            0.077544510684     1.286684974275     0.000005592806    15.994914619570
         C           -1.243627489316    -0.757158025725     0.000007592806    12.000000000000
         C           -2.496925489316     0.106554974275    -0.000008407194    12.000000000000
         C            0.019221910684     0.047888074275     0.000002592806    12.000000000000
         C            2.367276510684    -0.016277025725    -0.000004407194    12.000000000000
         H           -1.209710489316    -1.417407025725    -0.873703407194     1.007825032230
         H           -1.209717489316    -1.417381025725     0.873738592806     1.007825032230
         H           -2.523719489316     0.750413974275    -0.881191407194     1.007825032230
         H           -3.391267489316    -0.521766025725    -0.000047407194     1.007825032230
         H           -2.523770489316     0.750375974275     0.881200592806     1.007825032230
         H            3.135368510684    -0.787199025725    -0.000021407194     1.007825032230
         H            2.447150510684     0.611053974275     0.889092592806     1.007825032230
         H            2.447134510684     0.611076974275    -0.889087407194     1.007825032230

  Basis Set: AUG-CC-PVTZ
    Blend: AUG-CC-PVTZ
  Basis Set: (AUG-CC-PVTZ AUX)
    Blend: AUG-CC-PVTZ-JKFIT
	 Reference Energy          =    -305.9841349568624196 [Eh]
	 Singles Energy            =      -0.0000000000000000 [Eh]
	 Same-Spin Energy          =      -0.2977935455495599 [Eh]
	 Opposite-Spin Energy      =      -0.9774238655748266 [Eh]
	 Correlation Energy        =      -1.2752174111243866 [Eh]
	 Total Energy              =    -307.2593523679868213 [Eh]

	 ================> DF-SCS-MP2 Energies <==================
	-----------------------------------------------------------
	 SCS Same-Spin Scale       =       0.3333333333333333 [-]
	 SCS Opposite-Spin Scale   =       1.2000000000000000 [-]
	 SCS Same-Spin Energy      =      -0.0992645151831866 [Eh]
	 SCS Opposite-Spin Energy  =      -1.1729086386897920 [Eh]
	 SCS Correlation Energy    =      -1.2721731538729786 [Eh]
	 SCS Total Energy          =    -307.2563081107354037 [Eh]
	-----------------------------------------------------------

  Dipole Moment: [D]
     X:     0.4473      Y:    -1.6932      Z:    -0.0000     Total:     1.7513

*** Psi4 exiting successfully. Buy a developer a beer!
