                               Psi4 1.3.2 release

  ==> Input File <==

--------------------------------------------------------------------------
#psi4
#
memory 32 gb

molecule  {
0 1
  O        1.1347230    -0.7035620     0.0192210
  O        0.0419040     1.2849720    -0.0032760
  C       -1.2206870    -0.7926310    -0.0174520
  C       -2.4959880     0.0348800    -0.0353530
  C       -0.0082743     0.0267505    -0.0000307
  C        2.3893479     0.0010143     0.0350624
  H       -1.1558060    -1.4513950    -0.8901140
  H       -1.1802510    -1.4521290     0.8560270
  H       -2.5275640     0.6780870    -0.9162870
  H       -3.3724930    -0.6172840    -0.0483470
  H       -2.5529900     0.6769780     0.8451350
  H        3.1528260    -0.7045810     0.0501140
  H        2.4139010     0.6783770     0.9207630
  H        2.4412840     0.6703610    -0.8553990
units angstrom
no_reorient  #important for SAPT in psi4, default
symmetry c1  #important for SAPT in psi4, default
}

set PROPERTIES_ORIGIN ["COM"]
properties('MP2/aug-cc-pvtz', properties = ['dipole'])
--------------------------------------------------------------------------

    Molecular point group: c1
  Charge       = 0
  Multiplicity = 1
  Basis Set: AUG-CC-PVTZ
    Blend: AUG-CC-PVTZ
  Basis Set: (AUG-CC-PVTZ AUX)
    Blend: AUG-CC-PVTZ-JKFIT

    Orbital Energies [Eh]
    ---------------------

    Doubly Occupied:

       1A    -20.603193     2A    -20.539033     3A    -11.383865
       4A    -11.285631     5A    -11.247591     6A    -11.222836
       7A     -1.445457     8A     -1.329545     9A     -1.077035
      10A     -0.975864    11A     -0.886367    12A     -0.763690
      13A     -0.699998    14A     -0.673473    15A     -0.664541
      16A     -0.619828    17A     -0.606431    18A     -0.539316
      19A     -0.529631    20A     -0.528413    21A     -0.515799
      22A     -0.492872    23A     -0.450413    24A     -0.447334

  @DF-RHF Final Energy:  -305.97603314383042

   => Energetics <=

    Nuclear Repulsion Energy =            244.5337857437927198
    One-Electron Energy =                -901.9633225340342051
    Two-Electron Energy =                 351.4535036464110931
    Total Energy =                       -305.9760331438304206
  Basis Set: (AUG-CC-PVTZ AUX)
    Blend: AUG-CC-PVTZ-RI
    Molecular point group: c1

    Geometry (in Angstrom), charge = 0, multiplicity = 1:

       Center              X                  Y                   Z               Mass
    ------------   -----------------  -----------------  -----------------  -----------------
         O            1.134836836022    -0.692276410764     0.019182919083    15.994914619570
         O            0.042017836022     1.296257589236    -0.003314080917    15.994914619570
         C           -1.220573163978    -0.781345410764    -0.017490080917    12.000000000000
         C           -2.495874163978     0.046165589236    -0.035391080917    12.000000000000
         C           -0.008160463978     0.038036089236    -0.000068780917    12.000000000000
         C            2.389461736022     0.012299889236     0.035024319083    12.000000000000
         H           -1.155692163978    -1.440109410764    -0.890152080917     1.007825032230
         H           -1.180137163978    -1.440843410764     0.855988919083     1.007825032230
         H           -2.527450163978     0.689372589236    -0.916325080917     1.007825032230
         H           -3.372379163978    -0.605998410764    -0.048385080917     1.007825032230
         H           -2.552876163978     0.688263589236     0.845096919083     1.007825032230
         H            3.152939836022    -0.693295410764     0.050075919083     1.007825032230
         H            2.414014836022     0.689662589236     0.920724919083     1.007825032230
         H            2.441397836022     0.681646589236    -0.855437080917     1.007825032230

  Basis Set: AUG-CC-PVTZ
    Blend: AUG-CC-PVTZ
  Basis Set: (AUG-CC-PVTZ AUX)
    Blend: AUG-CC-PVTZ-JKFIT
	 Reference Energy          =    -305.9760331438304206 [Eh]
	 Singles Energy            =      -0.0000000000000000 [Eh]
	 Same-Spin Energy          =      -0.2984871811747256 [Eh]
	 Opposite-Spin Energy      =      -0.9785391909300207 [Eh]
	 Correlation Energy        =      -1.2770263721047463 [Eh]
	 Total Energy              =    -307.2530595159351492 [Eh]

	 ================> DF-SCS-MP2 Energies <==================
	-----------------------------------------------------------
	 SCS Same-Spin Scale       =       0.3333333333333333 [-]
	 SCS Opposite-Spin Scale   =       1.2000000000000000 [-]
	 SCS Same-Spin Energy      =      -0.0994957270582419 [Eh]
	 SCS Opposite-Spin Energy  =      -1.1742470291160247 [Eh]
	 SCS Correlation Energy    =      -1.2737427561742667 [Eh]
	 SCS Total Energy          =    -307.2497759000046926 [Eh]
	-----------------------------------------------------------

  Dipole Moment: [D]
     X:     0.3643      Y:    -1.8275      Z:     0.0087     Total:     1.8635

*** Psi4 exiting successfully. Buy a developer a beer!
