                               Psi4 1.3.2 release

  ==> Input File <==

--------------------------------------------------------------------------
#psi4
#
memory 32 gb

molecule  {
0 1
  O        1.1347230    -0.7035620     0.0192210
  O        0.0419040     1.2849720    -0.0032760
  C       -1.2206870    -0.7926310    -0.0174520
  C       -2.4959880     0.0348800    -0.0353530
  C        0.0221204     0.0602518    -0.0107367
  C        2.3639990     0.0443740     0.0345400
  H       -1.1473856    -1.4474846    -0.8923875
  H       -1.1802510    -1.4521290     0.8560270
  H       -2.5275640     0.6780870    -0.9162870
  H       -3.3724930    -0.6172840    -0.0483470
  H       -2.5529900     0.6769780     0.8451350
  H        3.1528260    -0.7045810     0.0501140
  H        2.4139010     0.6783770     0.9207630
  H        2.4412840     0.6703610    -0.8553990
units angstrom
no_reorient  #important for SAPT in psi4, default
symmetry c1  #important for SAPT in psi4, default
}

set PROPERTIES_ORIGIN ["COM"]
properties('MP2/aug-cc-pvtz', properties = ['dipole'])
--------------------------------------------------------------------------

    Molecular point group: c1
  Charge       = 0
  Multiplicity = 1
  Basis Set: AUG-CC-PVTZ
    Blend: AUG-CC-PVTZ
  Basis Set: (AUG-CC-PVTZ AUX)
    Blend: AUG-CC-PVTZ-JKFIT

    Orbital Energies [Eh]
    ---------------------

    Doubly Occupied:

       1A    -20.605660     2A    -20.543306     3A    -11.379274
       4A    -11.285230     5A    -11.245230     6A    -11.220168
       7A     -1.455321     8A     -1.350208     9A     -1.066032
      10A     -0.973289    11A     -0.878191    12A     -0.767933
      13A     -0.698530    14A     -0.678075    15A     -0.667970
      16A     -0.620360    17A     -0.598679    18A     -0.538331
      19A     -0.536334    20A     -0.524917    21A     -0.518566
      22A     -0.495599    23A     -0.461544    24A     -0.446775

  @DF-RHF Final Energy:  -305.98610291245120

   => Energetics <=

    Nuclear Repulsion Energy =            245.0735947036376672
    One-Electron Energy =                -903.0083471832271016
    Two-Electron Energy =                 351.9486495671382045
    Total Energy =                       -305.9861029124512015
  Basis Set: (AUG-CC-PVTZ AUX)
    Blend: AUG-CC-PVTZ-RI
    Molecular point group: c1

    Geometry (in Angstrom), charge = 0, multiplicity = 1:

       Center              X                  Y                   Z               Mass
    ------------   -----------------  -----------------  -----------------  -----------------
         O            1.134052804391    -0.702795972851     0.020739174725    15.994914619570
         O            0.041233804391     1.285738027149    -0.001757825275    15.994914619570
         C           -1.221357195609    -0.791864972851    -0.015933825275    12.000000000000
         C           -2.496658195609     0.035646027149    -0.033834825275    12.000000000000
         C            0.021450204391     0.061017827149    -0.009218525275    12.000000000000
         C            2.363328804391     0.045140027149     0.036058174725    12.000000000000
         H           -1.148055795609    -1.446718572851    -0.890869325275     1.007825032230
         H           -1.180921195609    -1.451362972851     0.857545174725     1.007825032230
         H           -2.528234195609     0.678853027149    -0.914768825275     1.007825032230
         H           -3.373163195609    -0.616517972851    -0.046828825275     1.007825032230
         H           -2.553660195609     0.677744027149     0.846653174725     1.007825032230
         H            3.152155804391    -0.703814972851     0.051632174725     1.007825032230
         H            2.413230804391     0.679143027149     0.922281174725     1.007825032230
         H            2.440613804391     0.671127027149    -0.853880825275     1.007825032230

  Basis Set: AUG-CC-PVTZ
    Blend: AUG-CC-PVTZ
  Basis Set: (AUG-CC-PVTZ AUX)
    Blend: AUG-CC-PVTZ-JKFIT
	 Reference Energy          =    -305.9861029124512015 [Eh]
	 Singles Energy            =      -0.0000000000000000 [Eh]
	 Same-Spin Energy          =      -0.2974765026550073 [Eh]
	 Opposite-Spin Energy      =      -0.9767123747355988 [Eh]
	 Correlation Energy        =      -1.2741888773906060 [Eh]
	 Total Energy              =    -307.2602917898418013 [Eh]

	 ================> DF-SCS-MP2 Energies <==================
	-----------------------------------------------------------
	 SCS Same-Spin Scale       =       0.3333333333333333 [-]
	 SCS Opposite-Spin Scale   =       1.2000000000000000 [-]
	 SCS Same-Spin Energy      =      -0.0991588342183358 [Eh]
	 SCS Opposite-Spin Energy  =      -1.1720548496827186 [Eh]
	 SCS Correlation Energy    =      -1.2712136839010544 [Eh]
	 SCS Total Energy          =    -307.2573165963522683 [Eh]
	-----------------------------------------------------------

  Dipole Moment: [D]
     X:     0.4928      Y:    -1.6011      Z:     0.0001     Total:     1.6752

*** Psi4 exiting successfully. Buy a developer a beer!
