                               Psi4 1.4a3.dev225

  ==> Input File <==

--------------------------------------------------------------------------
#psi4
#
memory 32 gb

molecule  {
0 1
  O        1.1455950    -0.7206100    -0.0000020
  O        0.1065970     1.2988430     0.0000060
  C       -1.2145750    -0.7450000     0.0000080
  C       -2.4678730     0.1187130    -0.0000080
  C        0.0910832     0.1073563     0.0000028
  C        2.3963290    -0.0041190    -0.0000040
  H       -1.1806580    -1.4052490    -0.8737030
  H       -1.1806650    -1.4052230     0.8737390
  H       -2.4946670     0.7625720    -0.8811910
  H       -3.3622150    -0.5096080    -0.0000470
  H       -2.4947180     0.7625340     0.8812010
  H        3.1644210    -0.7750410    -0.0000210
  H        2.4762030     0.6232120     0.8890930
  H        2.4761870     0.6232350    -0.8890870
units angstrom
no_reorient  #important for SAPT in psi4, default
symmetry c1  #important for SAPT in psi4, default
}

set PROPERTIES_ORIGIN ["COM"]
properties('MP2/aug-cc-pvtz', properties = ['dipole'])
--------------------------------------------------------------------------

    Molecular point group: c1
  Charge       = 0
  Multiplicity = 1
  Basis Set: AUG-CC-PVTZ
    Blend: AUG-CC-PVTZ
  Basis Set: (AUG-CC-PVTZ AUX)
    Blend: AUG-CC-PVTZ-JKFIT

    Orbital Energies [Eh]
    ---------------------

    Doubly Occupied:

       1A    -20.608007     2A    -20.547299     3A    -11.375805
       4A    -11.286853     5A    -11.242131     6A    -11.217187
       7A     -1.465637     8A     -1.370582     9A     -1.053876
      10A     -0.973015    11A     -0.869090    12A     -0.771645
      13A     -0.699197    14A     -0.680758    15A     -0.674150
      16A     -0.616124    17A     -0.599093    18A     -0.544592
      19A     -0.541040    20A     -0.520379    21A     -0.518870
      22A     -0.494634    23A     -0.469159    24A     -0.440788

  @DF-RHF Final Energy:  -305.98601451858258

   => Energetics <=

    Nuclear Repulsion Energy =            245.1341343757947868
    One-Electron Energy =                -903.0804790330815877
    Two-Electron Energy =                 351.9603301387041938
    Total Energy =                       -305.9860145185825786
  Basis Set: (AUG-CC-PVTZ AUX)
    Blend: AUG-CC-PVTZ-RI
    Molecular point group: c1

    Geometry (in Angstrom), charge = 0, multiplicity = 1:

       Center              X                  Y                   Z               Mass
    ------------   -----------------  -----------------  -----------------  -----------------
         O            1.110708422937    -0.739215575250    -0.000002379938    15.994914619570
         O            0.071710422937     1.280237424750     0.000005620062    15.994914619570
         C           -1.249461577063    -0.763605575250     0.000007620062    12.000000000000
         C           -2.502759577063     0.100107424750    -0.000008379938    12.000000000000
         C            0.056196622937     0.088750724750     0.000002420062    12.000000000000
         C            2.361442422937    -0.022724575250    -0.000004379938    12.000000000000
         H           -1.215544577063    -1.423854575250    -0.873703379938     1.007825032230
         H           -1.215551577063    -1.423828575250     0.873738620062     1.007825032230
         H           -2.529553577063     0.743966424750    -0.881191379938     1.007825032230
         H           -3.397101577063    -0.528213575250    -0.000047379938     1.007825032230
         H           -2.529604577063     0.743928424750     0.881200620062     1.007825032230
         H            3.129534422937    -0.793646575250    -0.000021379938     1.007825032230
         H            2.441316422937     0.604606424750     0.889092620062     1.007825032230
         H            2.441300422937     0.604629424750    -0.889087379938     1.007825032230

  Basis Set: AUG-CC-PVTZ
    Blend: AUG-CC-PVTZ
  Basis Set: (AUG-CC-PVTZ AUX)
    Blend: AUG-CC-PVTZ-JKFIT
	 Reference Energy          =    -305.9860145185825786 [Eh]
	 Singles Energy            =      -0.0000000000000000 [Eh]
	 Same-Spin Energy          =      -0.2966126395868405 [Eh]
	 Opposite-Spin Energy      =      -0.9752761724977964 [Eh]
	 Correlation Energy        =      -1.2718888120846370 [Eh]
	 Total Energy              =    -307.2579033306672045 [Eh]

	 ================> DF-SCS-MP2 Energies <==================
	-----------------------------------------------------------
	 SCS Same-Spin Scale       =       0.3333333333333333 [-]
	 SCS Opposite-Spin Scale   =       1.2000000000000000 [-]
	 SCS Same-Spin Energy      =      -0.0988708798622802 [Eh]
	 SCS Opposite-Spin Energy  =      -1.1703314069973556 [Eh]
	 SCS Correlation Energy    =      -1.2692022868596358 [Eh]
	 SCS Total Energy          =    -307.2552168054422168 [Eh]
	-----------------------------------------------------------

  Dipole Moment: [D]
     X:     0.6806      Y:    -1.4313      Z:    -0.0000     Total:     1.5848

*** Psi4 exiting successfully. Buy a developer a beer!
