                               Psi4 1.3.2 release

  ==> Input File <==

--------------------------------------------------------------------------
#psi4
#
memory 32 gb

molecule  {
0 1
  O        1.1071803    -0.7420749     0.0188669
  O        0.0419040     1.2849720    -0.0032760
  C       -1.1899646    -0.8353385    -0.0168862
  C       -2.4959880     0.0348800    -0.0353530
  C        0.0179090     0.0662010     0.0002130
  C        2.3639990     0.0443740     0.0345400
  H       -1.1558060    -1.4513950    -0.8901140
  H       -1.1802510    -1.4521290     0.8560270
  H       -2.5275640     0.6780870    -0.9162870
  H       -3.3724930    -0.6172840    -0.0483470
  H       -2.5529900     0.6769780     0.8451350
  H        3.1528260    -0.7045810     0.0501140
  H        2.4139010     0.6783770     0.9207630
  H        2.4412840     0.6703610    -0.8553990
units angstrom
no_reorient  #important for SAPT in psi4, default
symmetry c1  #important for SAPT in psi4, default
}

set PROPERTIES_ORIGIN ["COM"]
properties('MP2/aug-cc-pvtz', properties = ['dipole'])
--------------------------------------------------------------------------

    Molecular point group: c1
  Charge       = 0
  Multiplicity = 1
  Basis Set: AUG-CC-PVTZ
    Blend: AUG-CC-PVTZ
  Basis Set: (AUG-CC-PVTZ AUX)
    Blend: AUG-CC-PVTZ-JKFIT

    Orbital Energies [Eh]
    ---------------------

    Doubly Occupied:

       1A    -20.605603     2A    -20.547457     3A    -11.378771
       4A    -11.288749     5A    -11.239946     6A    -11.219899
       7A     -1.448114     8A     -1.351355     9A     -1.058823
      10A     -0.966159    11A     -0.877914    12A     -0.766407
      13A     -0.696846    14A     -0.674643    15A     -0.665728
      16A     -0.619877    17A     -0.592556    18A     -0.540563
      19A     -0.540429    20A     -0.521945    21A     -0.504658
      22A     -0.502970    23A     -0.465877    24A     -0.448033

  @DF-RHF Final Energy:  -305.97959858445785

   => Energetics <=

    Nuclear Repulsion Energy =            244.2781277288605395
    One-Electron Energy =                -901.4688097910822080
    Two-Electron Energy =                 351.2110834777637933
    Total Energy =                       -305.9795985844578468
  Basis Set: (AUG-CC-PVTZ AUX)
    Blend: AUG-CC-PVTZ-RI
    Molecular point group: c1

    Geometry (in Angstrom), charge = 0, multiplicity = 1:

       Center              X                  Y                   Z               Mass
    ------------   -----------------  -----------------  -----------------  -----------------
         O            1.107996689435    -0.729258652859     0.018854015426    15.994914619570
         O            0.042720389435     1.297788247141    -0.003288884574    15.994914619570
         C           -1.189148210565    -0.822522252859    -0.016899084574    12.000000000000
         C           -2.495171610565     0.047696247141    -0.035365884574    12.000000000000
         C            0.018725389435     0.079017247141     0.000200115426    12.000000000000
         C            2.364815389435     0.057190247141     0.034527115426    12.000000000000
         H           -1.154989610565    -1.438578752859    -0.890126884574     1.007825032230
         H           -1.179434610565    -1.439312752859     0.856014115426     1.007825032230
         H           -2.526747610565     0.690903247141    -0.916299884574     1.007825032230
         H           -3.371676610565    -0.604467752859    -0.048359884574     1.007825032230
         H           -2.552173610565     0.689794247141     0.845122115426     1.007825032230
         H            3.153642389435    -0.691764752859     0.050101115426     1.007825032230
         H            2.414717389435     0.691193247141     0.920750115426     1.007825032230
         H            2.442100389435     0.683177247141    -0.855411884574     1.007825032230

  Basis Set: AUG-CC-PVTZ
    Blend: AUG-CC-PVTZ
  Basis Set: (AUG-CC-PVTZ AUX)
    Blend: AUG-CC-PVTZ-JKFIT
	 Reference Energy          =    -305.9795985844578468 [Eh]
	 Singles Energy            =      -0.0000000000000000 [Eh]
	 Same-Spin Energy          =      -0.2977600952439883 [Eh]
	 Opposite-Spin Energy      =      -0.9783351099884512 [Eh]
	 Correlation Energy        =      -1.2760952052324395 [Eh]
	 Total Energy              =    -307.2556937896902696 [Eh]

	 ================> DF-SCS-MP2 Energies <==================
	-----------------------------------------------------------
	 SCS Same-Spin Scale       =       0.3333333333333333 [-]
	 SCS Opposite-Spin Scale   =       1.2000000000000000 [-]
	 SCS Same-Spin Energy      =      -0.0992533650813294 [Eh]
	 SCS Opposite-Spin Energy  =      -1.1740021319861413 [Eh]
	 SCS Correlation Energy    =      -1.2732554970674708 [Eh]
	 SCS Total Energy          =    -307.2528540815252995 [Eh]
	-----------------------------------------------------------

  Dipole Moment: [D]
     X:     0.6357      Y:    -1.4688      Z:     0.0119     Total:     1.6005

*** Psi4 exiting successfully. Buy a developer a beer!
