                               Psi4 1.3.2 release

  ==> Input File <==

--------------------------------------------------------------------------
#psi4
#
memory 32 gb

molecule  {
0 1
  O        1.1347230    -0.7035620     0.0192210
  O        0.0419040     1.2849720    -0.0032760
  C       -1.2206870    -0.7926310    -0.0174520
  C       -2.4886845     0.0462047    -0.0124945
  C        0.0179090     0.0662010     0.0002130
  C        2.3639990     0.0443740     0.0345400
  H       -1.1390212    -1.4579375    -0.8837178
  H       -1.1802510    -1.4521290     0.8560270
  H       -2.5275640     0.6780870    -0.9162870
  H       -3.3724930    -0.6172840    -0.0483470
  H       -2.5529900     0.6769780     0.8451350
  H        3.1528260    -0.7045810     0.0501140
  H        2.4139010     0.6783770     0.9207630
  H        2.4412840     0.6703610    -0.8553990
units angstrom
no_reorient  #important for SAPT in psi4, default
symmetry c1  #important for SAPT in psi4, default
}

set PROPERTIES_ORIGIN ["COM"]
properties('MP2/aug-cc-pvtz', properties = ['dipole'])
--------------------------------------------------------------------------

    Molecular point group: c1
  Charge       = 0
  Multiplicity = 1
  Basis Set: AUG-CC-PVTZ
    Blend: AUG-CC-PVTZ
  Basis Set: (AUG-CC-PVTZ AUX)
    Blend: AUG-CC-PVTZ-JKFIT

    Orbital Energies [Eh]
    ---------------------

    Doubly Occupied:

       1A    -20.603727     2A    -20.544714     3A    -11.378759
       4A    -11.284241     5A    -11.245400     6A    -11.220626
       7A     -1.453801     8A     -1.352727     9A     -1.066232
      10A     -0.971597    11A     -0.878163    12A     -0.766816
      13A     -0.699395    14A     -0.676902    15A     -0.667774
      16A     -0.620669    17A     -0.598373    18A     -0.541176
      19A     -0.534280    20A     -0.526658    21A     -0.516728
      22A     -0.496002    23A     -0.462073    24A     -0.447269

  @DF-RHF Final Energy:  -305.98556134070270

   => Energetics <=

    Nuclear Repulsion Energy =            245.1520327071127667
    One-Electron Energy =                -903.1669839997188092
    Two-Electron Energy =                 352.0293899519033403
    Total Energy =                       -305.9855613407027022
  Basis Set: (AUG-CC-PVTZ AUX)
    Blend: AUG-CC-PVTZ-RI
    Molecular point group: c1

    Geometry (in Angstrom), charge = 0, multiplicity = 1:

       Center              X                  Y                   Z               Mass
    ------------   -----------------  -----------------  -----------------  -----------------
         O            1.133535668726    -0.705030460949     0.016032479600    15.994914619570
         O            0.040716668726     1.283503539051    -0.006464520400    15.994914619570
         C           -1.221874331274    -0.794099460949    -0.020640520400    12.000000000000
         C           -2.489871831274     0.044736239051    -0.015683020400    12.000000000000
         C            0.016721668726     0.064732539051    -0.002975520400    12.000000000000
         C            2.362811668726     0.042905539051     0.031351479600    12.000000000000
         H           -1.140208531274    -1.459405960949    -0.886906320400     1.007825032230
         H           -1.181438331274    -1.453597460949     0.852838479600     1.007825032230
         H           -2.528751331274     0.676618539051    -0.919475520400     1.007825032230
         H           -3.373680331274    -0.618752460949    -0.051535520400     1.007825032230
         H           -2.554177331274     0.675509539051     0.841946479600     1.007825032230
         H            3.151638668726    -0.706049460949     0.046925479600     1.007825032230
         H            2.412713668726     0.676908539051     0.917574479600     1.007825032230
         H            2.440096668726     0.668892539051    -0.858587520400     1.007825032230

  Basis Set: AUG-CC-PVTZ
    Blend: AUG-CC-PVTZ
  Basis Set: (AUG-CC-PVTZ AUX)
    Blend: AUG-CC-PVTZ-JKFIT
	 Reference Energy          =    -305.9855613407027022 [Eh]
	 Singles Energy            =      -0.0000000000000000 [Eh]
	 Same-Spin Energy          =      -0.2974380832025806 [Eh]
	 Opposite-Spin Energy      =      -0.9766390851373224 [Eh]
	 Correlation Energy        =      -1.2740771683399030 [Eh]
	 Total Energy              =    -307.2596385090425883 [Eh]

	 ================> DF-SCS-MP2 Energies <==================
	-----------------------------------------------------------
	 SCS Same-Spin Scale       =       0.3333333333333333 [-]
	 SCS Opposite-Spin Scale   =       1.2000000000000000 [-]
	 SCS Same-Spin Energy      =      -0.0991460277341935 [Eh]
	 SCS Opposite-Spin Energy  =      -1.1719669021647869 [Eh]
	 SCS Correlation Energy    =      -1.2711129298989805 [Eh]
	 SCS Total Energy          =    -307.2566742706017067 [Eh]
	-----------------------------------------------------------

  Dipole Moment: [D]
     X:     0.4467      Y:    -1.5635      Z:     0.0183     Total:     1.6262

*** Psi4 exiting successfully. Buy a developer a beer!
