                               Psi4 1.4a3.dev225

  ==> Input File <==

--------------------------------------------------------------------------
#psi4
#
memory 32 gb

molecule  {
0 1
  O        1.1455950    -0.7206100    -0.0000020
  O        0.1065970     1.2988430     0.0000060
  C       -1.2145750    -0.7450000     0.0000080
  C       -2.4678730     0.1187130    -0.0000080
  C        0.0468636     0.0300793     0.0000029
  C        2.3963290    -0.0041190    -0.0000040
  H       -1.1806580    -1.4052490    -0.8737030
  H       -1.1806650    -1.4052230     0.8737390
  H       -2.4946670     0.7625720    -0.8811910
  H       -3.3622150    -0.5096080    -0.0000470
  H       -2.4947180     0.7625340     0.8812010
  H        3.1644210    -0.7750410    -0.0000210
  H        2.4762030     0.6232120     0.8890930
  H        2.4761870     0.6232350    -0.8890870
units angstrom
no_reorient  #important for SAPT in psi4, default
symmetry c1  #important for SAPT in psi4, default
}

set PROPERTIES_ORIGIN ["COM"]
properties('MP2/aug-cc-pvtz', properties = ['dipole'])
--------------------------------------------------------------------------

    Molecular point group: c1
  Charge       = 0
  Multiplicity = 1
  Basis Set: AUG-CC-PVTZ
    Blend: AUG-CC-PVTZ
  Basis Set: (AUG-CC-PVTZ AUX)
    Blend: AUG-CC-PVTZ-JKFIT

    Orbital Energies [Eh]
    ---------------------

    Doubly Occupied:

       1A    -20.611512     2A    -20.535119     3A    -11.383028
       4A    -11.288606     5A    -11.247086     6A    -11.221655
       7A     -1.457457     8A     -1.324435     9A     -1.071953
      10A     -0.979064    11A     -0.884119    12A     -0.770514
      13A     -0.696614    14A     -0.680568    15A     -0.665624
      16A     -0.622431    17A     -0.593879    18A     -0.536351
      19A     -0.535623    20A     -0.528770    21A     -0.514453
      22A     -0.494923    23A     -0.451755    24A     -0.444181

  @DF-RHF Final Energy:  -305.97888796343744

   => Energetics <=

    Nuclear Repulsion Energy =            244.6726599947969589
    One-Electron Energy =                -902.2236558197338354
    Two-Electron Energy =                 351.5721078614994326
    Total Energy =                       -305.9788879634374439
  Basis Set: (AUG-CC-PVTZ AUX)
    Blend: AUG-CC-PVTZ-RI
    Molecular point group: c1

    Geometry (in Angstrom), charge = 0, multiplicity = 1:

       Center              X                  Y                   Z               Mass
    ------------   -----------------  -----------------  -----------------  -----------------
         O            1.116734777951    -0.728684077081    -0.000002393566    15.994914619570
         O            0.077736777951     1.290768922919     0.000005606434    15.994914619570
         C           -1.243435222049    -0.753074077081     0.000007606434    12.000000000000
         C           -2.496733222049     0.110638922919    -0.000008393566    12.000000000000
         C            0.018003377951     0.022005222919     0.000002506434    12.000000000000
         C            2.367468777951    -0.012193077081    -0.000004393566    12.000000000000
         H           -1.209518222049    -1.413323077081    -0.873703393566     1.007825032230
         H           -1.209525222049    -1.413297077081     0.873738606434     1.007825032230
         H           -2.523527222049     0.754497922919    -0.881191393566     1.007825032230
         H           -3.391075222049    -0.517682077081    -0.000047393566     1.007825032230
         H           -2.523578222049     0.754459922919     0.881200606434     1.007825032230
         H            3.135560777951    -0.783115077081    -0.000021393566     1.007825032230
         H            2.447342777951     0.615137922919     0.889092606434     1.007825032230
         H            2.447326777951     0.615160922919    -0.889087393566     1.007825032230

  Basis Set: AUG-CC-PVTZ
    Blend: AUG-CC-PVTZ
  Basis Set: (AUG-CC-PVTZ AUX)
    Blend: AUG-CC-PVTZ-JKFIT
	 Reference Energy          =    -305.9788879634374439 [Eh]
	 Singles Energy            =      -0.0000000000000000 [Eh]
	 Same-Spin Energy          =      -0.2983813072090665 [Eh]
	 Opposite-Spin Energy      =      -0.9784332538297399 [Eh]
	 Correlation Energy        =      -1.2768145610388064 [Eh]
	 Total Energy              =    -307.2557025244762485 [Eh]

	 ================> DF-SCS-MP2 Energies <==================
	-----------------------------------------------------------
	 SCS Same-Spin Scale       =       0.3333333333333333 [-]
	 SCS Opposite-Spin Scale   =       1.2000000000000000 [-]
	 SCS Same-Spin Energy      =      -0.0994604357363555 [Eh]
	 SCS Opposite-Spin Energy  =      -1.1741199045956878 [Eh]
	 SCS Correlation Energy    =      -1.2735803403320434 [Eh]
	 SCS Total Energy          =    -307.2524683037694899 [Eh]
	-----------------------------------------------------------

  Dipole Moment: [D]
     X:     0.5089      Y:    -1.8692      Z:    -0.0000     Total:     1.9372

*** Psi4 exiting successfully. Buy a developer a beer!
