                               Psi4 1.3.2 release

  ==> Input File <==

--------------------------------------------------------------------------
#psi4
#
memory 32 gb

molecule  {
0 1
  O        1.1347230    -0.7035620     0.0192210
  O        0.1056483     1.2820491    -0.0022167
  C       -1.1740510    -0.8562832    -0.0164810
  C       -2.4959880     0.0348800    -0.0353530
  C        0.0179090     0.0662010     0.0002130
  C        2.3639990     0.0443740     0.0345400
  H       -1.1558060    -1.4513950    -0.8901140
  H       -1.1802510    -1.4521290     0.8560270
  H       -2.5275640     0.6780870    -0.9162870
  H       -3.3724930    -0.6172840    -0.0483470
  H       -2.5529900     0.6769780     0.8451350
  H        3.1528260    -0.7045810     0.0501140
  H        2.4139010     0.6783770     0.9207630
  H        2.4412840     0.6703610    -0.8553990
units angstrom
no_reorient  #important for SAPT in psi4, default
symmetry c1  #important for SAPT in psi4, default
}

set PROPERTIES_ORIGIN ["COM"]
properties('MP2/aug-cc-pvtz', properties = ['dipole'])
--------------------------------------------------------------------------

    Molecular point group: c1
  Charge       = 0
  Multiplicity = 1
  Basis Set: AUG-CC-PVTZ
    Blend: AUG-CC-PVTZ
  Basis Set: (AUG-CC-PVTZ AUX)
    Blend: AUG-CC-PVTZ-JKFIT

    Orbital Energies [Eh]
    ---------------------

    Doubly Occupied:

       1A    -20.598230     2A    -20.546392     3A    -11.379940
       4A    -11.280634     5A    -11.245643     6A    -11.225017
       7A     -1.454634     8A     -1.348972     9A     -1.062654
      10A     -0.966578    11A     -0.879882    12A     -0.767764
      13A     -0.700731    14A     -0.678582    15A     -0.667783
      16A     -0.625426    17A     -0.596045    18A     -0.537776
      19A     -0.533514    20A     -0.522875    21A     -0.511278
      22A     -0.500827    23A     -0.459816    24A     -0.450600

  @DF-RHF Final Energy:  -305.97930764874440

   => Energetics <=

    Nuclear Repulsion Energy =            244.8235606684090726
    One-Electron Energy =                -902.5225521187498998
    Two-Electron Energy =                 351.7196838015964317
    Total Energy =                       -305.9793076487443955
  Basis Set: (AUG-CC-PVTZ AUX)
    Blend: AUG-CC-PVTZ-RI
    Molecular point group: c1

    Geometry (in Angstrom), charge = 0, multiplicity = 1:

       Center              X                  Y                   Z               Mass
    ------------   -----------------  -----------------  -----------------  -----------------
         O            1.116788163827    -0.694356358644     0.018896146609    15.994914619570
         O            0.087713463827     1.291254741356    -0.002541553391    15.994914619570
         C           -1.191985836173    -0.847077558644    -0.016805853391    12.000000000000
         C           -2.513922836173     0.044085641356    -0.035677853391    12.000000000000
         C           -0.000025836173     0.075406641356    -0.000111853391    12.000000000000
         C            2.346064163827     0.053579641356     0.034215146609    12.000000000000
         H           -1.173740836173    -1.442189358644    -0.890438853391     1.007825032230
         H           -1.198185836173    -1.442923358644     0.855702146609     1.007825032230
         H           -2.545498836173     0.687292641356    -0.916611853391     1.007825032230
         H           -3.390427836173    -0.608078358644    -0.048671853391     1.007825032230
         H           -2.570924836173     0.686183641356     0.844810146609     1.007825032230
         H            3.134891163827    -0.695375358644     0.049789146609     1.007825032230
         H            2.395966163827     0.687582641356     0.920438146609     1.007825032230
         H            2.423349163827     0.679566641356    -0.855723853391     1.007825032230

  Basis Set: AUG-CC-PVTZ
    Blend: AUG-CC-PVTZ
  Basis Set: (AUG-CC-PVTZ AUX)
    Blend: AUG-CC-PVTZ-JKFIT
	 Reference Energy          =    -305.9793076487443955 [Eh]
	 Singles Energy            =      -0.0000000000000000 [Eh]
	 Same-Spin Energy          =      -0.2973671706738600 [Eh]
	 Opposite-Spin Energy      =      -0.9770255097641125 [Eh]
	 Correlation Energy        =      -1.2743926804379724 [Eh]
	 Total Energy              =    -307.2537003291823794 [Eh]

	 ================> DF-SCS-MP2 Energies <==================
	-----------------------------------------------------------
	 SCS Same-Spin Scale       =       0.3333333333333333 [-]
	 SCS Opposite-Spin Scale   =       1.2000000000000000 [-]
	 SCS Same-Spin Energy      =      -0.0991223902246200 [Eh]
	 SCS Opposite-Spin Energy  =      -1.1724306117169350 [Eh]
	 SCS Correlation Energy    =      -1.2715530019415549 [Eh]
	 SCS Total Energy          =    -307.2508606506859223 [Eh]
	-----------------------------------------------------------

  Dipole Moment: [D]
     X:     0.2740      Y:    -1.5749      Z:     0.0066     Total:     1.5986

*** Psi4 exiting successfully. Buy a developer a beer!
