                               Psi4 1.4a3.dev225

  ==> Input File <==

--------------------------------------------------------------------------
#psi4
#
memory 32 gb

molecule  {
0 1
  O        1.1455950    -0.7206100    -0.0000020
  O        0.1065970     1.2988430     0.0000060
  C       -1.2145750    -0.7450000     0.0000080
  C       -2.4678730     0.1187130    -0.0000080
  C        0.0492150     0.0800240     0.0000030
  C        2.3529436    -0.0289726    -0.0000039
  H       -1.1806580    -1.4052490    -0.8737030
  H       -1.1806650    -1.4052230     0.8737390
  H       -2.4946670     0.7625720    -0.8811910
  H       -3.3622150    -0.5096080    -0.0000470
  H       -2.4947180     0.7625340     0.8812010
  H        3.1644210    -0.7750410    -0.0000210
  H        2.4762030     0.6232120     0.8890930
  H        2.4761870     0.6232350    -0.8890870
units angstrom
no_reorient  #important for SAPT in psi4, default
symmetry c1  #important for SAPT in psi4, default
}

set PROPERTIES_ORIGIN ["COM"]
properties('MP2/aug-cc-pvtz', properties = ['dipole'])
--------------------------------------------------------------------------

    Molecular point group: c1
  Charge       = 0
  Multiplicity = 1
  Basis Set: AUG-CC-PVTZ
    Blend: AUG-CC-PVTZ
  Basis Set: (AUG-CC-PVTZ AUX)
    Blend: AUG-CC-PVTZ-JKFIT

    Orbital Energies [Eh]
    ---------------------

    Doubly Occupied:

       1A    -20.608527     2A    -20.548205     3A    -11.382699
       4A    -11.284358     5A    -11.247708     6A    -11.221967
       7A     -1.465435     8A     -1.359778     9A     -1.068260
      10A     -0.971908    11A     -0.876532    12A     -0.772989
      13A     -0.702358    14A     -0.681624    15A     -0.676329
      16A     -0.620753    17A     -0.602342    18A     -0.533545
      19A     -0.529580    20A     -0.527229    21A     -0.519171
      22A     -0.496517    23A     -0.460429    24A     -0.450580

  @DF-RHF Final Energy:  -305.98455950853224

   => Energetics <=

    Nuclear Repulsion Energy =            245.7084470813141763
    One-Electron Energy =                -904.1683711757219726
    Two-Electron Energy =                 352.4753645858755817
    Total Energy =                       -305.9845595085322429
  Basis Set: (AUG-CC-PVTZ AUX)
    Blend: AUG-CC-PVTZ-RI
    Molecular point group: c1

    Geometry (in Angstrom), charge = 0, multiplicity = 1:

       Center              X                  Y                   Z               Mass
    ------------   -----------------  -----------------  -----------------  -----------------
         O            1.122326991622    -0.732103553429    -0.000002420823    15.994914619570
         O            0.083328991622     1.287349446571     0.000005579177    15.994914619570
         C           -1.237843008378    -0.756493553429     0.000007579177    12.000000000000
         C           -2.491141008378     0.107219446571    -0.000008420823    12.000000000000
         C            0.025946991622     0.068530446571     0.000002579177    12.000000000000
         C            2.329675591622    -0.040466153429    -0.000004320823    12.000000000000
         H           -1.203926008378    -1.416742553429    -0.873703420823     1.007825032230
         H           -1.203933008378    -1.416716553429     0.873738579177     1.007825032230
         H           -2.517935008378     0.751078446571    -0.881191420823     1.007825032230
         H           -3.385483008378    -0.521101553429    -0.000047420823     1.007825032230
         H           -2.517986008378     0.751040446571     0.881200579177     1.007825032230
         H            3.141152991622    -0.786534553429    -0.000021420823     1.007825032230
         H            2.452934991622     0.611718446571     0.889092579177     1.007825032230
         H            2.452918991622     0.611741446571    -0.889087420823     1.007825032230

  Basis Set: AUG-CC-PVTZ
    Blend: AUG-CC-PVTZ
  Basis Set: (AUG-CC-PVTZ AUX)
    Blend: AUG-CC-PVTZ-JKFIT
	 Reference Energy          =    -305.9845595085322429 [Eh]
	 Singles Energy            =      -0.0000000000000000 [Eh]
	 Same-Spin Energy          =      -0.2975009322395064 [Eh]
	 Opposite-Spin Energy      =      -0.9763721309993072 [Eh]
	 Correlation Energy        =      -1.2738730632388136 [Eh]
	 Total Energy              =    -307.2584325717710385 [Eh]

	 ================> DF-SCS-MP2 Energies <==================
	-----------------------------------------------------------
	 SCS Same-Spin Scale       =       0.3333333333333333 [-]
	 SCS Opposite-Spin Scale   =       1.2000000000000000 [-]
	 SCS Same-Spin Energy      =      -0.0991669774131688 [Eh]
	 SCS Opposite-Spin Energy  =      -1.1716465571991685 [Eh]
	 SCS Correlation Energy    =      -1.2708135346123373 [Eh]
	 SCS Total Energy          =    -307.2553730431445729 [Eh]
	-----------------------------------------------------------

  Dipole Moment: [D]
     X:     0.2108      Y:    -1.6175      Z:    -0.0000     Total:     1.6312

*** Psi4 exiting successfully. Buy a developer a beer!
