                               Psi4 1.3.2 release

  ==> Input File <==

--------------------------------------------------------------------------
#psi4
#
memory 32 gb

molecule  {
0 1
  O        1.1279634    -0.7132799     0.0191513
  O        0.0312686     1.2851345    -0.0034344
  C       -1.2206870    -0.7926310    -0.0174520
  C       -2.4959880     0.0348800    -0.0353530
  C        0.0179090     0.0662010     0.0002130
  C        2.3639990     0.0443740     0.0345400
  H       -1.1558060    -1.4513950    -0.8901140
  H       -1.1802510    -1.4521290     0.8560270
  H       -2.5275640     0.6780870    -0.9162870
  H       -3.3724930    -0.6172840    -0.0483470
  H       -2.5529900     0.6769780     0.8451350
  H        3.1528260    -0.7045810     0.0501140
  H        2.4139010     0.6783770     0.9207630
  H        2.4412840     0.6703610    -0.8553990
units angstrom
no_reorient  #important for SAPT in psi4, default
symmetry c1  #important for SAPT in psi4, default
}

set PROPERTIES_ORIGIN ["COM"]
properties('MP2/aug-cc-pvtz', properties = ['dipole'])
--------------------------------------------------------------------------

    Molecular point group: c1
  Charge       = 0
  Multiplicity = 1
  Basis Set: AUG-CC-PVTZ
    Blend: AUG-CC-PVTZ
  Basis Set: (AUG-CC-PVTZ AUX)
    Blend: AUG-CC-PVTZ-JKFIT

    Orbital Energies [Eh]
    ---------------------

    Doubly Occupied:

       1A    -20.605296     2A    -20.545287     3A    -11.378956
       4A    -11.286050     5A    -11.243908     6A    -11.219379
       7A     -1.452299     8A     -1.353079     9A     -1.064926
      10A     -0.971124    11A     -0.877492    12A     -0.766540
      13A     -0.698745    14A     -0.676084    15A     -0.667286
      16A     -0.619235    17A     -0.598429    18A     -0.539427
      19A     -0.537459    20A     -0.523051    21A     -0.519338
      22A     -0.495270    23A     -0.463499    24A     -0.447107

  @DF-RHF Final Energy:  -305.98573175441231

   => Energetics <=

    Nuclear Repulsion Energy =            244.9144654665618930
    One-Electron Energy =                -902.7018645218764732
    Two-Electron Energy =                 351.8016673009022952
    Total Energy =                       -305.9857317544123134
  Basis Set: (AUG-CC-PVTZ AUX)
    Blend: AUG-CC-PVTZ-RI
    Molecular point group: c1

    Geometry (in Angstrom), charge = 0, multiplicity = 1:

       Center              X                  Y                   Z               Mass
    ------------   -----------------  -----------------  -----------------  -----------------
         O            1.131123361397    -0.711544127818     0.019192635858    15.994914619570
         O            0.034428561397     1.286870272182    -0.003393064142    15.994914619570
         C           -1.217527038603    -0.790895227818    -0.017410664142    12.000000000000
         C           -2.492828038603     0.036615772182    -0.035311664142    12.000000000000
         C            0.021068961397     0.067936772182     0.000254335858    12.000000000000
         C            2.367158961397     0.046109772182     0.034581335858    12.000000000000
         H           -1.152646038603    -1.449659227818    -0.890072664142     1.007825032230
         H           -1.177091038603    -1.450393227818     0.856068335858     1.007825032230
         H           -2.524404038603     0.679822772182    -0.916245664142     1.007825032230
         H           -3.369333038603    -0.615548227818    -0.048305664142     1.007825032230
         H           -2.549830038603     0.678713772182     0.845176335858     1.007825032230
         H            3.155985961397    -0.702845227818     0.050155335858     1.007825032230
         H            2.417060961397     0.680112772182     0.920804335858     1.007825032230
         H            2.444443961397     0.672096772182    -0.855357664142     1.007825032230

  Basis Set: AUG-CC-PVTZ
    Blend: AUG-CC-PVTZ
  Basis Set: (AUG-CC-PVTZ AUX)
    Blend: AUG-CC-PVTZ-JKFIT
	 Reference Energy          =    -305.9857317544123134 [Eh]
	 Singles Energy            =      -0.0000000000000000 [Eh]
	 Same-Spin Energy          =      -0.2975104474322957 [Eh]
	 Opposite-Spin Energy      =      -0.9769936068551357 [Eh]
	 Correlation Energy        =      -1.2745040542874313 [Eh]
	 Total Energy              =    -307.2602358086997469 [Eh]

	 ================> DF-SCS-MP2 Energies <==================
	-----------------------------------------------------------
	 SCS Same-Spin Scale       =       0.3333333333333333 [-]
	 SCS Opposite-Spin Scale   =       1.2000000000000000 [-]
	 SCS Same-Spin Energy      =      -0.0991701491440986 [Eh]
	 SCS Opposite-Spin Energy  =      -1.1723923282261628 [Eh]
	 SCS Correlation Energy    =      -1.2715624773702614 [Eh]
	 SCS Total Energy          =    -307.2572942317825664 [Eh]
	-----------------------------------------------------------

  Dipole Moment: [D]
     X:     0.5220      Y:    -1.5359      Z:     0.0103     Total:     1.6222

*** Psi4 exiting successfully. Buy a developer a beer!
