                               Psi4 1.3.2 release

  ==> Input File <==

--------------------------------------------------------------------------
#psi4
#
memory 32 gb

molecule  {
0 1
  O        1.1479861    -0.6839509     0.0193894
  O        0.0419040     1.2849720    -0.0032760
  C       -1.2354846    -0.7708816    -0.0177269
  C       -2.4959880     0.0348800    -0.0353530
  C        0.0179090     0.0662010     0.0002130
  C        2.3639990     0.0443740     0.0345400
  H       -1.1558060    -1.4513950    -0.8901140
  H       -1.1802510    -1.4521290     0.8560270
  H       -2.5275640     0.6780870    -0.9162870
  H       -3.3724930    -0.6172840    -0.0483470
  H       -2.5529900     0.6769780     0.8451350
  H        3.1528260    -0.7045810     0.0501140
  H        2.4139010     0.6783770     0.9207630
  H        2.4412840     0.6703610    -0.8553990
units angstrom
no_reorient  #important for SAPT in psi4, default
symmetry c1  #important for SAPT in psi4, default
}

set PROPERTIES_ORIGIN ["COM"]
properties('MP2/aug-cc-pvtz', properties = ['dipole'])
--------------------------------------------------------------------------

    Molecular point group: c1
  Charge       = 0
  Multiplicity = 1
  Basis Set: AUG-CC-PVTZ
    Blend: AUG-CC-PVTZ
  Basis Set: (AUG-CC-PVTZ AUX)
    Blend: AUG-CC-PVTZ-JKFIT

    Orbital Energies [Eh]
    ---------------------

    Doubly Occupied:

       1A    -20.602983     2A    -20.543683     3A    -11.379619
       4A    -11.282184     5A    -11.248307     6A    -11.220344
       7A     -1.457323     8A     -1.353794     9A     -1.070127
      10A     -0.974861    11A     -0.877735    12A     -0.767308
      13A     -0.700796    14A     -0.678727    15A     -0.669394
      16A     -0.620565    17A     -0.602747    18A     -0.538049
      19A     -0.537869    20A     -0.531267    21A     -0.517008
      22A     -0.490921    23A     -0.460043    24A     -0.447035

  @DF-RHF Final Energy:  -305.98617337902419

   => Energetics <=

    Nuclear Repulsion Energy =            245.4912293906764091
    One-Electron Energy =                -903.8094274730234474
    Two-Electron Energy =                 352.3320247033228725
    Total Energy =                       -305.9861733790241942
  Basis Set: (AUG-CC-PVTZ AUX)
    Blend: AUG-CC-PVTZ-RI
    Molecular point group: c1

    Geometry (in Angstrom), charge = 0, multiplicity = 1:

       Center              X                  Y                   Z               Mass
    ------------   -----------------  -----------------  -----------------  -----------------
         O            1.147593604143    -0.690477347059     0.019396174817    15.994914619570
         O            0.041511504143     1.278445552941    -0.003269225183    15.994914619570
         C           -1.235877095857    -0.777408047059    -0.017720125183    12.000000000000
         C           -2.496380495857     0.028353552941    -0.035346225183    12.000000000000
         C            0.017516504143     0.059674552941     0.000219774817    12.000000000000
         C            2.363606504143     0.037847552941     0.034546774817    12.000000000000
         H           -1.156198495857    -1.457921447059    -0.890107225183     1.007825032230
         H           -1.180643495857    -1.458655447059     0.856033774817     1.007825032230
         H           -2.527956495857     0.671560552941    -0.916280225183     1.007825032230
         H           -3.372885495857    -0.623810447059    -0.048340225183     1.007825032230
         H           -2.553382495857     0.670451552941     0.845141774817     1.007825032230
         H            3.152433504143    -0.711107447059     0.050120774817     1.007825032230
         H            2.413508504143     0.671850552941     0.920769774817     1.007825032230
         H            2.440891504143     0.663834552941    -0.855392225183     1.007825032230

  Basis Set: AUG-CC-PVTZ
    Blend: AUG-CC-PVTZ
  Basis Set: (AUG-CC-PVTZ AUX)
    Blend: AUG-CC-PVTZ-JKFIT
	 Reference Energy          =    -305.9861733790241942 [Eh]
	 Singles Energy            =      -0.0000000000000000 [Eh]
	 Same-Spin Energy          =      -0.2973717131171235 [Eh]
	 Opposite-Spin Energy      =      -0.9760288119094255 [Eh]
	 Correlation Energy        =      -1.2734005250265490 [Eh]
	 Total Energy              =    -307.2595739040507397 [Eh]

	 ================> DF-SCS-MP2 Energies <==================
	-----------------------------------------------------------
	 SCS Same-Spin Scale       =       0.3333333333333333 [-]
	 SCS Opposite-Spin Scale   =       1.2000000000000000 [-]
	 SCS Same-Spin Energy      =      -0.0991239043723745 [Eh]
	 SCS Opposite-Spin Energy  =      -1.1712345742913106 [Eh]
	 SCS Correlation Energy    =      -1.2703584786636850 [Eh]
	 SCS Total Energy          =    -307.2565318576878894 [Eh]
	-----------------------------------------------------------

  Dipole Moment: [D]
     X:     0.3452      Y:    -1.6130      Z:     0.0079     Total:     1.6495

*** Psi4 exiting successfully. Buy a developer a beer!
