                               Psi4 1.3.2 release

  ==> Input File <==

--------------------------------------------------------------------------
#psi4
#
memory 32 gb

molecule  {
0 1
  O        1.1347230    -0.7035620     0.0192210
  O        0.0419040     1.2849720    -0.0032760
  C       -1.2206870    -0.7926310    -0.0174520
  C       -2.5102343     0.0124947    -0.0355583
  C        0.0327076     0.0444515     0.0004187
  C        2.3639990     0.0443740     0.0345400
  H       -1.1558060    -1.4513950    -0.8901140
  H       -1.1802510    -1.4521290     0.8560270
  H       -2.5275640     0.6780870    -0.9162870
  H       -3.3724930    -0.6172840    -0.0483470
  H       -2.5529900     0.6769780     0.8451350
  H        3.1528260    -0.7045810     0.0501140
  H        2.4139010     0.6783770     0.9207630
  H        2.4412840     0.6703610    -0.8553990
units angstrom
no_reorient  #important for SAPT in psi4, default
symmetry c1  #important for SAPT in psi4, default
}

set PROPERTIES_ORIGIN ["COM"]
properties('MP2/aug-cc-pvtz', properties = ['dipole'])
--------------------------------------------------------------------------

    Molecular point group: c1
  Charge       = 0
  Multiplicity = 1
  Basis Set: AUG-CC-PVTZ
    Blend: AUG-CC-PVTZ
  Basis Set: (AUG-CC-PVTZ AUX)
    Blend: AUG-CC-PVTZ-JKFIT

    Orbital Energies [Eh]
    ---------------------

    Doubly Occupied:

       1A    -20.610634     2A    -20.539464     3A    -11.380494
       4A    -11.287819     5A    -11.244992     6A    -11.219786
       7A     -1.460820     8A     -1.342456     9A     -1.065643
      10A     -0.977851    11A     -0.879070    12A     -0.771521
      13A     -0.697216    14A     -0.681027    15A     -0.669025
      16A     -0.618547    17A     -0.599113    18A     -0.541248
      19A     -0.535702    20A     -0.525877    21A     -0.517779
      22A     -0.490638    23A     -0.459322    24A     -0.445108

  @DF-RHF Final Energy:  -305.98385864515205

   => Energetics <=

    Nuclear Repulsion Energy =            244.9227788045461409
    One-Electron Energy =                -902.6909761102393759
    Two-Electron Energy =                 351.7843386605411524
    Total Energy =                       -305.9838586451520541
  Basis Set: (AUG-CC-PVTZ AUX)
    Blend: AUG-CC-PVTZ-RI
    Molecular point group: c1

    Geometry (in Angstrom), charge = 0, multiplicity = 1:

       Center              X                  Y                   Z               Mass
    ------------   -----------------  -----------------  -----------------  -----------------
         O            1.134647853161    -0.697547188671     0.019220846486    15.994914619570
         O            0.041828853161     1.290986811329    -0.003276153514    15.994914619570
         C           -1.220762146839    -0.786616188671    -0.017452153514    12.000000000000
         C           -2.510309446839     0.018509511329    -0.035558453514    12.000000000000
         C            0.032632453161     0.050466311329     0.000418546486    12.000000000000
         C            2.363923853161     0.050388811329     0.034539846486    12.000000000000
         H           -1.155881146839    -1.445380188671    -0.890114153514     1.007825032230
         H           -1.180326146839    -1.446114188671     0.856026846486     1.007825032230
         H           -2.527639146839     0.684101811329    -0.916287153514     1.007825032230
         H           -3.372568146839    -0.611269188671    -0.048347153514     1.007825032230
         H           -2.553065146839     0.682992811329     0.845134846486     1.007825032230
         H            3.152750853161    -0.698566188671     0.050113846486     1.007825032230
         H            2.413825853161     0.684391811329     0.920762846486     1.007825032230
         H            2.441208853161     0.676375811329    -0.855399153514     1.007825032230

  Basis Set: AUG-CC-PVTZ
    Blend: AUG-CC-PVTZ
  Basis Set: (AUG-CC-PVTZ AUX)
    Blend: AUG-CC-PVTZ-JKFIT
	 Reference Energy          =    -305.9838586451520541 [Eh]
	 Singles Energy            =      -0.0000000000000000 [Eh]
	 Same-Spin Energy          =      -0.2976517385344870 [Eh]
	 Opposite-Spin Energy      =      -0.9770040905156304 [Eh]
	 Correlation Energy        =      -1.2746558290501175 [Eh]
	 Total Energy              =    -307.2585144742021726 [Eh]

	 ================> DF-SCS-MP2 Energies <==================
	-----------------------------------------------------------
	 SCS Same-Spin Scale       =       0.3333333333333333 [-]
	 SCS Opposite-Spin Scale   =       1.2000000000000000 [-]
	 SCS Same-Spin Energy      =      -0.0992172461781623 [Eh]
	 SCS Opposite-Spin Energy  =      -1.1724049086187565 [Eh]
	 SCS Correlation Energy    =      -1.2716221547969189 [Eh]
	 SCS Total Energy          =    -307.2554807999489981 [Eh]
	-----------------------------------------------------------

  Dipole Moment: [D]
     X:     0.6171      Y:    -1.7136      Z:     0.0122     Total:     1.8213

*** Psi4 exiting successfully. Buy a developer a beer!
