                               Psi4 1.3.2 release

  ==> Input File <==

--------------------------------------------------------------------------
#psi4
#
memory 32 gb

molecule  {
0 1
  O        1.1347230    -0.7035620     0.0192210
  O        0.0419040     1.2849720    -0.0032760
  C       -1.2206870    -0.7926310    -0.0174520
  C       -2.4959880     0.0348800    -0.0353530
  C        0.0454530     0.1047136     0.0004798
  C        2.3371524     0.0868225     0.0339990
  H       -1.1558060    -1.4513950    -0.8901140
  H       -1.1802510    -1.4521290     0.8560270
  H       -2.5275640     0.6780870    -0.9162870
  H       -3.3724930    -0.6172840    -0.0483470
  H       -2.5529900     0.6769780     0.8451350
  H        3.1528260    -0.7045810     0.0501140
  H        2.4139010     0.6783770     0.9207630
  H        2.4412840     0.6703610    -0.8553990
units angstrom
no_reorient  #important for SAPT in psi4, default
symmetry c1  #important for SAPT in psi4, default
}

set PROPERTIES_ORIGIN ["COM"]
properties('MP2/aug-cc-pvtz', properties = ['dipole'])
--------------------------------------------------------------------------

    Molecular point group: c1
  Charge       = 0
  Multiplicity = 1
  Basis Set: AUG-CC-PVTZ
    Blend: AUG-CC-PVTZ
  Basis Set: (AUG-CC-PVTZ AUX)
    Blend: AUG-CC-PVTZ-JKFIT

    Orbital Energies [Eh]
    ---------------------

    Doubly Occupied:

       1A    -20.605226     2A    -20.550916     3A    -11.375167
       4A    -11.284286     5A    -11.242280     6A    -11.217722
       7A     -1.466145     8A     -1.374398     9A     -1.056100
      10A     -0.968390    11A     -0.870002    12A     -0.770470
      13A     -0.701755    14A     -0.683092    15A     -0.674159
      16A     -0.619799    17A     -0.594394    18A     -0.551181
      19A     -0.529846    20A     -0.522798    21A     -0.519473
      22A     -0.496373    23A     -0.472828    24A     -0.442648

  @DF-RHF Final Energy:  -305.98255811809099

   => Energetics <=

    Nuclear Repulsion Energy =            245.6632367592425510
    One-Electron Energy =                -904.1126902499688640
    Two-Electron Energy =                 352.4668953726353493
    Total Energy =                       -305.9825581180909921
  Basis Set: (AUG-CC-PVTZ AUX)
    Blend: AUG-CC-PVTZ-RI
    Molecular point group: c1

    Geometry (in Angstrom), charge = 0, multiplicity = 1:

       Center              X                  Y                   Z               Mass
    ------------   -----------------  -----------------  -----------------  -----------------
         O            1.134628078579    -0.714595563242     0.019258269644    15.994914619570
         O            0.041809078579     1.273938436758    -0.003238730356    15.994914619570
         C           -1.220781921421    -0.803664563242    -0.017414730356    12.000000000000
         C           -2.496082921421     0.023846436758    -0.035315730356    12.000000000000
         C            0.045358078579     0.093680036758     0.000517069644    12.000000000000
         C            2.337057478579     0.075788936758     0.034036269644    12.000000000000
         H           -1.155900921421    -1.462428563242    -0.890076730356     1.007825032230
         H           -1.180345921421    -1.463162563242     0.856064269644     1.007825032230
         H           -2.527658921421     0.667053436758    -0.916249730356     1.007825032230
         H           -3.372587921421    -0.628317563242    -0.048309730356     1.007825032230
         H           -2.553084921421     0.665944436758     0.845172269644     1.007825032230
         H            3.152731078579    -0.715614563242     0.050151269644     1.007825032230
         H            2.413806078579     0.667343436758     0.920800269644     1.007825032230
         H            2.441189078579     0.659327436758    -0.855361730356     1.007825032230

  Basis Set: AUG-CC-PVTZ
    Blend: AUG-CC-PVTZ
  Basis Set: (AUG-CC-PVTZ AUX)
    Blend: AUG-CC-PVTZ-JKFIT
	 Reference Energy          =    -305.9825581180909921 [Eh]
	 Singles Energy            =      -0.0000000000000000 [Eh]
	 Same-Spin Energy          =      -0.2967185461832934 [Eh]
	 Opposite-Spin Energy      =      -0.9754821197516621 [Eh]
	 Correlation Energy        =      -1.2722006659349554 [Eh]
	 Total Energy              =    -307.2547587840259666 [Eh]

	 ================> DF-SCS-MP2 Energies <==================
	-----------------------------------------------------------
	 SCS Same-Spin Scale       =       0.3333333333333333 [-]
	 SCS Opposite-Spin Scale   =       1.2000000000000000 [-]
	 SCS Same-Spin Energy      =      -0.0989061820610978 [Eh]
	 SCS Opposite-Spin Energy  =      -1.1705785437019944 [Eh]
	 SCS Correlation Energy    =      -1.2694847257630921 [Eh]
	 SCS Total Energy          =    -307.2520428438540989 [Eh]
	-----------------------------------------------------------

  Dipole Moment: [D]
     X:     0.5279      Y:    -1.2892      Z:     0.0098     Total:     1.3931

*** Psi4 exiting successfully. Buy a developer a beer!
