                               Psi4 1.3.2 release

  ==> Input File <==

--------------------------------------------------------------------------
#psi4
#
memory 32 gb

molecule  {
0 1
  O        1.1347230    -0.7035620     0.0192210
  O        0.0419040     1.2849720    -0.0032760
  C       -1.2206870    -0.7926310    -0.0174520
  C       -2.4959880     0.0348800    -0.0353530
  C        0.0179090     0.0662010     0.0002130
  C        2.3639990     0.0443740     0.0345400
  H       -1.1558060    -1.4513950    -0.8901140
  H       -1.1802510    -1.4521290     0.8560270
  H       -2.5275640     0.6780870    -0.9162870
  H       -3.3724930    -0.6172840    -0.0483470
  H       -2.5529900     0.6769780     0.8451350
  H        3.1528260    -0.7045810     0.0501140
  H        2.4139010     0.6783770     0.9207630
  H        2.4412840     0.6703610    -0.8553990
units angstrom
no_reorient  #important for SAPT in psi4, default
symmetry c1  #important for SAPT in psi4, default
}

set PROPERTIES_ORIGIN ["COM"]
properties('MP2/aug-cc-pvtz', properties = ['dipole'])
--------------------------------------------------------------------------

    Molecular point group: c1
  Charge       = 0
  Multiplicity = 1
  Basis Set: AUG-CC-PVTZ
    Blend: AUG-CC-PVTZ
  Basis Set: (AUG-CC-PVTZ AUX)
    Blend: AUG-CC-PVTZ-JKFIT

    Orbital Energies [Eh]
    ---------------------

    Doubly Occupied:

       1A    -20.603912     2A    -20.544921     3A    -11.379188
       4A    -11.284339     5A    -11.245279     6A    -11.220255
       7A     -1.453935     8A     -1.352854     9A     -1.066093
      10A     -0.971732    11A     -0.877794    12A     -0.766861
      13A     -0.699596    14A     -0.676946    15A     -0.667887
      16A     -0.620101    17A     -0.599470    18A     -0.538795
      19A     -0.535943    20A     -0.524419    21A     -0.519271
      22A     -0.495846    23A     -0.462131    24A     -0.447626

  @DF-RHF Final Energy:  -305.98646881655606

   => Energetics <=

    Nuclear Repulsion Energy =            245.0667799843996022
    One-Electron Energy =                -902.9961045992450863
    Two-Electron Energy =                 351.9428557982893722
    Total Energy =                       -305.9864688165560551
  Basis Set: (AUG-CC-PVTZ AUX)
    Blend: AUG-CC-PVTZ-RI
    Molecular point group: c1

    Geometry (in Angstrom), charge = 0, multiplicity = 1:

       Center              X                  Y                   Z               Mass
    ------------   -----------------  -----------------  -----------------  -----------------
         O            1.134723121953    -0.703561986934     0.019220900999    15.994914619570
         O            0.041904121953     1.284972013066    -0.003276099001    15.994914619570
         C           -1.220686878047    -0.792630986934    -0.017452099001    12.000000000000
         C           -2.495987878047     0.034880013066    -0.035353099001    12.000000000000
         C            0.017909121953     0.066201013066     0.000212900999    12.000000000000
         C            2.363999121953     0.044374013066     0.034539900999    12.000000000000
         H           -1.155805878047    -1.451394986934    -0.890114099001     1.007825032230
         H           -1.180250878047    -1.452128986934     0.856026900999     1.007825032230
         H           -2.527563878047     0.678087013066    -0.916287099001     1.007825032230
         H           -3.372492878047    -0.617283986934    -0.048347099001     1.007825032230
         H           -2.552989878047     0.676978013066     0.845134900999     1.007825032230
         H            3.152826121953    -0.704580986934     0.050113900999     1.007825032230
         H            2.413901121953     0.678377013066     0.920762900999     1.007825032230
         H            2.441284121953     0.670361013066    -0.855399099001     1.007825032230

  Basis Set: AUG-CC-PVTZ
    Blend: AUG-CC-PVTZ
  Basis Set: (AUG-CC-PVTZ AUX)
    Blend: AUG-CC-PVTZ-JKFIT
	 Reference Energy          =    -305.9864688165560551 [Eh]
	 Singles Energy            =      -0.0000000000000000 [Eh]
	 Same-Spin Energy          =      -0.2974087271593815 [Eh]
	 Opposite-Spin Energy      =      -0.9766157761435306 [Eh]
	 Correlation Energy        =      -1.2740245033029121 [Eh]
	 Total Energy              =    -307.2604933198589947 [Eh]

	 ================> DF-SCS-MP2 Energies <==================
	-----------------------------------------------------------
	 SCS Same-Spin Scale       =       0.3333333333333333 [-]
	 SCS Opposite-Spin Scale   =       1.2000000000000000 [-]
	 SCS Same-Spin Energy      =      -0.0991362423864605 [Eh]
	 SCS Opposite-Spin Energy  =      -1.1719389313722366 [Eh]
	 SCS Correlation Energy    =      -1.2710751737586972 [Eh]
	 SCS Total Energy          =    -307.2575439903147299 [Eh]
	-----------------------------------------------------------

  Dipole Moment: [D]
     X:     0.4449      Y:    -1.5639      Z:     0.0093     Total:     1.6259

*** Psi4 exiting successfully. Buy a developer a beer!
