                               Psi4 1.3.2 release

  ==> Input File <==

--------------------------------------------------------------------------
#psi4
#
memory 32 gb

molecule  {
0 1
  O        1.1347230    -0.7035620     0.0192210
  O        0.0419040     1.2849720    -0.0032760
  C       -1.2206870    -0.7926310    -0.0174520
  C       -2.4959880     0.0348800    -0.0353530
  C       -0.0208457     0.0066886    -0.0001437
  C        2.4014510    -0.0209908     0.0353163
  H       -1.1558060    -1.4513950    -0.8901140
  H       -1.1802510    -1.4521290     0.8560270
  H       -2.5275640     0.6780870    -0.9162870
  H       -3.3724930    -0.6172840    -0.0483470
  H       -2.5529900     0.6769780     0.8451350
  H        3.1528260    -0.7045810     0.0501140
  H        2.4139010     0.6783770     0.9207630
  H        2.4412840     0.6703610    -0.8553990
units angstrom
no_reorient  #important for SAPT in psi4, default
symmetry c1  #important for SAPT in psi4, default
}

set PROPERTIES_ORIGIN ["COM"]
properties('MP2/aug-cc-pvtz', properties = ['dipole'])
--------------------------------------------------------------------------

    Molecular point group: c1
  Charge       = 0
  Multiplicity = 1
  Basis Set: AUG-CC-PVTZ
    Blend: AUG-CC-PVTZ
  Basis Set: (AUG-CC-PVTZ AUX)
    Blend: AUG-CC-PVTZ-JKFIT

    Orbital Energies [Eh]
    ---------------------

    Doubly Occupied:

       1A    -20.603016     2A    -20.536053     3A    -11.386333
       4A    -11.286696     5A    -11.248549     6A    -11.224164
       7A     -1.442232     8A     -1.317644     9A     -1.082856
      10A     -0.978196    11A     -0.890968    12A     -0.762395
      13A     -0.700744    14A     -0.672776    15A     -0.665187
      16A     -0.619375    17A     -0.608917    18A     -0.541134
      19A     -0.529690    20A     -0.526764    21A     -0.513466
      22A     -0.489931    23A     -0.445587    24A     -0.444330

  @DF-RHF Final Energy:  -305.96532737190211

   => Energetics <=

    Nuclear Repulsion Energy =            244.2920689981437476
    One-Electron Energy =                -901.4807850475350506
    Two-Electron Energy =                 351.2233886774892540
    Total Energy =                       -305.9653273719021058
  Basis Set: (AUG-CC-PVTZ AUX)
    Blend: AUG-CC-PVTZ-RI
    Molecular point group: c1

    Geometry (in Angstrom), charge = 0, multiplicity = 1:

       Center              X                  Y                   Z               Mass
    ------------   -----------------  -----------------  -----------------  -----------------
         O            1.134900657089    -0.686543417332     0.019163716887    15.994914619570
         O            0.042081657089     1.301990582668    -0.003333283113    15.994914619570
         C           -1.220509342911    -0.775612417332    -0.017509283113    12.000000000000
         C           -2.495810342911     0.051898582668    -0.035410283113    12.000000000000
         C           -0.020668042911     0.023707182668    -0.000200983113    12.000000000000
         C            2.401628657089    -0.003972217332     0.035259016887    12.000000000000
         H           -1.155628342911    -1.434376417332    -0.890171283113     1.007825032230
         H           -1.180073342911    -1.435110417332     0.855969716887     1.007825032230
         H           -2.527386342911     0.695105582668    -0.916344283113     1.007825032230
         H           -3.372315342911    -0.600265417332    -0.048404283113     1.007825032230
         H           -2.552812342911     0.693996582668     0.845077716887     1.007825032230
         H            3.153003657089    -0.687562417332     0.050056716887     1.007825032230
         H            2.414078657089     0.695395582668     0.920705716887     1.007825032230
         H            2.441461657089     0.687379582668    -0.855456283113     1.007825032230

  Basis Set: AUG-CC-PVTZ
    Blend: AUG-CC-PVTZ
  Basis Set: (AUG-CC-PVTZ AUX)
    Blend: AUG-CC-PVTZ-JKFIT
	 Reference Energy          =    -305.9653273719021058 [Eh]
	 Singles Energy            =      -0.0000000000000000 [Eh]
	 Same-Spin Energy          =      -0.2991643092271239 [Eh]
	 Opposite-Spin Energy      =      -0.9797883053639698 [Eh]
	 Correlation Energy        =      -1.2789526145910937 [Eh]
	 Total Energy              =    -307.2442799864932113 [Eh]

	 ================> DF-SCS-MP2 Energies <==================
	-----------------------------------------------------------
	 SCS Same-Spin Scale       =       0.3333333333333333 [-]
	 SCS Opposite-Spin Scale   =       1.2000000000000000 [-]
	 SCS Same-Spin Energy      =      -0.0997214364090413 [Eh]
	 SCS Opposite-Spin Energy  =      -1.1757459664367638 [Eh]
	 SCS Correlation Energy    =      -1.2754674028458051 [Eh]
	 SCS Total Energy          =    -307.2407947747478829 [Eh]
	-----------------------------------------------------------

  Dipole Moment: [D]
     X:     0.3226      Y:    -1.9556      Z:     0.0083     Total:     1.9820

*** Psi4 exiting successfully. Buy a developer a beer!
