                               Psi4 1.3.2 release

  ==> Input File <==

--------------------------------------------------------------------------
#psi4
#
memory 32 gb

molecule  {
0 1
  O       -2.3409430    -1.1152500    -0.1201430
  C       -1.5156830    -0.0261920     0.3177710
  C       -0.1670927    -0.3214581    -0.2522495
  C        2.3348890    -0.4444240    -0.1997250
  C        0.9740050    -0.2811540     0.4036300
  C       -2.1744537     1.2902255    -0.0767411
  C        3.2132980     0.7871720     0.0273270
  H       -1.4208040    -0.0402330     1.4151950
  H       -0.1609320    -0.3839550    -1.3725900
  H        2.2351040    -0.6390970    -1.2733090
  H        2.8261900    -1.3231820     0.2368400
  H        0.9367840    -0.1585690     1.4880300
  H       -1.4764410     2.1380570     0.1977940
  H       -2.2008650     1.3268630    -1.2105240
  H       -3.1068830     1.4512670     0.3117270
  H        3.3300870     0.9922950     1.0954650
  H        2.7636150     1.6688370    -0.4368240
  H        4.2103780     0.6456890    -0.3991480
  H       -3.2411570    -0.9446250     0.2124840
units angstrom
no_reorient  #important for SAPT in psi4, default
symmetry c1  #important for SAPT in psi4, default
}

set PROPERTIES_ORIGIN ["COM"]
properties('MP2/aug-cc-pvtz', properties = ['dipole'])
--------------------------------------------------------------------------

    Molecular point group: c1
  Charge       = 0
  Multiplicity = 1
  Basis Set: AUG-CC-PVTZ
    Blend: AUG-CC-PVTZ
  Basis Set: (AUG-CC-PVTZ AUX)
    Blend: AUG-CC-PVTZ-JKFIT

    Orbital Energies [Eh]
    ---------------------

    Doubly Occupied:

       1A    -20.552795     2A    -11.283350     3A    -11.226529
       4A    -11.225522     5A    -11.221557     6A    -11.221503
       7A    -11.216247     8A     -1.353349     9A     -1.092612
      10A     -1.032258    11A     -0.976028    12A     -0.878858
      13A     -0.813473    14A     -0.749736    15A     -0.680610
      16A     -0.634217    17A     -0.626827    18A     -0.601653
      19A     -0.588345    20A     -0.555355    21A     -0.532065
      22A     -0.527363    23A     -0.515364    24A     -0.494627
      25A     -0.483034    26A     -0.463514    27A     -0.437492
      28A     -0.357108

  @DF-RHF Final Energy:  -309.13905786655994

   => Energetics <=

    Nuclear Repulsion Energy =            299.1314970338933108
    One-Electron Energy =               -1011.8583278146763860
    Two-Electron Energy =                 403.5877729142231374
    Total Energy =                       -309.1390578665599378
  Basis Set: (AUG-CC-PVTZ AUX)
    Blend: AUG-CC-PVTZ-RI
    Molecular point group: c1

    Geometry (in Angstrom), charge = 0, multiplicity = 1:

       Center              X                  Y                   Z               Mass
    ------------   -----------------  -----------------  -----------------  -----------------
         O           -2.333631322934    -1.105079931181    -0.129991118412    15.994914619570
         C           -1.508371322934    -0.016021931181     0.307922881588    12.000000000000
         C           -0.159781022934    -0.311288031181    -0.262097618412    12.000000000000
         C            2.342200677066    -0.434253931181    -0.209573118412    12.000000000000
         C            0.981316677066    -0.270983931181     0.393781881588    12.000000000000
         C           -2.167142022934     1.300395568819    -0.086589218412    12.000000000000
         C            3.220609677066     0.797342068819     0.017478881588    12.000000000000
         H           -1.413492322934    -0.030062931181     1.405346881588     1.007825032230
         H           -0.153620322934    -0.373784931181    -1.382438118412     1.007825032230
         H            2.242415677066    -0.628926931181    -1.283157118412     1.007825032230
         H            2.833501677066    -1.313011931181     0.226991881588     1.007825032230
         H            0.944095677066    -0.148398931181     1.478181881588     1.007825032230
         H           -1.469129322934     2.148227068819     0.187945881588     1.007825032230
         H           -2.193553322934     1.337033068819    -1.220372118412     1.007825032230
         H           -3.099571322934     1.461437068819     0.301878881588     1.007825032230
         H            3.337398677066     1.002465068819     1.085616881588     1.007825032230
         H            2.770926677066     1.679007068819    -0.446672118412     1.007825032230
         H            4.217689677066     0.655859068819    -0.408996118412     1.007825032230
         H           -3.233845322934    -0.934454931181     0.202635881588     1.007825032230

  Basis Set: AUG-CC-PVTZ
    Blend: AUG-CC-PVTZ
  Basis Set: (AUG-CC-PVTZ AUX)
    Blend: AUG-CC-PVTZ-JKFIT
	 Reference Energy          =    -309.1390578665599378 [Eh]
	 Singles Energy            =      -0.0000000000000000 [Eh]
	 Same-Spin Energy          =      -0.3165499362786293 [Eh]
	 Opposite-Spin Energy      =      -1.1025175903104765 [Eh]
	 Correlation Energy        =      -1.4190675265891057 [Eh]
	 Total Energy              =    -310.5581253931490551 [Eh]

	 ================> DF-SCS-MP2 Energies <==================
	-----------------------------------------------------------
	 SCS Same-Spin Scale       =       0.3333333333333333 [-]
	 SCS Opposite-Spin Scale   =       1.2000000000000000 [-]
	 SCS Same-Spin Energy      =      -0.1055166454262098 [Eh]
	 SCS Opposite-Spin Energy  =      -1.3230211083725718 [Eh]
	 SCS Correlation Energy    =      -1.4285377537987816 [Eh]
	 SCS Total Energy          =    -310.5675956203587020 [Eh]
	-----------------------------------------------------------

  Dipole Moment: [D]
     X:    -0.0525      Y:     1.4554      Z:     0.8456     Total:     1.6840

*** Psi4 exiting successfully. Buy a developer a beer!
