                               Psi4 1.3.2 release

  ==> Input File <==

--------------------------------------------------------------------------
#psi4
#
memory 32 gb

molecule  {
0 1
  O       -2.3409430    -1.1152500    -0.1201430
  C       -1.5156830    -0.0261920     0.3177710
  C       -0.1702520    -0.2529640    -0.2898400
  C        2.3348890    -0.4444240    -0.1997250
  C        0.9740050    -0.2811540     0.4036300
  C       -2.1103090     1.3065560    -0.1212920
  C        3.2132980     0.7871720     0.0273270
  H       -1.4121912    -0.0415076     1.5148153
  H       -0.1609320    -0.3839550    -1.3725900
  H        2.2351040    -0.6390970    -1.2733090
  H        2.8261900    -1.3231820     0.2368400
  H        0.9367840    -0.1585690     1.4880300
  H       -1.4764410     2.1380570     0.1977940
  H       -2.2008650     1.3268630    -1.2105240
  H       -3.1068830     1.4512670     0.3117270
  H        3.3300870     0.9922950     1.0954650
  H        2.7636150     1.6688370    -0.4368240
  H        4.2103780     0.6456890    -0.3991480
  H       -3.2411570    -0.9446250     0.2124840
units angstrom
no_reorient  #important for SAPT in psi4, default
symmetry c1  #important for SAPT in psi4, default
}

set PROPERTIES_ORIGIN ["COM"]
properties('MP2/aug-cc-pvtz', properties = ['dipole'])
--------------------------------------------------------------------------

    Molecular point group: c1
  Charge       = 0
  Multiplicity = 1
  Basis Set: AUG-CC-PVTZ
    Blend: AUG-CC-PVTZ
  Basis Set: (AUG-CC-PVTZ AUX)
    Blend: AUG-CC-PVTZ-JKFIT

    Orbital Energies [Eh]
    ---------------------

    Doubly Occupied:

       1A    -20.557451     2A    -11.295030     3A    -11.227999
       4A    -11.224589     5A    -11.221681     6A    -11.220562
       7A    -11.215365     8A     -1.355393     9A     -1.089666
      10A     -1.032297    11A     -0.971438    12A     -0.875095
      13A     -0.807514    14A     -0.749064    15A     -0.676405
      16A     -0.634292    17A     -0.624636    18A     -0.598688
      19A     -0.587915    20A     -0.543382    21A     -0.540230
      22A     -0.531497    23A     -0.516396    24A     -0.499980
      25A     -0.482033    26A     -0.462900    27A     -0.437471
      28A     -0.350042

  @DF-RHF Final Energy:  -309.14262291218932

   => Energetics <=

    Nuclear Repulsion Energy =            298.7501634054920032
    One-Electron Energy =               -1011.1275541741858888
    Two-Electron Energy =                 403.2347678565045612
    Total Energy =                       -309.1426229121893243
  Basis Set: (AUG-CC-PVTZ AUX)
    Blend: AUG-CC-PVTZ-RI
    Molecular point group: c1

    Geometry (in Angstrom), charge = 0, multiplicity = 1:

       Center              X                  Y                   Z               Mass
    ------------   -----------------  -----------------  -----------------  -----------------
         O           -2.341029801929    -1.115237016427    -0.121146004521    15.994914619570
         C           -1.515769801929    -0.026179016427     0.316767995479    12.000000000000
         C           -0.170338801929    -0.252951016427    -0.290843004521    12.000000000000
         C            2.334802198071    -0.444411016427    -0.200728004521    12.000000000000
         C            0.973918198071    -0.281141016427     0.402626995479    12.000000000000
         C           -2.110395801929     1.306568983573    -0.122295004521    12.000000000000
         C            3.213211198071     0.787184983573     0.026323995479    12.000000000000
         H           -1.412278001929    -0.041494616427     1.513812295479     1.007825032230
         H           -0.161018801929    -0.383942016427    -1.373593004521     1.007825032230
         H            2.235017198071    -0.639084016427    -1.274312004521     1.007825032230
         H            2.826103198071    -1.323169016427     0.235836995479     1.007825032230
         H            0.936697198071    -0.158556016427     1.487026995479     1.007825032230
         H           -1.476527801929     2.138069983573     0.196790995479     1.007825032230
         H           -2.200951801929     1.326875983573    -1.211527004521     1.007825032230
         H           -3.106969801929     1.451279983573     0.310723995479     1.007825032230
         H            3.330000198071     0.992307983573     1.094461995479     1.007825032230
         H            2.763528198071     1.668849983573    -0.437827004521     1.007825032230
         H            4.210291198071     0.645701983573    -0.400151004521     1.007825032230
         H           -3.241243801929    -0.944612016427     0.211480995479     1.007825032230

  Basis Set: AUG-CC-PVTZ
    Blend: AUG-CC-PVTZ
  Basis Set: (AUG-CC-PVTZ AUX)
    Blend: AUG-CC-PVTZ-JKFIT
	 Reference Energy          =    -309.1426229121893243 [Eh]
	 Singles Energy            =      -0.0000000000000000 [Eh]
	 Same-Spin Energy          =      -0.3167463190045527 [Eh]
	 Opposite-Spin Energy      =      -1.1033782509635159 [Eh]
	 Correlation Energy        =      -1.4201245699680687 [Eh]
	 Total Energy              =    -310.5627474821574197 [Eh]

	 ================> DF-SCS-MP2 Energies <==================
	-----------------------------------------------------------
	 SCS Same-Spin Scale       =       0.3333333333333333 [-]
	 SCS Opposite-Spin Scale   =       1.2000000000000000 [-]
	 SCS Same-Spin Energy      =      -0.1055821063348509 [Eh]
	 SCS Opposite-Spin Energy  =      -1.3240539011562191 [Eh]
	 SCS Correlation Energy    =      -1.4296360074910701 [Eh]
	 SCS Total Energy          =    -310.5722589196803938 [Eh]
	-----------------------------------------------------------

  Dipole Moment: [D]
     X:    -0.1108      Y:     1.3648      Z:     0.7183     Total:     1.5463

*** Psi4 exiting successfully. Buy a developer a beer!
