                               Psi4 1.4a3.dev225

  ==> Input File <==

--------------------------------------------------------------------------
#psi4
#
memory 32 gb

molecule  {
0 1
  O       -2.4334040    -1.0537050    -0.1031880
  C       -1.5599110     0.0061750     0.3163080
  C       -0.2252920    -0.2882920    -0.2906650
  C        2.2718840    -0.5904540    -0.1973150
  C        0.9184280    -0.3582560     0.4039980
  C       -2.0985830     1.3582810    -0.1413790
  C        3.2072160     0.6032460     0.0168350
  H       -1.4627270     0.0051460     1.4138490
  H       -0.2231950    -0.4335060    -1.3719210
  H        2.1635620    -0.7923810    -1.2691220
  H        2.7222980    -1.4861610     0.2495370
  H        0.8882851    -0.2258681     1.4373571
  H       -1.4287050     2.1666040     0.1650490
  H       -2.1908800     1.3667930    -1.2308750
  H       -3.0873820     1.5512680     0.2912850
  H        3.3343300     0.8133780     1.0831920
  H        2.7976640     1.4999730    -0.4563300
  H        4.1964720     0.4112550    -0.4090930
  H       -3.3235000    -0.8374140     0.2263080
units angstrom
no_reorient  #important for SAPT in psi4, default
symmetry c1  #important for SAPT in psi4, default
}

set PROPERTIES_ORIGIN ["COM"]
properties('MP2/aug-cc-pvtz', properties = ['dipole'])
--------------------------------------------------------------------------

    Molecular point group: c1
  Charge       = 0
  Multiplicity = 1
  Basis Set: AUG-CC-PVTZ
    Blend: AUG-CC-PVTZ
  Basis Set: (AUG-CC-PVTZ AUX)
    Blend: AUG-CC-PVTZ-JKFIT

    Orbital Energies [Eh]
    ---------------------

    Doubly Occupied:

       1A    -20.555248     2A    -11.283353     3A    -11.224374
       4A    -11.222448     5A    -11.220615     6A    -11.219710
       7A    -11.215513     8A     -1.353897     9A     -1.090383
      10A     -1.032939    11A     -0.971349    12A     -0.876170
      13A     -0.810694    14A     -0.760458    15A     -0.683448
      16A     -0.633755    17A     -0.624511    18A     -0.597779
      19A     -0.589778    20A     -0.542929    21A     -0.541772
      22A     -0.532291    23A     -0.515987    24A     -0.501886
      25A     -0.483124    26A     -0.463060    27A     -0.443703
      28A     -0.349224

  @DF-RHF Final Energy:  -309.14853317363202

   => Energetics <=

    Nuclear Repulsion Energy =            299.1585096122382197
    One-Electron Energy =               -1011.9332942442213152
    Two-Electron Energy =                 403.6262514583510210
    Total Energy =                       -309.1485331736320177
  Basis Set: (AUG-CC-PVTZ AUX)
    Blend: AUG-CC-PVTZ-RI
    Molecular point group: c1

    Geometry (in Angstrom), charge = 0, multiplicity = 1:

       Center              X                  Y                   Z               Mass
    ------------   -----------------  -----------------  -----------------  -----------------
         O           -2.390076073844    -1.013592339821    -0.100921494266    15.994914619570
         C           -1.516583073844     0.046287660179     0.318574505734    12.000000000000
         C           -0.181964073844    -0.248179339821    -0.288398494266    12.000000000000
         C            2.315211926156    -0.550341339821    -0.195048494266    12.000000000000
         C            0.961755926156    -0.318143339821     0.406264505734    12.000000000000
         C           -2.055255073844     1.398393660179    -0.139112494266    12.000000000000
         C            3.250543926156     0.643358660179     0.019101505734    12.000000000000
         H           -1.419399073844     0.045258660179     1.416115505734     1.007825032230
         H           -0.179867073844    -0.393393339821    -1.369654494266     1.007825032230
         H            2.206889926156    -0.752268339821    -1.266855494266     1.007825032230
         H            2.765625926156    -1.446048339821     0.251803505734     1.007825032230
         H            0.931613026156    -0.185755439821     1.439623605734     1.007825032230
         H           -1.385377073844     2.206716660179     0.167315505734     1.007825032230
         H           -2.147552073844     1.406905660179    -1.228608494266     1.007825032230
         H           -3.044054073844     1.591380660179     0.293551505734     1.007825032230
         H            3.377657926156     0.853490660179     1.085458505734     1.007825032230
         H            2.840991926156     1.540085660179    -0.454063494266     1.007825032230
         H            4.239799926156     0.451367660179    -0.406826494266     1.007825032230
         H           -3.280172073844    -0.797301339821     0.228574505734     1.007825032230

  Basis Set: AUG-CC-PVTZ
    Blend: AUG-CC-PVTZ
  Basis Set: (AUG-CC-PVTZ AUX)
    Blend: AUG-CC-PVTZ-JKFIT
	 Reference Energy          =    -309.1485331736320177 [Eh]
	 Singles Energy            =      -0.0000000000000000 [Eh]
	 Same-Spin Energy          =      -0.3163820328638224 [Eh]
	 Opposite-Spin Energy      =      -1.1021019225682949 [Eh]
	 Correlation Energy        =      -1.4184839554321171 [Eh]
	 Total Energy              =    -310.5670171290641406 [Eh]

	 ================> DF-SCS-MP2 Energies <==================
	-----------------------------------------------------------
	 SCS Same-Spin Scale       =       0.3333333333333333 [-]
	 SCS Opposite-Spin Scale   =       1.2000000000000000 [-]
	 SCS Same-Spin Energy      =      -0.1054606776212741 [Eh]
	 SCS Opposite-Spin Energy  =      -1.3225223070819538 [Eh]
	 SCS Correlation Energy    =      -1.4279829847032279 [Eh]
	 SCS Total Energy          =    -310.5765161583352665 [Eh]
	-----------------------------------------------------------

  Dipole Moment: [D]
     X:    -0.0353      Y:     1.4020      Z:     0.8149     Total:     1.6220

*** Psi4 exiting successfully. Buy a developer a beer!
