                               Psi4 1.3.2 release

  ==> Input File <==

--------------------------------------------------------------------------
#psi4
#
memory 32 gb

molecule  {
0 1
  O       -2.3409430    -1.1152500    -0.1201430
  C       -1.5156830    -0.0261920     0.3177710
  C       -0.1809217    -0.2512145    -0.3135596
  C        2.3348890    -0.4444240    -0.1997250
  C        0.9740050    -0.2811540     0.4036300
  C       -2.1103090     1.3065560    -0.1212920
  C        3.2132980     0.7871720     0.0273270
  H       -1.4397067    -0.0370590     1.4167014
  H       -0.1609320    -0.3839550    -1.3725900
  H        2.2351040    -0.6390970    -1.2733090
  H        2.8261900    -1.3231820     0.2368400
  H        0.9367840    -0.1585690     1.4880300
  H       -1.4764410     2.1380570     0.1977940
  H       -2.2008650     1.3268630    -1.2105240
  H       -3.1068830     1.4512670     0.3117270
  H        3.3300870     0.9922950     1.0954650
  H        2.7636150     1.6688370    -0.4368240
  H        4.2103780     0.6456890    -0.3991480
  H       -3.2411570    -0.9446250     0.2124840
units angstrom
no_reorient  #important for SAPT in psi4, default
symmetry c1  #important for SAPT in psi4, default
}

set PROPERTIES_ORIGIN ["COM"]
properties('MP2/aug-cc-pvtz', properties = ['dipole'])
--------------------------------------------------------------------------

    Molecular point group: c1
  Charge       = 0
  Multiplicity = 1
  Basis Set: AUG-CC-PVTZ
    Blend: AUG-CC-PVTZ
  Basis Set: (AUG-CC-PVTZ AUX)
    Blend: AUG-CC-PVTZ-JKFIT

    Orbital Energies [Eh]
    ---------------------

    Doubly Occupied:

       1A    -20.554626     2A    -11.282731     3A    -11.230889
       4A    -11.224346     5A    -11.222163     6A    -11.218748
       7A    -11.215168     8A     -1.353854     9A     -1.087521
      10A     -1.033595    11A     -0.968896    12A     -0.875718
      13A     -0.808535    14A     -0.759159    15A     -0.681705
      16A     -0.632595    17A     -0.624496    18A     -0.597778
      19A     -0.590336    20A     -0.542344    21A     -0.540201
      22A     -0.532650    23A     -0.515782    24A     -0.501762
      25A     -0.481915    26A     -0.464977    27A     -0.443200
      28A     -0.344776

  @DF-RHF Final Energy:  -309.14746277161436

   => Energetics <=

    Nuclear Repulsion Energy =            299.0139969250062109
    One-Electron Energy =               -1011.6619861936191000
    Two-Electron Energy =                 403.5005264969985888
    Total Energy =                       -309.1474627716143573
  Basis Set: (AUG-CC-PVTZ AUX)
    Blend: AUG-CC-PVTZ-RI
    Molecular point group: c1

    Geometry (in Angstrom), charge = 0, multiplicity = 1:

       Center              X                  Y                   Z               Mass
    ------------   -----------------  -----------------  -----------------  -----------------
         O           -2.339473512051    -1.115491564455    -0.117314239259    15.994914619570
         C           -1.514213512051    -0.026433564455     0.320599760741    12.000000000000
         C           -0.179452212051    -0.251456064455    -0.310730839259    12.000000000000
         C            2.336358487949    -0.444665564455    -0.196896239259    12.000000000000
         C            0.975474487949    -0.281395564455     0.406458760741    12.000000000000
         C           -2.108839512051     1.306314435545    -0.118463239259    12.000000000000
         C            3.214767487949     0.786930435545     0.030155760741    12.000000000000
         H           -1.438237212051    -0.037300564455     1.419530160741     1.007825032230
         H           -0.159462512051    -0.384196564455    -1.369761239259     1.007825032230
         H            2.236573487949    -0.639338564455    -1.270480239259     1.007825032230
         H            2.827659487949    -1.323423564455     0.239668760741     1.007825032230
         H            0.938253487949    -0.158810564455     1.490858760741     1.007825032230
         H           -1.474971512051     2.137815435545     0.200622760741     1.007825032230
         H           -2.199395512051     1.326621435545    -1.207695239259     1.007825032230
         H           -3.105413512051     1.451025435545     0.314555760741     1.007825032230
         H            3.331556487949     0.992053435545     1.098293760741     1.007825032230
         H            2.765084487949     1.668595435545    -0.433995239259     1.007825032230
         H            4.211847487949     0.645447435545    -0.396319239259     1.007825032230
         H           -3.239687512051    -0.944866564455     0.215312760741     1.007825032230

  Basis Set: AUG-CC-PVTZ
    Blend: AUG-CC-PVTZ
  Basis Set: (AUG-CC-PVTZ AUX)
    Blend: AUG-CC-PVTZ-JKFIT
	 Reference Energy          =    -309.1474627716143573 [Eh]
	 Singles Energy            =      -0.0000000000000000 [Eh]
	 Same-Spin Energy          =      -0.3167217566642120 [Eh]
	 Opposite-Spin Energy      =      -1.1029091860210829 [Eh]
	 Correlation Energy        =      -1.4196309426852949 [Eh]
	 Total Energy              =    -310.5670937142996308 [Eh]

	 ================> DF-SCS-MP2 Energies <==================
	-----------------------------------------------------------
	 SCS Same-Spin Scale       =       0.3333333333333333 [-]
	 SCS Opposite-Spin Scale   =       1.2000000000000000 [-]
	 SCS Same-Spin Energy      =      -0.1055739188880707 [Eh]
	 SCS Opposite-Spin Energy  =      -1.3234910232252994 [Eh]
	 SCS Correlation Energy    =      -1.4290649421133701 [Eh]
	 SCS Total Energy          =    -310.5765277137277280 [Eh]
	-----------------------------------------------------------

  Dipole Moment: [D]
     X:    -0.0900      Y:     1.3727      Z:     0.8109     Total:     1.5969

*** Psi4 exiting successfully. Buy a developer a beer!
