                               Psi4 1.3.2 release

  ==> Input File <==

--------------------------------------------------------------------------
#psi4
#
memory 32 gb

molecule  {
0 1
  O       -2.3409430    -1.1152500    -0.1201430
  C       -1.5156830    -0.0261920     0.3177710
  C       -0.1694690    -0.2644279    -0.2836878
  C        2.3348890    -0.4444240    -0.1997250
  C        0.9740050    -0.2811540     0.4036300
  C       -2.1211178     1.3040868    -0.1139472
  C        3.2132980     0.7871720     0.0273270
  H       -1.4208040    -0.0402330     1.4151950
  H       -0.1609320    -0.3839550    -1.3725900
  H        2.2351040    -0.6390970    -1.2733090
  H        2.8261900    -1.3231820     0.2368400
  H        0.9367840    -0.1585690     1.4880300
  H       -1.4764410     2.1380570     0.1977940
  H       -2.2008650     1.3268630    -1.2105240
  H       -3.1068830     1.4512670     0.3117270
  H        3.3300870     0.9922950     1.0954650
  H        2.7636150     1.6688370    -0.4368240
  H        4.2103780     0.6456890    -0.3991480
  H       -3.2411570    -0.9446250     0.2124840
units angstrom
no_reorient  #important for SAPT in psi4, default
symmetry c1  #important for SAPT in psi4, default
}

set PROPERTIES_ORIGIN ["COM"]
properties('MP2/aug-cc-pvtz', properties = ['dipole'])
--------------------------------------------------------------------------

    Molecular point group: c1
  Charge       = 0
  Multiplicity = 1
  Basis Set: AUG-CC-PVTZ
    Blend: AUG-CC-PVTZ
  Basis Set: (AUG-CC-PVTZ AUX)
    Blend: AUG-CC-PVTZ-JKFIT

    Orbital Energies [Eh]
    ---------------------

    Doubly Occupied:

       1A    -20.554875     2A    -11.282834     3A    -11.227307
       4A    -11.224597     5A    -11.220857     6A    -11.219524
       7A    -11.215375     8A     -1.353937     9A     -1.090420
      10A     -1.033274    11A     -0.971936    12A     -0.876270
      13A     -0.810824    14A     -0.754169    15A     -0.681394
      16A     -0.633617    17A     -0.624507    18A     -0.598916
      19A     -0.588874    20A     -0.543332    21A     -0.540370
      22A     -0.530729    23A     -0.516268    24A     -0.501022
      25A     -0.482116    26A     -0.463065    27A     -0.442768
      28A     -0.351113

  @DF-RHF Final Energy:  -309.14931624850851

   => Energetics <=

    Nuclear Repulsion Energy =            299.2013686910409547
    One-Electron Energy =               -1012.0327902249279077
    Two-Electron Energy =                 403.6821052853783840
    Total Energy =                       -309.1493162485085122
  Basis Set: (AUG-CC-PVTZ AUX)
    Blend: AUG-CC-PVTZ-RI
    Molecular point group: c1

    Geometry (in Angstrom), charge = 0, multiplicity = 1:

       Center              X                  Y                   Z               Mass
    ------------   -----------------  -----------------  -----------------  -----------------
         O           -2.339741048581    -1.113579362410    -0.121761099904    15.994914619570
         C           -1.514481048581    -0.024521362410     0.316152900096    12.000000000000
         C           -0.168267048581    -0.262757262410    -0.285305899904    12.000000000000
         C            2.336090951419    -0.442753362410    -0.201343099904    12.000000000000
         C            0.975206951419    -0.279483362410     0.402011900096    12.000000000000
         C           -2.119915848581     1.305757437590    -0.115565299904    12.000000000000
         C            3.214499951419     0.788842637590     0.025708900096    12.000000000000
         H           -1.419602048581    -0.038562362410     1.413576900096     1.007825032230
         H           -0.159730048581    -0.382284362410    -1.374208099904     1.007825032230
         H            2.236305951419    -0.637426362410    -1.274927099904     1.007825032230
         H            2.827391951419    -1.321511362410     0.235221900096     1.007825032230
         H            0.937985951419    -0.156898362410     1.486411900096     1.007825032230
         H           -1.475239048581     2.139727637590     0.196175900096     1.007825032230
         H           -2.199663048581     1.328533637590    -1.212142099904     1.007825032230
         H           -3.105681048581     1.452937637590     0.310108900096     1.007825032230
         H            3.331288951419     0.993965637590     1.093846900096     1.007825032230
         H            2.764816951419     1.670507637590    -0.438442099904     1.007825032230
         H            4.211579951419     0.647359637590    -0.400766099904     1.007825032230
         H           -3.239955048581    -0.942954362410     0.210865900096     1.007825032230

  Basis Set: AUG-CC-PVTZ
    Blend: AUG-CC-PVTZ
  Basis Set: (AUG-CC-PVTZ AUX)
    Blend: AUG-CC-PVTZ-JKFIT
	 Reference Energy          =    -309.1493162485085122 [Eh]
	 Singles Energy            =      -0.0000000000000000 [Eh]
	 Same-Spin Energy          =      -0.3164886842624569 [Eh]
	 Opposite-Spin Energy      =      -1.1022817067123727 [Eh]
	 Correlation Energy        =      -1.4187703909748295 [Eh]
	 Total Energy              =    -310.5680866394833402 [Eh]

	 ================> DF-SCS-MP2 Energies <==================
	-----------------------------------------------------------
	 SCS Same-Spin Scale       =       0.3333333333333333 [-]
	 SCS Opposite-Spin Scale   =       1.2000000000000000 [-]
	 SCS Same-Spin Energy      =      -0.1054962280874856 [Eh]
	 SCS Opposite-Spin Energy  =      -1.3227380480548472 [Eh]
	 SCS Correlation Energy    =      -1.4282342761423328 [Eh]
	 SCS Total Energy          =    -310.5775505246508601 [Eh]
	-----------------------------------------------------------

  Dipole Moment: [D]
     X:    -0.0923      Y:     1.3935      Z:     0.8185     Total:     1.6188

*** Psi4 exiting successfully. Buy a developer a beer!
