                               Psi4 1.3.2 release

  ==> Input File <==

--------------------------------------------------------------------------
#psi4
#
memory 32 gb

molecule  {
0 1
  O       -2.3409430    -1.1152500    -0.1201430
  C       -1.5156830    -0.0261920     0.3177710
  C       -0.1501453    -0.2562554    -0.2418528
  C        2.3348890    -0.4444240    -0.1997250
  C        0.9740050    -0.2811540     0.4036300
  C       -2.1103090     1.3065560    -0.1212920
  C        3.2132980     0.7871720     0.0273270
  H       -1.3830911    -0.0465672     1.4111798
  H       -0.1609320    -0.3839550    -1.3725900
  H        2.2351040    -0.6390970    -1.2733090
  H        2.8261900    -1.3231820     0.2368400
  H        0.9367840    -0.1585690     1.4880300
  H       -1.4764410     2.1380570     0.1977940
  H       -2.2008650     1.3268630    -1.2105240
  H       -3.1068830     1.4512670     0.3117270
  H        3.3300870     0.9922950     1.0954650
  H        2.7636150     1.6688370    -0.4368240
  H        4.2103780     0.6456890    -0.3991480
  H       -3.2411570    -0.9446250     0.2124840
units angstrom
no_reorient  #important for SAPT in psi4, default
symmetry c1  #important for SAPT in psi4, default
}

set PROPERTIES_ORIGIN ["COM"]
properties('MP2/aug-cc-pvtz', properties = ['dipole'])
--------------------------------------------------------------------------

    Molecular point group: c1
  Charge       = 0
  Multiplicity = 1
  Basis Set: AUG-CC-PVTZ
    Blend: AUG-CC-PVTZ
  Basis Set: (AUG-CC-PVTZ AUX)
    Blend: AUG-CC-PVTZ-JKFIT

    Orbital Energies [Eh]
    ---------------------

    Doubly Occupied:

       1A    -20.556714     2A    -11.283422     3A    -11.224973
       4A    -11.221591     5A    -11.220561     6A    -11.218435
       7A    -11.215485     8A     -1.354635     9A     -1.095768
      10A     -1.033745    11A     -0.975928    12A     -0.876533
      13A     -0.814693    14A     -0.747026    15A     -0.681595
      16A     -0.635809    17A     -0.625029    18A     -0.600658
      19A     -0.586595    20A     -0.545041    21A     -0.539560
      22A     -0.528434    23A     -0.517359    24A     -0.502299
      25A     -0.482370    26A     -0.456947    27A     -0.442597
      28A     -0.360262

  @DF-RHF Final Energy:  -309.14670535857545

   => Energetics <=

    Nuclear Repulsion Energy =            299.6246871157716214
    One-Electron Energy =               -1012.8546559150495341
    Two-Electron Energy =                 404.0832634407024671
    Total Energy =                       -309.1467053585754456
  Basis Set: (AUG-CC-PVTZ AUX)
    Blend: AUG-CC-PVTZ-RI
    Molecular point group: c1

    Geometry (in Angstrom), charge = 0, multiplicity = 1:

       Center              X                  Y                   Z               Mass
    ------------   -----------------  -----------------  -----------------  -----------------
         O           -2.343733482747    -1.114791452240    -0.125855820986    15.994914619570
         C           -1.518473482747    -0.025733452240     0.312058179014    12.000000000000
         C           -0.152935782747    -0.255796852240    -0.247565620986    12.000000000000
         C            2.332098517253    -0.443965452240    -0.205437820986    12.000000000000
         C            0.971214517253    -0.280695452240     0.397917179014    12.000000000000
         C           -2.113099482747     1.307014547760    -0.127004820986    12.000000000000
         C            3.210507517253     0.787630547760     0.021614179014    12.000000000000
         H           -1.385881582747    -0.046108652240     1.405466979014     1.007825032230
         H           -0.163722482747    -0.383496452240    -1.378302820986     1.007825032230
         H            2.232313517253    -0.638638452240    -1.279021820986     1.007825032230
         H            2.823399517253    -1.322723452240     0.231127179014     1.007825032230
         H            0.933993517253    -0.158110452240     1.482317179014     1.007825032230
         H           -1.479231482747     2.138515547760     0.192081179014     1.007825032230
         H           -2.203655482747     1.327321547760    -1.216236820986     1.007825032230
         H           -3.109673482747     1.451725547760     0.306014179014     1.007825032230
         H            3.327296517253     0.992753547760     1.089752179014     1.007825032230
         H            2.760824517253     1.669295547760    -0.442536820986     1.007825032230
         H            4.207587517253     0.646147547760    -0.404860820986     1.007825032230
         H           -3.243947482747    -0.944166452240     0.206771179014     1.007825032230

  Basis Set: AUG-CC-PVTZ
    Blend: AUG-CC-PVTZ
  Basis Set: (AUG-CC-PVTZ AUX)
    Blend: AUG-CC-PVTZ-JKFIT
	 Reference Energy          =    -309.1467053585754456 [Eh]
	 Singles Energy            =      -0.0000000000000000 [Eh]
	 Same-Spin Energy          =      -0.3163289399832100 [Eh]
	 Opposite-Spin Energy      =      -1.1016924745321488 [Eh]
	 Correlation Energy        =      -1.4180214145153589 [Eh]
	 Total Energy              =    -310.5647267730907970 [Eh]

	 ================> DF-SCS-MP2 Energies <==================
	-----------------------------------------------------------
	 SCS Same-Spin Scale       =       0.3333333333333333 [-]
	 SCS Opposite-Spin Scale   =       1.2000000000000000 [-]
	 SCS Same-Spin Energy      =      -0.1054429799944033 [Eh]
	 SCS Opposite-Spin Energy  =      -1.3220309694385786 [Eh]
	 SCS Correlation Energy    =      -1.4274739494329820 [Eh]
	 SCS Total Energy          =    -310.5741793080084108 [Eh]
	-----------------------------------------------------------

  Dipole Moment: [D]
     X:    -0.1056      Y:     1.3940      Z:     0.8293     Total:     1.6255

*** Psi4 exiting successfully. Buy a developer a beer!
