                               Psi4 1.3.2 release

  ==> Input File <==

--------------------------------------------------------------------------
#psi4
#
memory 32 gb

molecule  {
0 1
  O       -2.3409430    -1.1152500    -0.1201430
  C       -1.5156830    -0.0261920     0.3177710
  C        0.0099091    -0.2833301    -0.3712027
  C        2.3348890    -0.4444240    -0.1997250
  C        0.9740050    -0.2811540     0.4036300
  C       -2.1103090     1.3065560    -0.1212920
  C        3.2132980     0.7871720     0.0273270
  H       -1.4208040    -0.0402330     1.4151950
  H       -0.1609320    -0.3839550    -1.3725900
  H        2.2351040    -0.6390970    -1.2733090
  H        2.8261900    -1.3231820     0.2368400
  H        0.9367840    -0.1585690     1.4880300
  H       -1.4764410     2.1380570     0.1977940
  H       -2.2008650     1.3268630    -1.2105240
  H       -3.1068830     1.4512670     0.3117270
  H        3.3300870     0.9922950     1.0954650
  H        2.7636150     1.6688370    -0.4368240
  H        4.2103780     0.6456890    -0.3991480
  H       -3.2411570    -0.9446250     0.2124840
units angstrom
no_reorient  #important for SAPT in psi4, default
symmetry c1  #important for SAPT in psi4, default
}

set PROPERTIES_ORIGIN ["COM"]
properties('MP2/aug-cc-pvtz', properties = ['dipole'])
--------------------------------------------------------------------------

    Molecular point group: c1
  Charge       = 0
  Multiplicity = 1
  Basis Set: AUG-CC-PVTZ
    Blend: AUG-CC-PVTZ
  Basis Set: (AUG-CC-PVTZ AUX)
    Blend: AUG-CC-PVTZ-JKFIT

    Orbital Energies [Eh]
    ---------------------

    Doubly Occupied:

       1A    -20.553492     2A    -11.286050     3A    -11.219100
       4A    -11.217383     5A    -11.214421     6A    -11.213170
       7A    -11.211462     8A     -1.348897     9A     -1.103259
      10A     -1.018254    11A     -0.979992    12A     -0.859912
      13A     -0.806638    14A     -0.765833    15A     -0.678000
      16A     -0.635683    17A     -0.623400    18A     -0.600194
      19A     -0.590206    20A     -0.561485    21A     -0.538744
      22A     -0.531342    23A     -0.513493    24A     -0.500026
      25A     -0.483970    26A     -0.440176    27A     -0.408644
      28A     -0.377704

  @DF-RHF Final Energy:  -309.11314510970061

   => Energetics <=

    Nuclear Repulsion Energy =            298.6312813040888727
    One-Electron Energy =               -1010.9269929125697445
    Two-Electron Energy =                 403.1825664987802043
    Total Energy =                       -309.1131451097006106
  Basis Set: (AUG-CC-PVTZ AUX)
    Blend: AUG-CC-PVTZ-RI
    Molecular point group: c1

    Geometry (in Angstrom), charge = 0, multiplicity = 1:

       Center              X                  Y                   Z               Mass
    ------------   -----------------  -----------------  -----------------  -----------------
         O           -2.362543224826    -1.111609152253    -0.110388036890    15.994914619570
         C           -1.537283224826    -0.022551152253     0.327525963110    12.000000000000
         C           -0.011691124826    -0.279689252253    -0.361447736890    12.000000000000
         C            2.313288775174    -0.440783152253    -0.189970036890    12.000000000000
         C            0.952404775174    -0.277513152253     0.413384963110    12.000000000000
         C           -2.131909224826     1.310196847747    -0.111537036890    12.000000000000
         C            3.191697775174     0.790812847747     0.037081963110    12.000000000000
         H           -1.442404224826    -0.036592152253     1.424949963110     1.007825032230
         H           -0.182532224826    -0.380314152253    -1.362835036890     1.007825032230
         H            2.213503775174    -0.635456152253    -1.263554036890     1.007825032230
         H            2.804589775174    -1.319541152253     0.246594963110     1.007825032230
         H            0.915183775174    -0.154928152253     1.497784963110     1.007825032230
         H           -1.498041224826     2.141697847747     0.207548963110     1.007825032230
         H           -2.222465224826     1.330503847747    -1.200769036890     1.007825032230
         H           -3.128483224826     1.454907847747     0.321481963110     1.007825032230
         H            3.308486775174     0.995935847747     1.105219963110     1.007825032230
         H            2.742014775174     1.672477847747    -0.427069036890     1.007825032230
         H            4.188777775174     0.649329847747    -0.389393036890     1.007825032230
         H           -3.262757224826    -0.940984152253     0.222238963110     1.007825032230

  Basis Set: AUG-CC-PVTZ
    Blend: AUG-CC-PVTZ
  Basis Set: (AUG-CC-PVTZ AUX)
    Blend: AUG-CC-PVTZ-JKFIT
	 Reference Energy          =    -309.1131451097006106 [Eh]
	 Singles Energy            =      -0.0000000000000000 [Eh]
	 Same-Spin Energy          =      -0.3155630208934228 [Eh]
	 Opposite-Spin Energy      =      -1.1011818444077426 [Eh]
	 Correlation Energy        =      -1.4167448653011654 [Eh]
	 Total Energy              =    -310.5298899750017654 [Eh]

	 ================> DF-SCS-MP2 Energies <==================
	-----------------------------------------------------------
	 SCS Same-Spin Scale       =       0.3333333333333333 [-]
	 SCS Opposite-Spin Scale   =       1.2000000000000000 [-]
	 SCS Same-Spin Energy      =      -0.1051876736311409 [Eh]
	 SCS Opposite-Spin Energy  =      -1.3214182132892911 [Eh]
	 SCS Correlation Energy    =      -1.4266058869204321 [Eh]
	 SCS Total Energy          =    -310.5397509966210237 [Eh]
	-----------------------------------------------------------

  Dipole Moment: [D]
     X:    -0.1045      Y:     1.3362      Z:     0.7860     Total:     1.5538

*** Psi4 exiting successfully. Buy a developer a beer!
