                               Psi4 1.3.2 release

  ==> Input File <==

--------------------------------------------------------------------------
#psi4
#
memory 32 gb

molecule  {
0 1
  O       -2.3424006    -1.1188591    -0.1082417
  C       -1.5156830    -0.0261920     0.3177710
  C       -0.1702520    -0.2529640    -0.2898400
  C        2.3348890    -0.4444240    -0.1997250
  C        0.9740050    -0.2811540     0.4036300
  C       -2.1103090     1.3065560    -0.1212920
  C        3.2132980     0.7871720     0.0273270
  H       -1.4263925    -0.0480476     1.4155361
  H       -0.1609320    -0.3839550    -1.3725900
  H        2.2351040    -0.6390970    -1.2733090
  H        2.8261900    -1.3231820     0.2368400
  H        0.9367840    -0.1585690     1.4880300
  H       -1.4764410     2.1380570     0.1977940
  H       -2.2008650     1.3268630    -1.2105240
  H       -3.1068830     1.4512670     0.3117270
  H        3.3300870     0.9922950     1.0954650
  H        2.7636150     1.6688370    -0.4368240
  H        4.2103780     0.6456890    -0.3991480
  H       -3.2411570    -0.9446250     0.2124840
units angstrom
no_reorient  #important for SAPT in psi4, default
symmetry c1  #important for SAPT in psi4, default
}

set PROPERTIES_ORIGIN ["COM"]
properties('MP2/aug-cc-pvtz', properties = ['dipole'])
--------------------------------------------------------------------------

    Molecular point group: c1
  Charge       = 0
  Multiplicity = 1
  Basis Set: AUG-CC-PVTZ
    Blend: AUG-CC-PVTZ
  Basis Set: (AUG-CC-PVTZ AUX)
    Blend: AUG-CC-PVTZ-JKFIT

    Orbital Energies [Eh]
    ---------------------

    Doubly Occupied:

       1A    -20.554293     2A    -11.282805     3A    -11.227822
       4A    -11.224534     5A    -11.221020     6A    -11.219628
       7A    -11.215299     8A     -1.354598     9A     -1.090139
      10A     -1.033736    11A     -0.971260    12A     -0.876077
      13A     -0.810823    14A     -0.755022    15A     -0.681501
      16A     -0.633966    17A     -0.625375    18A     -0.598317
      19A     -0.589351    20A     -0.543111    21A     -0.539988
      22A     -0.531265    23A     -0.516461    24A     -0.501686
      25A     -0.482014    26A     -0.462812    27A     -0.443422
      28A     -0.349970

  @DF-RHF Final Energy:  -309.14982068054371

   => Energetics <=

    Nuclear Repulsion Energy =            299.1865536620726971
    One-Electron Energy =               -1012.0001579353057650
    Two-Electron Energy =                 403.6637835926893558
    Total Energy =                       -309.1498206805437121
  Basis Set: (AUG-CC-PVTZ AUX)
    Blend: AUG-CC-PVTZ-RI
    Molecular point group: c1

    Geometry (in Angstrom), charge = 0, multiplicity = 1:

       Center              X                  Y                   Z               Mass
    ------------   -----------------  -----------------  -----------------  -----------------
         O           -2.342111469681    -1.118203502944    -0.110146945340    15.994914619570
         C           -1.515393869681    -0.025536402944     0.315865754660    12.000000000000
         C           -0.169962869681    -0.252308402944    -0.291745245340    12.000000000000
         C            2.335178130319    -0.443768402944    -0.201630245340    12.000000000000
         C            0.974294130319    -0.280498402944     0.401724754660    12.000000000000
         C           -2.110019869681     1.307211597056    -0.123197245340    12.000000000000
         C            3.213587130319     0.787827597056     0.025421754660    12.000000000000
         H           -1.426103369681    -0.047392002944     1.413630854660     1.007825032230
         H           -0.160642869681    -0.383299402944    -1.374495245340     1.007825032230
         H            2.235393130319    -0.638441402944    -1.275214245340     1.007825032230
         H            2.826479130319    -1.322526402944     0.234934754660     1.007825032230
         H            0.937073130319    -0.157913402944     1.486124754660     1.007825032230
         H           -1.476151869681     2.138712597056     0.195888754660     1.007825032230
         H           -2.200575869681     1.327518597056    -1.212429245340     1.007825032230
         H           -3.106593869681     1.451922597056     0.309821754660     1.007825032230
         H            3.330376130319     0.992950597056     1.093559754660     1.007825032230
         H            2.763904130319     1.669492597056    -0.438729245340     1.007825032230
         H            4.210667130319     0.646344597056    -0.401053245340     1.007825032230
         H           -3.240867869681    -0.943969402944     0.210578754660     1.007825032230

  Basis Set: AUG-CC-PVTZ
    Blend: AUG-CC-PVTZ
  Basis Set: (AUG-CC-PVTZ AUX)
    Blend: AUG-CC-PVTZ-JKFIT
	 Reference Energy          =    -309.1498206805437121 [Eh]
	 Singles Energy            =      -0.0000000000000000 [Eh]
	 Same-Spin Energy          =      -0.3164356162602995 [Eh]
	 Opposite-Spin Energy      =      -1.1021622433737110 [Eh]
	 Correlation Energy        =      -1.4185978596340105 [Eh]
	 Total Energy              =    -310.5684185401777313 [Eh]

	 ================> DF-SCS-MP2 Energies <==================
	-----------------------------------------------------------
	 SCS Same-Spin Scale       =       0.3333333333333333 [-]
	 SCS Opposite-Spin Scale   =       1.2000000000000000 [-]
	 SCS Same-Spin Energy      =      -0.1054785387534332 [Eh]
	 SCS Opposite-Spin Energy  =      -1.3225946920484533 [Eh]
	 SCS Correlation Energy    =      -1.4280732308018864 [Eh]
	 SCS Total Energy          =    -310.5778939113455976 [Eh]
	-----------------------------------------------------------

  Dipole Moment: [D]
     X:    -0.0904      Y:     1.3954      Z:     0.7912     Total:     1.6066

*** Psi4 exiting successfully. Buy a developer a beer!
