                               Psi4 1.4a3.dev225

  ==> Input File <==

--------------------------------------------------------------------------
#psi4
#
memory 32 gb

molecule  {
0 1
  O       -2.4334040    -1.0537050    -0.1031880
  C       -1.5599110     0.0061750     0.3163080
  C       -0.2252920    -0.2882920    -0.2906650
  C        2.2718840    -0.5904540    -0.1973150
  C        0.9184280    -0.3582560     0.4039980
  C       -2.0985830     1.3582810    -0.1413790
  C        3.2072160     0.6032460     0.0168350
  H       -1.4627270     0.0051460     1.4138490
  H       -0.2232911    -0.4268507    -1.3223660
  H        2.1635620    -0.7923810    -1.2691220
  H        2.7222980    -1.4861610     0.2495370
  H        0.8868390    -0.2195170     1.4869310
  H       -1.4287050     2.1666040     0.1650490
  H       -2.1908800     1.3667930    -1.2308750
  H       -3.0873820     1.5512680     0.2912850
  H        3.3343300     0.8133780     1.0831920
  H        2.7976640     1.4999730    -0.4563300
  H        4.1964720     0.4112550    -0.4090930
  H       -3.3235000    -0.8374140     0.2263080
units angstrom
no_reorient  #important for SAPT in psi4, default
symmetry c1  #important for SAPT in psi4, default
}

set PROPERTIES_ORIGIN ["COM"]
properties('MP2/aug-cc-pvtz', properties = ['dipole'])
--------------------------------------------------------------------------

    Molecular point group: c1
  Charge       = 0
  Multiplicity = 1
  Basis Set: AUG-CC-PVTZ
    Blend: AUG-CC-PVTZ
  Basis Set: (AUG-CC-PVTZ AUX)
    Blend: AUG-CC-PVTZ-JKFIT

    Orbital Energies [Eh]
    ---------------------

    Doubly Occupied:

       1A    -20.555152     2A    -11.282709     3A    -11.227849
       4A    -11.224960     5A    -11.219640     6A    -11.215620
       7A    -11.215569     8A     -1.353821     9A     -1.090172
      10A     -1.033228    11A     -0.971418    12A     -0.876040
      13A     -0.810460    14A     -0.761272    15A     -0.681319
      16A     -0.632987    17A     -0.625519    18A     -0.598196
      19A     -0.591799    20A     -0.542896    21A     -0.541227
      22A     -0.532992    23A     -0.516191    24A     -0.501911
      25A     -0.482097    26A     -0.463440    27A     -0.443593
      28A     -0.349290

  @DF-RHF Final Energy:  -309.14853986472360

   => Energetics <=

    Nuclear Repulsion Energy =            299.1666885237060001
    One-Electron Energy =               -1011.9477193116382523
    Two-Electron Energy =                 403.6324909232085929
    Total Energy =                       -309.1485398647236025
  Basis Set: (AUG-CC-PVTZ AUX)
    Blend: AUG-CC-PVTZ-RI
    Molecular point group: c1

    Geometry (in Angstrom), charge = 0, multiplicity = 1:

       Center              X                  Y                   Z               Mass
    ------------   -----------------  -----------------  -----------------  -----------------
         O           -2.390060544958    -1.013723305259    -0.101919653619    15.994914619570
         C           -1.516567544958     0.046156694741     0.317576346381    12.000000000000
         C           -0.181948544958    -0.248310305259    -0.289396653619    12.000000000000
         C            2.315227455042    -0.550472305259    -0.196046653619    12.000000000000
         C            0.961771455042    -0.318274305259     0.405266346381    12.000000000000
         C           -2.055239544958     1.398262694741    -0.140110653619    12.000000000000
         C            3.250559455042     0.643227694741     0.018103346381    12.000000000000
         H           -1.419383544958     0.045127694741     1.415117346381     1.007825032230
         H           -0.179947644958    -0.386869005259    -1.321097653619     1.007825032230
         H            2.206905455042    -0.752399305259    -1.267853653619     1.007825032230
         H            2.765641455042    -1.446179305259     0.250805346381     1.007825032230
         H            0.930182455042    -0.179535305259     1.488199346381     1.007825032230
         H           -1.385361544958     2.206585694741     0.166317346381     1.007825032230
         H           -2.147536544958     1.406774694741    -1.229606653619     1.007825032230
         H           -3.044038544958     1.591249694741     0.292553346381     1.007825032230
         H            3.377673455042     0.853359694741     1.084460346381     1.007825032230
         H            2.841007455042     1.539954694741    -0.455061653619     1.007825032230
         H            4.239815455042     0.451236694741    -0.407824653619     1.007825032230
         H           -3.280156544958    -0.797432305259     0.227576346381     1.007825032230

  Basis Set: AUG-CC-PVTZ
    Blend: AUG-CC-PVTZ
  Basis Set: (AUG-CC-PVTZ AUX)
    Blend: AUG-CC-PVTZ-JKFIT
	 Reference Energy          =    -309.1485398647236025 [Eh]
	 Singles Energy            =      -0.0000000000000000 [Eh]
	 Same-Spin Energy          =      -0.3163633389177659 [Eh]
	 Opposite-Spin Energy      =      -1.1021077968476616 [Eh]
	 Correlation Energy        =      -1.4184711357654276 [Eh]
	 Total Energy              =    -310.5670110004890034 [Eh]

	 ================> DF-SCS-MP2 Energies <==================
	-----------------------------------------------------------
	 SCS Same-Spin Scale       =       0.3333333333333333 [-]
	 SCS Opposite-Spin Scale   =       1.2000000000000000 [-]
	 SCS Same-Spin Energy      =      -0.1054544463059220 [Eh]
	 SCS Opposite-Spin Energy  =      -1.3225293562171938 [Eh]
	 SCS Correlation Energy    =      -1.4279838025231157 [Eh]
	 SCS Total Energy          =    -310.5765236672467040 [Eh]
	-----------------------------------------------------------

  Dipole Moment: [D]
     X:    -0.0228      Y:     1.3971      Z:     0.7743     Total:     1.5975

*** Psi4 exiting successfully. Buy a developer a beer!
