                               Psi4 1.3.2 release

  ==> Input File <==

--------------------------------------------------------------------------
#psi4
#
memory 32 gb

molecule  {
0 1
  O       -2.3409430    -1.1152500    -0.1201430
  C       -1.5264081    -0.0278099     0.2940670
  C       -0.1702520    -0.2529640    -0.2898400
  C        2.3348890    -0.4444240    -0.1997250
  C        0.9740050    -0.2811540     0.4036300
  C       -2.1103090     1.3065560    -0.1212920
  C        3.2132980     0.7871720     0.0273270
  H       -1.4208040    -0.0402330     1.4151950
  H       -0.1798463    -0.3818224    -1.3728435
  H        2.2351040    -0.6390970    -1.2733090
  H        2.8261900    -1.3231820     0.2368400
  H        0.9367840    -0.1585690     1.4880300
  H       -1.4764410     2.1380570     0.1977940
  H       -2.2008650     1.3268630    -1.2105240
  H       -3.1068830     1.4512670     0.3117270
  H        3.3300870     0.9922950     1.0954650
  H        2.7636150     1.6688370    -0.4368240
  H        4.2103780     0.6456890    -0.3991480
  H       -3.2411570    -0.9446250     0.2124840
units angstrom
no_reorient  #important for SAPT in psi4, default
symmetry c1  #important for SAPT in psi4, default
}

set PROPERTIES_ORIGIN ["COM"]
properties('MP2/aug-cc-pvtz', properties = ['dipole'])
--------------------------------------------------------------------------

    Molecular point group: c1
  Charge       = 0
  Multiplicity = 1
  Basis Set: AUG-CC-PVTZ
    Blend: AUG-CC-PVTZ
  Basis Set: (AUG-CC-PVTZ AUX)
    Blend: AUG-CC-PVTZ-JKFIT

    Orbital Energies [Eh]
    ---------------------

    Doubly Occupied:

       1A    -20.557105     2A    -11.283317     3A    -11.228128
       4A    -11.224467     5A    -11.220774     6A    -11.219064
       7A    -11.215177     8A     -1.360168     9A     -1.089650
      10A     -1.034161    11A     -0.971867    12A     -0.876180
      13A     -0.810072    14A     -0.753184    15A     -0.682673
      16A     -0.635545    17A     -0.627666    18A     -0.599107
      19A     -0.589359    20A     -0.543220    21A     -0.540802
      22A     -0.531574    23A     -0.517161    24A     -0.502213
      25A     -0.481948    26A     -0.461399    27A     -0.439715
      28A     -0.350003

  @DF-RHF Final Energy:  -309.14861612417002

   => Energetics <=

    Nuclear Repulsion Energy =            299.3813546315887493
    One-Electron Energy =               -1012.3685412782010644
    Two-Electron Energy =                 403.8385705224423532
    Total Energy =                       -309.1486161241700188
  Basis Set: (AUG-CC-PVTZ AUX)
    Blend: AUG-CC-PVTZ-RI
    Molecular point group: c1

    Geometry (in Angstrom), charge = 0, multiplicity = 1:

       Center              X                  Y                   Z               Mass
    ------------   -----------------  -----------------  -----------------  -----------------
         O           -2.339466753146    -1.115077348850    -0.117298388624    15.994914619570
         C           -1.524931853146    -0.027637248850     0.296911611376    12.000000000000
         C           -0.168775753146    -0.252791348850    -0.286995388624    12.000000000000
         C            2.336365246854    -0.444251348850    -0.196880388624    12.000000000000
         C            0.975481246854    -0.280981348850     0.406474611376    12.000000000000
         C           -2.108832753146     1.306728651150    -0.118447388624    12.000000000000
         C            3.214774246854     0.787344651150     0.030171611376    12.000000000000
         H           -1.419327753146    -0.040060348850     1.418039611376     1.007825032230
         H           -0.178370053146    -0.381649748850    -1.369998888624     1.007825032230
         H            2.236580246854    -0.638924348850    -1.270464388624     1.007825032230
         H            2.827666246854    -1.323009348850     0.239684611376     1.007825032230
         H            0.938260246854    -0.158396348850     1.490874611376     1.007825032230
         H           -1.474964753146     2.138229651150     0.200638611376     1.007825032230
         H           -2.199388753146     1.327035651150    -1.207679388624     1.007825032230
         H           -3.105406753146     1.451439651150     0.314571611376     1.007825032230
         H            3.331563246854     0.992467651150     1.098309611376     1.007825032230
         H            2.765091246854     1.669009651150    -0.433979388624     1.007825032230
         H            4.211854246854     0.645861651150    -0.396303388624     1.007825032230
         H           -3.239680753146    -0.944452348850     0.215328611376     1.007825032230

  Basis Set: AUG-CC-PVTZ
    Blend: AUG-CC-PVTZ
  Basis Set: (AUG-CC-PVTZ AUX)
    Blend: AUG-CC-PVTZ-JKFIT
	 Reference Energy          =    -309.1486161241700188 [Eh]
	 Singles Energy            =      -0.0000000000000000 [Eh]
	 Same-Spin Energy          =      -0.3165959010535165 [Eh]
	 Opposite-Spin Energy      =      -1.1023223962603712 [Eh]
	 Correlation Energy        =      -1.4189182973138876 [Eh]
	 Total Energy              =    -310.5675344214839129 [Eh]

	 ================> DF-SCS-MP2 Energies <==================
	-----------------------------------------------------------
	 SCS Same-Spin Scale       =       0.3333333333333333 [-]
	 SCS Opposite-Spin Scale   =       1.2000000000000000 [-]
	 SCS Same-Spin Energy      =      -0.1055319670178388 [Eh]
	 SCS Opposite-Spin Energy  =      -1.3227868755124454 [Eh]
	 SCS Correlation Energy    =      -1.4283188425302842 [Eh]
	 SCS Total Energy          =    -310.5769349667003212 [Eh]
	-----------------------------------------------------------

  Dipole Moment: [D]
     X:    -0.1380      Y:     1.3595      Z:     0.7756     Total:     1.5713

*** Psi4 exiting successfully. Buy a developer a beer!
