                               Psi4 1.3.2 release

  ==> Input File <==

--------------------------------------------------------------------------
#psi4
#
memory 32 gb

molecule  {
0 1
  O       -2.3409430    -1.1152500    -0.1201430
  C       -1.5156830    -0.0261920     0.3177710
  C       -0.1721253    -0.2299852    -0.3020050
  C        2.3348890    -0.4444240    -0.1997250
  C        0.9740050    -0.2811540     0.4036300
  C       -2.0885564     1.3111897    -0.1358808
  C        3.2132980     0.7871720     0.0273270
  H       -1.4208040    -0.0402330     1.4151950
  H       -0.1609320    -0.3839550    -1.3725900
  H        2.2351040    -0.6390970    -1.2733090
  H        2.8261900    -1.3231820     0.2368400
  H        0.9367840    -0.1585690     1.4880300
  H       -1.4764410     2.1380570     0.1977940
  H       -2.2008650     1.3268630    -1.2105240
  H       -3.1068830     1.4512670     0.3117270
  H        3.3300870     0.9922950     1.0954650
  H        2.7636150     1.6688370    -0.4368240
  H        4.2103780     0.6456890    -0.3991480
  H       -3.2411570    -0.9446250     0.2124840
units angstrom
no_reorient  #important for SAPT in psi4, default
symmetry c1  #important for SAPT in psi4, default
}

set PROPERTIES_ORIGIN ["COM"]
properties('MP2/aug-cc-pvtz', properties = ['dipole'])
--------------------------------------------------------------------------

    Molecular point group: c1
  Charge       = 0
  Multiplicity = 1
  Basis Set: AUG-CC-PVTZ
    Blend: AUG-CC-PVTZ
  Basis Set: (AUG-CC-PVTZ AUX)
    Blend: AUG-CC-PVTZ-JKFIT

    Orbital Energies [Eh]
    ---------------------

    Doubly Occupied:

       1A    -20.556136     2A    -11.282914     3A    -11.228635
       4A    -11.224260     5A    -11.221086     6A    -11.219136
       7A    -11.215034     8A     -1.354371     9A     -1.089306
      10A     -1.034296    11A     -0.969626    12A     -0.875209
      13A     -0.809677    14A     -0.756808    15A     -0.682087
      16A     -0.633407    17A     -0.625315    18A     -0.597069
      19A     -0.590203    20A     -0.546745    21A     -0.535918
      22A     -0.530688    23A     -0.516902    24A     -0.503122
      25A     -0.481691    26A     -0.461519    27A     -0.445438
      28A     -0.347165

  @DF-RHF Final Energy:  -309.14785081350874

   => Energetics <=

    Nuclear Repulsion Energy =            299.2331366318250048
    One-Electron Energy =               -1012.0944492569287831
    Two-Electron Energy =                 403.7134618115950389
    Total Energy =                       -309.1478508135087395
  Basis Set: (AUG-CC-PVTZ AUX)
    Blend: AUG-CC-PVTZ-RI
    Molecular point group: c1

    Geometry (in Angstrom), charge = 0, multiplicity = 1:

       Center              X                  Y                   Z               Mass
    ------------   -----------------  -----------------  -----------------  -----------------
         O           -2.343326476183    -1.118560410492    -0.116935289947    15.994914619570
         C           -1.518066476183    -0.029502410492     0.320978710053    12.000000000000
         C           -0.174508776183    -0.233295610492    -0.298797289947    12.000000000000
         C            2.332505523817    -0.447734410492    -0.196517289947    12.000000000000
         C            0.971621523817    -0.284464410492     0.406837710053    12.000000000000
         C           -2.090939876183     1.307879289508    -0.132673089947    12.000000000000
         C            3.210914523817     0.783861589508     0.030534710053    12.000000000000
         H           -1.423187476183    -0.043543410492     1.418402710053     1.007825032230
         H           -0.163315476183    -0.387265410492    -1.369382289947     1.007825032230
         H            2.232720523817    -0.642407410492    -1.270101289947     1.007825032230
         H            2.823806523817    -1.326492410492     0.240047710053     1.007825032230
         H            0.934400523817    -0.161879410492     1.491237710053     1.007825032230
         H           -1.478824476183     2.134746589508     0.201001710053     1.007825032230
         H           -2.203248476183     1.323552589508    -1.207316289947     1.007825032230
         H           -3.109266476183     1.447956589508     0.314934710053     1.007825032230
         H            3.327703523817     0.988984589508     1.098672710053     1.007825032230
         H            2.761231523817     1.665526589508    -0.433616289947     1.007825032230
         H            4.207994523817     0.642378589508    -0.395940289947     1.007825032230
         H           -3.243540476183    -0.947935410492     0.215691710053     1.007825032230

  Basis Set: AUG-CC-PVTZ
    Blend: AUG-CC-PVTZ
  Basis Set: (AUG-CC-PVTZ AUX)
    Blend: AUG-CC-PVTZ-JKFIT
	 Reference Energy          =    -309.1478508135087395 [Eh]
	 Singles Energy            =      -0.0000000000000000 [Eh]
	 Same-Spin Energy          =      -0.3166730234129456 [Eh]
	 Opposite-Spin Energy      =      -1.1026864884101710 [Eh]
	 Correlation Energy        =      -1.4193595118231166 [Eh]
	 Total Energy              =    -310.5672103253318710 [Eh]

	 ================> DF-SCS-MP2 Energies <==================
	-----------------------------------------------------------
	 SCS Same-Spin Scale       =       0.3333333333333333 [-]
	 SCS Opposite-Spin Scale   =       1.2000000000000000 [-]
	 SCS Same-Spin Energy      =      -0.1055576744709819 [Eh]
	 SCS Opposite-Spin Energy  =      -1.3232237860922051 [Eh]
	 SCS Correlation Energy    =      -1.4287814605631870 [Eh]
	 SCS Total Energy          =    -310.5766322740719261 [Eh]
	-----------------------------------------------------------

  Dipole Moment: [D]
     X:    -0.0962      Y:     1.3492      Z:     0.8060     Total:     1.5745

*** Psi4 exiting successfully. Buy a developer a beer!
