                               Psi4 1.3.2 release

  ==> Input File <==

--------------------------------------------------------------------------
#psi4
#
memory 32 gb

molecule  {
0 1
  O       -2.3409430    -1.1152500    -0.1201430
  C       -1.5156830    -0.0261920     0.3177710
  C       -0.1677353    -0.2987074    -0.2649584
  C        2.3348890    -0.4444240    -0.1997250
  C        0.9740050    -0.2811540     0.4036300
  C       -2.1532642     1.2960723    -0.0917176
  C        3.2132980     0.7871720     0.0273270
  H       -1.4208040    -0.0402330     1.4151950
  H       -0.1609320    -0.3839550    -1.3725900
  H        2.2351040    -0.6390970    -1.2733090
  H        2.8261900    -1.3231820     0.2368400
  H        0.9367840    -0.1585690     1.4880300
  H       -1.4764410     2.1380570     0.1977940
  H       -2.2008650     1.3268630    -1.2105240
  H       -3.1068830     1.4512670     0.3117270
  H        3.3300870     0.9922950     1.0954650
  H        2.7636150     1.6688370    -0.4368240
  H        4.2103780     0.6456890    -0.3991480
  H       -3.2411570    -0.9446250     0.2124840
units angstrom
no_reorient  #important for SAPT in psi4, default
symmetry c1  #important for SAPT in psi4, default
}

set PROPERTIES_ORIGIN ["COM"]
properties('MP2/aug-cc-pvtz', properties = ['dipole'])
--------------------------------------------------------------------------

    Molecular point group: c1
  Charge       = 0
  Multiplicity = 1
  Basis Set: AUG-CC-PVTZ
    Blend: AUG-CC-PVTZ
  Basis Set: (AUG-CC-PVTZ AUX)
    Blend: AUG-CC-PVTZ-JKFIT

    Orbital Energies [Eh]
    ---------------------

    Doubly Occupied:

       1A    -20.553621     2A    -11.283040     3A    -11.226615
       4A    -11.225106     5A    -11.221114     6A    -11.220519
       7A    -11.215854     8A     -1.353561     9A     -1.091695
      10A     -1.032562    11A     -0.974349    12A     -0.877693
      13A     -0.812303    14A     -0.751495    15A     -0.680867
      16A     -0.633901    17A     -0.625203    18A     -0.600768
      19A     -0.588265    20A     -0.550919    21A     -0.535286
      22A     -0.528792    23A     -0.515679    24A     -0.497573
      25A     -0.482693    26A     -0.463624    27A     -0.439717
      28A     -0.354799

  @DF-RHF Final Energy:  -309.14513957650075

   => Energetics <=

    Nuclear Repulsion Energy =            299.1620883948288565
    One-Electron Energy =               -1011.9392275389539009
    Two-Electron Energy =                 403.6319995676242911
    Total Energy =                       -309.1451395765007533
  Basis Set: (AUG-CC-PVTZ AUX)
    Blend: AUG-CC-PVTZ-RI
    Molecular point group: c1

    Geometry (in Angstrom), charge = 0, multiplicity = 1:

       Center              X                  Y                   Z               Mass
    ------------   -----------------  -----------------  -----------------  -----------------
         O           -2.336094763029    -1.108508586021    -0.126671818449    15.994914619570
         C           -1.510834763029    -0.019450586021     0.311242181551    12.000000000000
         C           -0.162887063029    -0.291965986021    -0.271487218449    12.000000000000
         C            2.339737236971    -0.437682586021    -0.206253818449    12.000000000000
         C            0.978853236971    -0.274412586021     0.397101181551    12.000000000000
         C           -2.148415963029     1.302813713979    -0.098246418449    12.000000000000
         C            3.218146236971     0.793913413979     0.020798181551    12.000000000000
         H           -1.415955763029    -0.033491586021     1.408666181551     1.007825032230
         H           -0.156083763029    -0.377213586021    -1.379118818449     1.007825032230
         H            2.239952236971    -0.632355586021    -1.279837818449     1.007825032230
         H            2.831038236971    -1.316440586021     0.230311181551     1.007825032230
         H            0.941632236971    -0.151827586021     1.481501181551     1.007825032230
         H           -1.471592763029     2.144798413979     0.191265181551     1.007825032230
         H           -2.196016763029     1.333604413979    -1.217052818449     1.007825032230
         H           -3.102034763029     1.458008413979     0.305198181551     1.007825032230
         H            3.334935236971     0.999036413979     1.088936181551     1.007825032230
         H            2.768463236971     1.675578413979    -0.443352818449     1.007825032230
         H            4.215226236971     0.652430413979    -0.405676818449     1.007825032230
         H           -3.236308763029    -0.937883586021     0.205955181551     1.007825032230

  Basis Set: AUG-CC-PVTZ
    Blend: AUG-CC-PVTZ
  Basis Set: (AUG-CC-PVTZ AUX)
    Blend: AUG-CC-PVTZ-JKFIT
	 Reference Energy          =    -309.1451395765007533 [Eh]
	 Singles Energy            =      -0.0000000000000000 [Eh]
	 Same-Spin Energy          =      -0.3164711963832595 [Eh]
	 Opposite-Spin Energy      =      -1.1022874906208249 [Eh]
	 Correlation Energy        =      -1.4187586870040843 [Eh]
	 Total Energy              =    -310.5638982635048251 [Eh]

	 ================> DF-SCS-MP2 Energies <==================
	-----------------------------------------------------------
	 SCS Same-Spin Scale       =       0.3333333333333333 [-]
	 SCS Opposite-Spin Scale   =       1.2000000000000000 [-]
	 SCS Same-Spin Energy      =      -0.1054903987944198 [Eh]
	 SCS Opposite-Spin Energy  =      -1.3227449887449898 [Eh]
	 SCS Correlation Energy    =      -1.4282353875394096 [Eh]
	 SCS Total Energy          =    -310.5733749640401697 [Eh]
	-----------------------------------------------------------

  Dipole Moment: [D]
     X:    -0.0733      Y:     1.4325      Z:     0.8338     Total:     1.6591

*** Psi4 exiting successfully. Buy a developer a beer!
