                               Psi4 1.3.2 release

  ==> Input File <==

--------------------------------------------------------------------------
#psi4
#
memory 32 gb

molecule  {
0 1
  O       -2.3312567    -1.1199460    -0.1265394
  C       -1.5156830    -0.0261920     0.3177710
  C       -0.1747016    -0.2638303    -0.2954975
  C        2.3348890    -0.4444240    -0.1997250
  C        0.9740050    -0.2811540     0.4036300
  C       -2.1103090     1.3065560    -0.1212920
  C        3.2132980     0.7871720     0.0273270
  H       -1.4208040    -0.0402330     1.4151950
  H       -0.1609320    -0.3839550    -1.3725900
  H        2.2351040    -0.6390970    -1.2733090
  H        2.8261900    -1.3231820     0.2368400
  H        0.9367840    -0.1585690     1.4880300
  H       -1.4764410     2.1380570     0.1977940
  H       -2.2008650     1.3268630    -1.2105240
  H       -3.1068830     1.4512670     0.3117270
  H        3.3300870     0.9922950     1.0954650
  H        2.7636150     1.6688370    -0.4368240
  H        4.2103780     0.6456890    -0.3991480
  H       -3.2411570    -0.9446250     0.2124840
units angstrom
no_reorient  #important for SAPT in psi4, default
symmetry c1  #important for SAPT in psi4, default
}

set PROPERTIES_ORIGIN ["COM"]
properties('MP2/aug-cc-pvtz', properties = ['dipole'])
--------------------------------------------------------------------------

    Molecular point group: c1
  Charge       = 0
  Multiplicity = 1
  Basis Set: AUG-CC-PVTZ
    Blend: AUG-CC-PVTZ
  Basis Set: (AUG-CC-PVTZ AUX)
    Blend: AUG-CC-PVTZ-JKFIT

    Orbital Energies [Eh]
    ---------------------

    Doubly Occupied:

       1A    -20.556613     2A    -11.282650     3A    -11.228224
       4A    -11.224206     5A    -11.220907     6A    -11.219644
       7A    -11.215098     8A     -1.352201     9A     -1.088753
      10A     -1.033052    11A     -0.970539    12A     -0.875674
      13A     -0.809027    14A     -0.756163    15A     -0.680065
      16A     -0.632074    17A     -0.624070    18A     -0.597922
      19A     -0.589451    20A     -0.543105    21A     -0.540021
      22A     -0.531228    23A     -0.516083    24A     -0.502210
      25A     -0.481766    26A     -0.463102    27A     -0.443768
      28A     -0.347995

  @DF-RHF Final Energy:  -309.14787238625826

   => Energetics <=

    Nuclear Repulsion Energy =            299.1484298877157926
    One-Electron Energy =               -1011.9413817516490326
    Two-Electron Energy =                 403.6450794776749831
    Total Energy =                       -309.1478723862582569
  Basis Set: (AUG-CC-PVTZ AUX)
    Blend: AUG-CC-PVTZ-RI
    Molecular point group: c1

    Geometry (in Angstrom), charge = 0, multiplicity = 1:

       Center              X                  Y                   Z               Mass
    ------------   -----------------  -----------------  -----------------  -----------------
         O           -2.332271239419    -1.117892597173    -0.124838808681    15.994914619570
         C           -1.516697539419    -0.024138597173     0.319471591319    12.000000000000
         C           -0.175716139419    -0.261776897173    -0.293796908681    12.000000000000
         C            2.333874460581    -0.442370597173    -0.198024408681    12.000000000000
         C            0.972990460581    -0.279100597173     0.405330591319    12.000000000000
         C           -2.111323539419     1.308609402827    -0.119591408681    12.000000000000
         C            3.212283460581     0.789225402827     0.029027591319    12.000000000000
         H           -1.421818539419    -0.038179597173     1.416895591319     1.007825032230
         H           -0.161946539419    -0.381901597173    -1.370889408681     1.007825032230
         H            2.234089460581    -0.637043597173    -1.271608408681     1.007825032230
         H            2.825175460581    -1.321128597173     0.238540591319     1.007825032230
         H            0.935769460581    -0.156515597173     1.489730591319     1.007825032230
         H           -1.477455539419     2.140110402827     0.199494591319     1.007825032230
         H           -2.201879539419     1.328916402827    -1.208823408681     1.007825032230
         H           -3.107897539419     1.453320402827     0.313427591319     1.007825032230
         H            3.329072460581     0.994348402827     1.097165591319     1.007825032230
         H            2.762600460581     1.670890402827    -0.435123408681     1.007825032230
         H            4.209363460581     0.647742402827    -0.397447408681     1.007825032230
         H           -3.242171539419    -0.942571597173     0.214184591319     1.007825032230

  Basis Set: AUG-CC-PVTZ
    Blend: AUG-CC-PVTZ
  Basis Set: (AUG-CC-PVTZ AUX)
    Blend: AUG-CC-PVTZ-JKFIT
	 Reference Energy          =    -309.1478723862582569 [Eh]
	 Singles Energy            =      -0.0000000000000000 [Eh]
	 Same-Spin Energy          =      -0.3167852420342506 [Eh]
	 Opposite-Spin Energy      =      -1.1030166481049752 [Eh]
	 Correlation Energy        =      -1.4198018901392260 [Eh]
	 Total Energy              =    -310.5676742763974971 [Eh]

	 ================> DF-SCS-MP2 Energies <==================
	-----------------------------------------------------------
	 SCS Same-Spin Scale       =       0.3333333333333333 [-]
	 SCS Opposite-Spin Scale   =       1.2000000000000000 [-]
	 SCS Same-Spin Energy      =      -0.1055950806780835 [Eh]
	 SCS Opposite-Spin Energy  =      -1.3236199777259703 [Eh]
	 SCS Correlation Energy    =      -1.4292150584040537 [Eh]
	 SCS Total Energy          =    -310.5770874446623111 [Eh]
	-----------------------------------------------------------

  Dipole Moment: [D]
     X:    -0.1170      Y:     1.3958      Z:     0.8172     Total:     1.6217

*** Psi4 exiting successfully. Buy a developer a beer!
