                               Psi4 1.3.2 release

  ==> Input File <==

--------------------------------------------------------------------------
#psi4
#
memory 32 gb

molecule  {
0 1
  O       -2.3409430    -1.1152500    -0.1201430
  C       -1.5156830    -0.0261920     0.3177710
  C       -0.1702520    -0.2529640    -0.2898400
  C        2.3348890    -0.4444240    -0.1997250
  C        1.1450079    -0.2853668     0.5072653
  C       -2.1103090     1.3065560    -0.1212920
  C        3.2132980     0.7871720     0.0273270
  H       -1.4208040    -0.0402330     1.4151950
  H       -0.1609320    -0.3839550    -1.3725900
  H        2.2351040    -0.6390970    -1.2733090
  H        2.8261900    -1.3231820     0.2368400
  H        0.9367840    -0.1585690     1.4880300
  H       -1.4764410     2.1380570     0.1977940
  H       -2.2008650     1.3268630    -1.2105240
  H       -3.1068830     1.4512670     0.3117270
  H        3.3300870     0.9922950     1.0954650
  H        2.7636150     1.6688370    -0.4368240
  H        4.2103780     0.6456890    -0.3991480
  H       -3.2411570    -0.9446250     0.2124840
units angstrom
no_reorient  #important for SAPT in psi4, default
symmetry c1  #important for SAPT in psi4, default
}

set PROPERTIES_ORIGIN ["COM"]
properties('MP2/aug-cc-pvtz', properties = ['dipole'])
--------------------------------------------------------------------------

    Molecular point group: c1
  Charge       = 0
  Multiplicity = 1
  Basis Set: AUG-CC-PVTZ
    Blend: AUG-CC-PVTZ
  Basis Set: (AUG-CC-PVTZ AUX)
    Blend: AUG-CC-PVTZ-JKFIT

    Orbital Energies [Eh]
    ---------------------

    Doubly Occupied:

       1A    -20.554764     2A    -11.283624     3A    -11.244257
       4A    -11.243085     5A    -11.222536     6A    -11.218715
       7A    -11.216483     8A     -1.353513     9A     -1.094278
      10A     -1.035921    11A     -0.952149    12A     -0.886210
      13A     -0.804840    14A     -0.766713    15A     -0.683072
      16A     -0.636647    17A     -0.624599    18A     -0.605527
      19A     -0.595176    20A     -0.546226    21A     -0.542002
      22A     -0.525824    23A     -0.515970    24A     -0.510617
      25A     -0.490729    26A     -0.456769    27A     -0.441574
      28A     -0.304726

  @DF-RHF Final Energy:  -309.08909917347995

   => Energetics <=

    Nuclear Repulsion Energy =            297.8060817971954748
    One-Electron Energy =               -1009.0772693968232261
    Two-Electron Energy =                 402.1820884261478000
    Total Energy =                       -309.0890991734799513
  Basis Set: (AUG-CC-PVTZ AUX)
    Blend: AUG-CC-PVTZ-RI
    Molecular point group: c1

    Geometry (in Angstrom), charge = 0, multiplicity = 1:

       Center              X                  Y                   Z               Mass
    ------------   -----------------  -----------------  -----------------  -----------------
         O           -2.361445216023    -1.114744763360    -0.132568097668    15.994914619570
         C           -1.536185216023    -0.025686763360     0.305345902332    12.000000000000
         C           -0.190754216023    -0.252458763360    -0.302265097668    12.000000000000
         C            2.314386783977    -0.443918763360    -0.212150097668    12.000000000000
         C            1.124505683977    -0.284861563360     0.494840202332    12.000000000000
         C           -2.130811216023     1.307061236640    -0.133717097668    12.000000000000
         C            3.192795783977     0.787677236640     0.014901902332    12.000000000000
         H           -1.441306216023    -0.039727763360     1.402769902332     1.007825032230
         H           -0.181434216023    -0.383449763360    -1.385015097668     1.007825032230
         H            2.214601783977    -0.638591763360    -1.285734097668     1.007825032230
         H            2.805687783977    -1.322676763360     0.224414902332     1.007825032230
         H            0.916281783977    -0.158063763360     1.475604902332     1.007825032230
         H           -1.496943216023     2.138562236640     0.185368902332     1.007825032230
         H           -2.221367216023     1.327368236640    -1.222949097668     1.007825032230
         H           -3.127385216023     1.451772236640     0.299301902332     1.007825032230
         H            3.309584783977     0.992800236640     1.083039902332     1.007825032230
         H            2.743112783977     1.669342236640    -0.449249097668     1.007825032230
         H            4.189875783977     0.646194236640    -0.411573097668     1.007825032230
         H           -3.261659216023    -0.944119763360     0.200058902332     1.007825032230

  Basis Set: AUG-CC-PVTZ
    Blend: AUG-CC-PVTZ
  Basis Set: (AUG-CC-PVTZ AUX)
    Blend: AUG-CC-PVTZ-JKFIT
	 Reference Energy          =    -309.0890991734799513 [Eh]
	 Singles Energy            =      -0.0000000000000000 [Eh]
	 Same-Spin Energy          =      -0.3212441921249969 [Eh]
	 Opposite-Spin Energy      =      -1.1114701133863858 [Eh]
	 Correlation Energy        =      -1.4327143055113827 [Eh]
	 Total Energy              =    -310.5218134789913620 [Eh]

	 ================> DF-SCS-MP2 Energies <==================
	-----------------------------------------------------------
	 SCS Same-Spin Scale       =       0.3333333333333333 [-]
	 SCS Opposite-Spin Scale   =       1.2000000000000000 [-]
	 SCS Same-Spin Energy      =      -0.1070813973749990 [Eh]
	 SCS Opposite-Spin Energy  =      -1.3337641360636630 [Eh]
	 SCS Correlation Energy    =      -1.4408455334386618 [Eh]
	 SCS Total Energy          =    -310.5299447069186272 [Eh]
	-----------------------------------------------------------

  Dipole Moment: [D]
     X:     0.0674      Y:     1.3560      Z:     0.8427     Total:     1.5979

*** Psi4 exiting successfully. Buy a developer a beer!
