                               Psi4 1.3.2 release

  ==> Input File <==

--------------------------------------------------------------------------
#psi4
#
memory 32 gb

molecule  {
0 1
  O       -2.3409430    -1.1152500    -0.1201430
  C       -1.5156830    -0.0261920     0.3177710
  C       -0.1457035    -0.2595124    -0.3290391
  C        2.3348890    -0.4444240    -0.1997250
  C        0.9740050    -0.2811540     0.4036300
  C       -2.1103090     1.3065560    -0.1212920
  C        3.2132980     0.7871720     0.0273270
  H       -1.4208040    -0.0402330     1.4151950
  H       -0.1609320    -0.3839550    -1.3725900
  H        2.2351040    -0.6390970    -1.2733090
  H        2.8261900    -1.3231820     0.2368400
  H        0.9747368    -0.1619209     1.4890418
  H       -1.4764410     2.1380570     0.1977940
  H       -2.2008650     1.3268630    -1.2105240
  H       -3.1068830     1.4512670     0.3117270
  H        3.3300870     0.9922950     1.0954650
  H        2.7636150     1.6688370    -0.4368240
  H        4.2103780     0.6456890    -0.3991480
  H       -3.2411570    -0.9446250     0.2124840
units angstrom
no_reorient  #important for SAPT in psi4, default
symmetry c1  #important for SAPT in psi4, default
}

set PROPERTIES_ORIGIN ["COM"]
properties('MP2/aug-cc-pvtz', properties = ['dipole'])
--------------------------------------------------------------------------

    Molecular point group: c1
  Charge       = 0
  Multiplicity = 1
  Basis Set: AUG-CC-PVTZ
    Blend: AUG-CC-PVTZ
  Basis Set: (AUG-CC-PVTZ AUX)
    Blend: AUG-CC-PVTZ-JKFIT

    Orbital Energies [Eh]
    ---------------------

    Doubly Occupied:

       1A    -20.554638     2A    -11.284144     3A    -11.227999
       4A    -11.222324     5A    -11.220333     6A    -11.218648
       7A    -11.214608     8A     -1.352877     9A     -1.088639
      10A     -1.029984    11A     -0.970731    12A     -0.872595
      13A     -0.807817    14A     -0.761095    15A     -0.681613
      16A     -0.630319    17A     -0.625029    18A     -0.596276
      19A     -0.592204    20A     -0.545627    21A     -0.541637
      22A     -0.533570    23A     -0.515105    24A     -0.501173
      25A     -0.481959    26A     -0.454945    27A     -0.443085
      28A     -0.350322

  @DF-RHF Final Energy:  -309.14716785599876

   => Energetics <=

    Nuclear Repulsion Energy =            298.8411704928604991
    One-Electron Energy =               -1011.3380786523632651
    Two-Electron Energy =                 403.3497403035039497
    Total Energy =                       -309.1471678559987595
  Basis Set: (AUG-CC-PVTZ AUX)
    Blend: AUG-CC-PVTZ-RI
    Molecular point group: c1

    Geometry (in Angstrom), charge = 0, multiplicity = 1:

       Center              X                  Y                   Z               Mass
    ------------   -----------------  -----------------  -----------------  -----------------
         O           -2.344268441395    -1.114430988751    -0.115453367290    15.994914619570
         C           -1.519008441395    -0.025372988751     0.322460632710    12.000000000000
         C           -0.149028941395    -0.258693388751    -0.324349467290    12.000000000000
         C            2.331563558605    -0.443604988751    -0.195035367290    12.000000000000
         C            0.970679558605    -0.280334988751     0.408319632710    12.000000000000
         C           -2.113634441395     1.307375011249    -0.116602367290    12.000000000000
         C            3.209972558605     0.787991011249     0.032016632710    12.000000000000
         H           -1.424129441395    -0.039413988751     1.419884632710     1.007825032230
         H           -0.164257441395    -0.383135988751    -1.367900367290     1.007825032230
         H            2.231778558605    -0.638277988751    -1.268619367290     1.007825032230
         H            2.822864558605    -1.322362988751     0.241529632710     1.007825032230
         H            0.971411358605    -0.161101888751     1.493731432710     1.007825032230
         H           -1.479766441395     2.138876011249     0.202483632710     1.007825032230
         H           -2.204190441395     1.327682011249    -1.205834367290     1.007825032230
         H           -3.110208441395     1.452086011249     0.316416632710     1.007825032230
         H            3.326761558605     0.993114011249     1.100154632710     1.007825032230
         H            2.760289558605     1.669656011249    -0.432134367290     1.007825032230
         H            4.207052558605     0.646508011249    -0.394458367290     1.007825032230
         H           -3.244482441395    -0.943805988751     0.217173632710     1.007825032230

  Basis Set: AUG-CC-PVTZ
    Blend: AUG-CC-PVTZ
  Basis Set: (AUG-CC-PVTZ AUX)
    Blend: AUG-CC-PVTZ-JKFIT
	 Reference Energy          =    -309.1471678559987595 [Eh]
	 Singles Energy            =      -0.0000000000000000 [Eh]
	 Same-Spin Energy          =      -0.3161955395258798 [Eh]
	 Opposite-Spin Energy      =      -1.1021622159712599 [Eh]
	 Correlation Energy        =      -1.4183577554971396 [Eh]
	 Total Energy              =    -310.5655256114959002 [Eh]

	 ================> DF-SCS-MP2 Energies <==================
	-----------------------------------------------------------
	 SCS Same-Spin Scale       =       0.3333333333333333 [-]
	 SCS Opposite-Spin Scale   =       1.2000000000000000 [-]
	 SCS Same-Spin Energy      =      -0.1053985131752933 [Eh]
	 SCS Opposite-Spin Energy  =      -1.3225946591655118 [Eh]
	 SCS Correlation Energy    =      -1.4279931723408050 [Eh]
	 SCS Total Energy          =    -310.5751610283395507 [Eh]
	-----------------------------------------------------------

  Dipole Moment: [D]
     X:    -0.1014      Y:     1.3675      Z:     0.8112     Total:     1.5932

*** Psi4 exiting successfully. Buy a developer a beer!
