                               Psi4 1.3.2 release

  ==> Input File <==

--------------------------------------------------------------------------
#psi4
#
memory 32 gb

molecule  {
0 1
  O       -2.3409430    -1.1152500    -0.1201430
  C       -1.5156830    -0.0261920     0.3177710
  C       -0.1820053    -0.2497022    -0.2699206
  C        2.3348890    -0.4444240    -0.1997250
  C        0.9740050    -0.2811540     0.4036300
  C       -2.1103090     1.3065560    -0.1212920
  C        3.2132980     0.7871720     0.0273270
  H       -1.4208040    -0.0402330     1.4151950
  H       -0.1609320    -0.3839550    -1.3725900
  H        2.2351040    -0.6390970    -1.2733090
  H        2.8261900    -1.3231820     0.2368400
  H        0.9178217    -0.1569488     1.4870285
  H       -1.4764410     2.1380570     0.1977940
  H       -2.2008650     1.3268630    -1.2105240
  H       -3.1068830     1.4512670     0.3117270
  H        3.3300870     0.9922950     1.0954650
  H        2.7636150     1.6688370    -0.4368240
  H        4.2103780     0.6456890    -0.3991480
  H       -3.2411570    -0.9446250     0.2124840
units angstrom
no_reorient  #important for SAPT in psi4, default
symmetry c1  #important for SAPT in psi4, default
}

set PROPERTIES_ORIGIN ["COM"]
properties('MP2/aug-cc-pvtz', properties = ['dipole'])
--------------------------------------------------------------------------

    Molecular point group: c1
  Charge       = 0
  Multiplicity = 1
  Basis Set: AUG-CC-PVTZ
    Blend: AUG-CC-PVTZ
  Basis Set: (AUG-CC-PVTZ AUX)
    Blend: AUG-CC-PVTZ-JKFIT

    Orbital Energies [Eh]
    ---------------------

    Doubly Occupied:

       1A    -20.555636     2A    -11.282152     3A    -11.227741
       4A    -11.225583     5A    -11.221330     6A    -11.219682
       7A    -11.215604     8A     -1.354687     9A     -1.091008
      10A     -1.035444    11A     -0.971451    12A     -0.877718
      13A     -0.811885    14A     -0.752217    15A     -0.681585
      16A     -0.635225    17A     -0.624838    18A     -0.599331
      19A     -0.588104    20A     -0.543935    21A     -0.539040
      22A     -0.527646    23A     -0.517255    24A     -0.502190
      25A     -0.481925    26A     -0.465462    27A     -0.443875
      28A     -0.349678

  @DF-RHF Final Energy:  -309.14841407074812

   => Energetics <=

    Nuclear Repulsion Energy =            299.4029942076358566
    One-Electron Energy =               -1012.4183604194757891
    Two-Electron Energy =                 403.8669521410918151
    Total Energy =                       -309.1484140707481174
  Basis Set: (AUG-CC-PVTZ AUX)
    Blend: AUG-CC-PVTZ-RI
    Molecular point group: c1

    Geometry (in Angstrom), charge = 0, multiplicity = 1:

       Center              X                  Y                   Z               Mass
    ------------   -----------------  -----------------  -----------------  -----------------
         O           -2.339342995306    -1.115657233730    -0.122521019613    15.994914619570
         C           -1.514082995306    -0.026599233730     0.315392980387    12.000000000000
         C           -0.180405295306    -0.250109433730    -0.272298619613    12.000000000000
         C            2.336489004694    -0.444831233730    -0.202103019613    12.000000000000
         C            0.975605004694    -0.281561233730     0.401251980387    12.000000000000
         C           -2.108708995306     1.306148766270    -0.123670019613    12.000000000000
         C            3.214898004694     0.786764766270     0.024948980387    12.000000000000
         H           -1.419203995306    -0.040640233730     1.412816980387     1.007825032230
         H           -0.159331995306    -0.384362233730    -1.374968019613     1.007825032230
         H            2.236704004694    -0.639504233730    -1.275687019613     1.007825032230
         H            2.827790004694    -1.323589233730     0.234461980387     1.007825032230
         H            0.919421704694    -0.157356033730     1.484650480387     1.007825032230
         H           -1.474840995306     2.137649766270     0.195415980387     1.007825032230
         H           -2.199264995306     1.326455766270    -1.212902019613     1.007825032230
         H           -3.105282995306     1.450859766270     0.309348980387     1.007825032230
         H            3.331687004694     0.991887766270     1.093086980387     1.007825032230
         H            2.765215004694     1.668429766270    -0.439202019613     1.007825032230
         H            4.211978004694     0.645281766270    -0.401526019613     1.007825032230
         H           -3.239556995306    -0.945032233730     0.210105980387     1.007825032230

  Basis Set: AUG-CC-PVTZ
    Blend: AUG-CC-PVTZ
  Basis Set: (AUG-CC-PVTZ AUX)
    Blend: AUG-CC-PVTZ-JKFIT
	 Reference Energy          =    -309.1484140707481174 [Eh]
	 Singles Energy            =      -0.0000000000000000 [Eh]
	 Same-Spin Energy          =      -0.3167683947259249 [Eh]
	 Opposite-Spin Energy      =      -1.1026279421404743 [Eh]
	 Correlation Energy        =      -1.4193963368663991 [Eh]
	 Total Energy              =    -310.5678104076145019 [Eh]

	 ================> DF-SCS-MP2 Energies <==================
	-----------------------------------------------------------
	 SCS Same-Spin Scale       =       0.3333333333333333 [-]
	 SCS Opposite-Spin Scale   =       1.2000000000000000 [-]
	 SCS Same-Spin Energy      =      -0.1055894649086416 [Eh]
	 SCS Opposite-Spin Energy  =      -1.3231535305685691 [Eh]
	 SCS Correlation Energy    =      -1.4287429954772106 [Eh]
	 SCS Total Energy          =    -310.5771570662253112 [Eh]
	-----------------------------------------------------------

  Dipole Moment: [D]
     X:    -0.0898      Y:     1.3856      Z:     0.8177     Total:     1.6113

*** Psi4 exiting successfully. Buy a developer a beer!
