                               Psi4 1.4a3.dev225

  ==> Input File <==

--------------------------------------------------------------------------
#psi4
#
memory 32 gb

molecule  {
0 1
  O       -2.4334040    -1.0537050    -0.1031880
  C       -1.5599110     0.0061750     0.3163080
  C       -0.2252920    -0.2882920    -0.2906650
  C        2.2718840    -0.5904540    -0.1973150
  C        0.9364848    -0.3613538     0.3959757
  C       -2.0985830     1.3582810    -0.1413790
  C        3.2072160     0.6032460     0.0168350
  H       -1.4627270     0.0051460     1.4138490
  H       -0.2231950    -0.4335060    -1.3719210
  H        2.1635620    -0.7923810    -1.2691220
  H        2.7222980    -1.4861610     0.2495370
  H        0.8868390    -0.2195170     1.4869310
  H       -1.4287050     2.1666040     0.1650490
  H       -2.1908800     1.3667930    -1.2308750
  H       -3.0873820     1.5512680     0.2912850
  H        3.3343300     0.8133780     1.0831920
  H        2.7976640     1.4999730    -0.4563300
  H        4.1964720     0.4112550    -0.4090930
  H       -3.3235000    -0.8374140     0.2263080
units angstrom
no_reorient  #important for SAPT in psi4, default
symmetry c1  #important for SAPT in psi4, default
}

set PROPERTIES_ORIGIN ["COM"]
properties('MP2/aug-cc-pvtz', properties = ['dipole'])
--------------------------------------------------------------------------

    Molecular point group: c1
  Charge       = 0
  Multiplicity = 1
  Basis Set: AUG-CC-PVTZ
    Blend: AUG-CC-PVTZ
  Basis Set: (AUG-CC-PVTZ AUX)
    Blend: AUG-CC-PVTZ-JKFIT

    Orbital Energies [Eh]
    ---------------------

    Doubly Occupied:

       1A    -20.555374     2A    -11.283851     3A    -11.229841
       4A    -11.224319     5A    -11.222920     6A    -11.219803
       7A    -11.215977     8A     -1.354022     9A     -1.089970
      10A     -1.034168    11A     -0.969539    12A     -0.877592
      13A     -0.810373    14A     -0.753719    15A     -0.681238
      16A     -0.633786    17A     -0.624571    18A     -0.599019
      19A     -0.589340    20A     -0.543251    21A     -0.539400
      22A     -0.529002    23A     -0.517207    24A     -0.502793
      25A     -0.481100    26A     -0.465998    27A     -0.443713
      28A     -0.346327

  @DF-RHF Final Energy:  -309.14808095983039

   => Energetics <=

    Nuclear Repulsion Energy =            298.9043423573342579
    One-Electron Energy =               -1011.4284191304802789
    Two-Electron Energy =                 403.3759958133156260
    Total Energy =                       -309.1480809598303949
  Basis Set: (AUG-CC-PVTZ AUX)
    Blend: AUG-CC-PVTZ-RI
    Molecular point group: c1

    Geometry (in Angstrom), charge = 0, multiplicity = 1:

       Center              X                  Y                   Z               Mass
    ------------   -----------------  -----------------  -----------------  -----------------
         O           -2.392226405869    -1.013284884863    -0.100458847340    15.994914619570
         C           -1.518733405869     0.046595115137     0.319037152660    12.000000000000
         C           -0.184114405869    -0.247871884863    -0.287935847340    12.000000000000
         C            2.313061594131    -0.550033884863    -0.194585847340    12.000000000000
         C            0.977662394131    -0.320933684863     0.398704852660    12.000000000000
         C           -2.057405405869     1.398701115137    -0.138649847340    12.000000000000
         C            3.248393594131     0.643666115137     0.019564152660    12.000000000000
         H           -1.421549405869     0.045566115137     1.416578152660     1.007825032230
         H           -0.182017405869    -0.393085884863    -1.369191847340     1.007825032230
         H            2.204739594131    -0.751960884863    -1.266392847340     1.007825032230
         H            2.763475594131    -1.445740884863     0.252266152660     1.007825032230
         H            0.928016594131    -0.179096884863     1.489660152660     1.007825032230
         H           -1.387527405869     2.207024115137     0.167778152660     1.007825032230
         H           -2.149702405869     1.407213115137    -1.228145847340     1.007825032230
         H           -3.046204405869     1.591688115137     0.294014152660     1.007825032230
         H            3.375507594131     0.853798115137     1.085921152660     1.007825032230
         H            2.838841594131     1.540393115137    -0.453600847340     1.007825032230
         H            4.237649594131     0.451675115137    -0.406363847340     1.007825032230
         H           -3.282322405869    -0.796993884863     0.229037152660     1.007825032230

  Basis Set: AUG-CC-PVTZ
    Blend: AUG-CC-PVTZ
  Basis Set: (AUG-CC-PVTZ AUX)
    Blend: AUG-CC-PVTZ-JKFIT
	 Reference Energy          =    -309.1480809598303949 [Eh]
	 Singles Energy            =      -0.0000000000000000 [Eh]
	 Same-Spin Energy          =      -0.3167850391751953 [Eh]
	 Opposite-Spin Energy      =      -1.1028905902604569 [Eh]
	 Correlation Energy        =      -1.4196756294356523 [Eh]
	 Total Energy              =    -310.5677565892660255 [Eh]

	 ================> DF-SCS-MP2 Energies <==================
	-----------------------------------------------------------
	 SCS Same-Spin Scale       =       0.3333333333333333 [-]
	 SCS Opposite-Spin Scale   =       1.2000000000000000 [-]
	 SCS Same-Spin Energy      =      -0.1055950130583984 [Eh]
	 SCS Opposite-Spin Energy  =      -1.3234687083125483 [Eh]
	 SCS Correlation Energy    =      -1.4290637213709467 [Eh]
	 SCS Total Energy          =    -310.5771446812013323 [Eh]
	-----------------------------------------------------------

  Dipole Moment: [D]
     X:    -0.0103      Y:     1.3976      Z:     0.7867     Total:     1.6039

*** Psi4 exiting successfully. Buy a developer a beer!
