                               Psi4 1.4a3.dev225

  ==> Input File <==

--------------------------------------------------------------------------
#psi4
#
memory 32 gb

molecule  {
0 1
  O       -2.4334040    -1.0537050    -0.1031880
  C       -1.5599110     0.0061750     0.3163080
  C       -0.2252920    -0.2882920    -0.2906650
  C        2.2718840    -0.5904540    -0.1973150
  C        0.9184280    -0.3582560     0.4039980
  C       -2.0985830     1.3582810    -0.1413790
  C        3.2072160     0.6032460     0.0168350
  H       -1.4609630     0.0051273     1.4337710
  H       -0.2231950    -0.4335060    -1.3719210
  H        2.1635620    -0.7923810    -1.2691220
  H        2.7222980    -1.4861610     0.2495370
  H        0.8868390    -0.2195170     1.4869310
  H       -1.4287050     2.1666040     0.1650490
  H       -2.1908800     1.3667930    -1.2308750
  H       -3.0873820     1.5512680     0.2912850
  H        3.3343300     0.8133780     1.0831920
  H        2.7976640     1.4999730    -0.4563300
  H        4.1964720     0.4112550    -0.4090930
  H       -3.3235000    -0.8374140     0.2263080
units angstrom
no_reorient  #important for SAPT in psi4, default
symmetry c1  #important for SAPT in psi4, default
}

set PROPERTIES_ORIGIN ["COM"]
properties('MP2/aug-cc-pvtz', properties = ['dipole'])
--------------------------------------------------------------------------

    Molecular point group: c1
  Charge       = 0
  Multiplicity = 1
  Basis Set: AUG-CC-PVTZ
    Blend: AUG-CC-PVTZ
  Basis Set: (AUG-CC-PVTZ AUX)
    Blend: AUG-CC-PVTZ-JKFIT

    Orbital Energies [Eh]
    ---------------------

    Doubly Occupied:

       1A    -20.555624     2A    -11.285842     3A    -11.228321
       4A    -11.224967     5A    -11.221633     6A    -11.219919
       7A    -11.215620     8A     -1.354117     9A     -1.089197
      10A     -1.032714    11A     -0.970836    12A     -0.875485
      13A     -0.809576    14A     -0.753562    15A     -0.680320
      16A     -0.633170    17A     -0.624464    18A     -0.598063
      19A     -0.588787    20A     -0.542980    21A     -0.539862
      22A     -0.531143    23A     -0.516153    24A     -0.501525
      25A     -0.482100    26A     -0.462669    27A     -0.442587
      28A     -0.349643

  @DF-RHF Final Energy:  -309.14871461267137

   => Energetics <=

    Nuclear Repulsion Energy =            298.8264374893196305
    One-Electron Energy =               -1011.2885452099342274
    Two-Electron Energy =                 403.3133931079431704
    Total Energy =                       -309.1487146126713697
  Basis Set: (AUG-CC-PVTZ AUX)
    Blend: AUG-CC-PVTZ-RI
    Molecular point group: c1

    Geometry (in Angstrom), charge = 0, multiplicity = 1:

       Center              X                  Y                   Z               Mass
    ------------   -----------------  -----------------  -----------------  -----------------
         O           -2.390079274877    -1.013656102703    -0.101621269837    15.994914619570
         C           -1.516586274877     0.046223897297     0.317874730163    12.000000000000
         C           -0.181967274877    -0.248243102703    -0.289098269837    12.000000000000
         C            2.315208725123    -0.550405102703    -0.195748269837    12.000000000000
         C            0.961752725123    -0.318207102703     0.405564730163    12.000000000000
         C           -2.055258274877     1.398329897297    -0.139812269837    12.000000000000
         C            3.250540725123     0.643294897297     0.018401730163    12.000000000000
         H           -1.417638274877     0.045176197297     1.435337730163     1.007825032230
         H           -0.179870274877    -0.393457102703    -1.370354269837     1.007825032230
         H            2.206886725123    -0.752332102703    -1.267555269837     1.007825032230
         H            2.765622725123    -1.446112102703     0.251103730163     1.007825032230
         H            0.930163725123    -0.179468102703     1.488497730163     1.007825032230
         H           -1.385380274877     2.206652897297     0.166615730163     1.007825032230
         H           -2.147555274877     1.406841897297    -1.229308269837     1.007825032230
         H           -3.044057274877     1.591316897297     0.292851730163     1.007825032230
         H            3.377654725123     0.853426897297     1.084758730163     1.007825032230
         H            2.840988725123     1.540021897297    -0.454763269837     1.007825032230
         H            4.239796725123     0.451303897297    -0.407526269837     1.007825032230
         H           -3.280175274877    -0.797365102703     0.227874730163     1.007825032230

  Basis Set: AUG-CC-PVTZ
    Blend: AUG-CC-PVTZ
  Basis Set: (AUG-CC-PVTZ AUX)
    Blend: AUG-CC-PVTZ-JKFIT
	 Reference Energy          =    -309.1487146126713697 [Eh]
	 Singles Energy            =      -0.0000000000000000 [Eh]
	 Same-Spin Energy          =      -0.3165056092353598 [Eh]
	 Opposite-Spin Energy      =      -1.1025862717752601 [Eh]
	 Correlation Energy        =      -1.4190918810106199 [Eh]
	 Total Energy              =    -310.5678064936819851 [Eh]

	 ================> DF-SCS-MP2 Energies <==================
	-----------------------------------------------------------
	 SCS Same-Spin Scale       =       0.3333333333333333 [-]
	 SCS Opposite-Spin Scale   =       1.2000000000000000 [-]
	 SCS Same-Spin Energy      =      -0.1055018697451199 [Eh]
	 SCS Opposite-Spin Energy  =      -1.3231035261303121 [Eh]
	 SCS Correlation Energy    =      -1.4286053958754321 [Eh]
	 SCS Total Energy          =    -310.5773200085467920 [Eh]
	-----------------------------------------------------------

  Dipole Moment: [D]
     X:    -0.0319      Y:     1.3960      Z:     0.7740     Total:     1.5965

*** Psi4 exiting successfully. Buy a developer a beer!
