                               Psi4 1.3.2 release

  ==> Input File <==

--------------------------------------------------------------------------
#psi4
#
memory 32 gb

molecule  {
0 1
  O       -2.3409430    -1.1152500    -0.1201430
  C       -1.5156830    -0.0261920     0.3177710
  C       -0.1702520    -0.2529640    -0.2898400
  C        2.3348890    -0.4444240    -0.1997250
  C        0.9773565    -0.2692389     0.4078237
  C       -2.1103090     1.3065560    -0.1212920
  C        3.2032769     0.7930320     0.0339176
  H       -1.4208040    -0.0402330     1.4151950
  H       -0.1609320    -0.3839550    -1.3725900
  H        2.2351040    -0.6390970    -1.2733090
  H        2.8261900    -1.3231820     0.2368400
  H        0.9367840    -0.1585690     1.4880300
  H       -1.4764410     2.1380570     0.1977940
  H       -2.2008650     1.3268630    -1.2105240
  H       -3.1068830     1.4512670     0.3117270
  H        3.3300870     0.9922950     1.0954650
  H        2.7636150     1.6688370    -0.4368240
  H        4.2103780     0.6456890    -0.3991480
  H       -3.2411570    -0.9446250     0.2124840
units angstrom
no_reorient  #important for SAPT in psi4, default
symmetry c1  #important for SAPT in psi4, default
}

set PROPERTIES_ORIGIN ["COM"]
properties('MP2/aug-cc-pvtz', properties = ['dipole'])
--------------------------------------------------------------------------

    Molecular point group: c1
  Charge       = 0
  Multiplicity = 1
  Basis Set: AUG-CC-PVTZ
    Blend: AUG-CC-PVTZ
  Basis Set: (AUG-CC-PVTZ AUX)
    Blend: AUG-CC-PVTZ-JKFIT

    Orbital Energies [Eh]
    ---------------------

    Doubly Occupied:

       1A    -20.555243     2A    -11.282686     3A    -11.227746
       4A    -11.224524     5A    -11.221408     6A    -11.219190
       7A    -11.215017     8A     -1.354013     9A     -1.089673
      10A     -1.033614    11A     -0.970358    12A     -0.875577
      13A     -0.810117    14A     -0.755877    15A     -0.681851
      16A     -0.633721    17A     -0.624401    18A     -0.598198
      19A     -0.589260    20A     -0.542441    21A     -0.540423
      22A     -0.529939    23A     -0.517183    24A     -0.501285
      25A     -0.483994    26A     -0.462150    27A     -0.443674
      28A     -0.348413

  @DF-RHF Final Energy:  -309.14888782033660

   => Energetics <=

    Nuclear Repulsion Energy =            299.2400609001700786
    One-Electron Energy =               -1012.1139471117083986
    Two-Electron Energy =                 403.7249983912017228
    Total Energy =                       -309.1488878203365971
  Basis Set: (AUG-CC-PVTZ AUX)
    Blend: AUG-CC-PVTZ-RI
    Molecular point group: c1

    Geometry (in Angstrom), charge = 0, multiplicity = 1:

       Center              X                  Y                   Z               Mass
    ------------   -----------------  -----------------  -----------------  -----------------
         O           -2.340143435201    -1.117380970012    -0.121435864761    15.994914619570
         C           -1.514883435201    -0.028322970012     0.316478135239    12.000000000000
         C           -0.169452435201    -0.255094970012    -0.291132864761    12.000000000000
         C            2.335688564799    -0.446554970012    -0.201017864761    12.000000000000
         C            0.978156064799    -0.271369870012     0.406530835239    12.000000000000
         C           -2.109509435201     1.304425029988    -0.122584864761    12.000000000000
         C            3.204076464799     0.790901029988     0.032624735239    12.000000000000
         H           -1.420004435201    -0.042363970012     1.413902135239     1.007825032230
         H           -0.160132435201    -0.386085970012    -1.373882864761     1.007825032230
         H            2.235903564799    -0.641227970012    -1.274601864761     1.007825032230
         H            2.826989564799    -1.325312970012     0.235547135239     1.007825032230
         H            0.937583564799    -0.160699970012     1.486737135239     1.007825032230
         H           -1.475641435201     2.135926029988     0.196501135239     1.007825032230
         H           -2.200065435201     1.324732029988    -1.211816864761     1.007825032230
         H           -3.106083435201     1.449136029988     0.310434135239     1.007825032230
         H            3.330886564799     0.990164029988     1.094172135239     1.007825032230
         H            2.764414564799     1.666706029988    -0.438116864761     1.007825032230
         H            4.211177564799     0.643558029988    -0.400440864761     1.007825032230
         H           -3.240357435201    -0.946755970012     0.211191135239     1.007825032230

  Basis Set: AUG-CC-PVTZ
    Blend: AUG-CC-PVTZ
  Basis Set: (AUG-CC-PVTZ AUX)
    Blend: AUG-CC-PVTZ-JKFIT
	 Reference Energy          =    -309.1488878203365971 [Eh]
	 Singles Energy            =      -0.0000000000000000 [Eh]
	 Same-Spin Energy          =      -0.3165997745297497 [Eh]
	 Opposite-Spin Energy      =      -1.1025312320173499 [Eh]
	 Correlation Energy        =      -1.4191310065470997 [Eh]
	 Total Energy              =    -310.5680188268837014 [Eh]

	 ================> DF-SCS-MP2 Energies <==================
	-----------------------------------------------------------
	 SCS Same-Spin Scale       =       0.3333333333333333 [-]
	 SCS Opposite-Spin Scale   =       1.2000000000000000 [-]
	 SCS Same-Spin Energy      =      -0.1055332581765832 [Eh]
	 SCS Opposite-Spin Energy  =      -1.3230374784208199 [Eh]
	 SCS Correlation Energy    =      -1.4285707365974032 [Eh]
	 SCS Total Energy          =    -310.5774585569340047 [Eh]
	-----------------------------------------------------------

  Dipole Moment: [D]
     X:    -0.0966      Y:     1.3668      Z:     0.8212     Total:     1.5975

*** Psi4 exiting successfully. Buy a developer a beer!
