                               Psi4 1.3.2 release

  ==> Input File <==

--------------------------------------------------------------------------
#psi4
#
memory 32 gb

molecule  {
0 1
  O       -2.3505665    -1.1104710    -0.1137133
  C       -1.5156830    -0.0261920     0.3177710
  C       -0.1659048    -0.2420804    -0.2841362
  C        2.3348890    -0.4444240    -0.1997250
  C        0.9740050    -0.2811540     0.4036300
  C       -2.1103090     1.3065560    -0.1212920
  C        3.2132980     0.7871720     0.0273270
  H       -1.4208040    -0.0402330     1.4151950
  H       -0.1609320    -0.3839550    -1.3725900
  H        2.2351040    -0.6390970    -1.2733090
  H        2.8261900    -1.3231820     0.2368400
  H        0.9367840    -0.1585690     1.4880300
  H       -1.4764410     2.1380570     0.1977940
  H       -2.2008650     1.3268630    -1.2105240
  H       -3.1068830     1.4512670     0.3117270
  H        3.3300870     0.9922950     1.0954650
  H        2.7636150     1.6688370    -0.4368240
  H        4.2103780     0.6456890    -0.3991480
  H       -3.2411570    -0.9446250     0.2124840
units angstrom
no_reorient  #important for SAPT in psi4, default
symmetry c1  #important for SAPT in psi4, default
}

set PROPERTIES_ORIGIN ["COM"]
properties('MP2/aug-cc-pvtz', properties = ['dipole'])
--------------------------------------------------------------------------

    Molecular point group: c1
  Charge       = 0
  Multiplicity = 1
  Basis Set: AUG-CC-PVTZ
    Blend: AUG-CC-PVTZ
  Basis Set: (AUG-CC-PVTZ AUX)
    Blend: AUG-CC-PVTZ-JKFIT

    Orbital Energies [Eh]
    ---------------------

    Doubly Occupied:

       1A    -20.553960     2A    -11.283043     3A    -11.227185
       4A    -11.224732     5A    -11.220897     6A    -11.219007
       7A    -11.215405     8A     -1.356059     9A     -1.091319
      10A     -1.034123    11A     -0.971790    12A     -0.876096
      13A     -0.811823    14A     -0.753954    15A     -0.683249
      16A     -0.635227    17A     -0.624990    18A     -0.598618
      19A     -0.589036    20A     -0.543133    21A     -0.539517
      22A     -0.531163    23A     -0.516863    24A     -0.501545
      25A     -0.482141    26A     -0.462100    27A     -0.443632
      28A     -0.351637

  @DF-RHF Final Energy:  -309.15036952978789

   => Energetics <=

    Nuclear Repulsion Energy =            299.2789791434494191
    One-Electron Energy =               -1012.1742159975444793
    Two-Electron Energy =                 403.7448673243071653
    Total Energy =                       -309.1503695297878949
  Basis Set: (AUG-CC-PVTZ AUX)
    Blend: AUG-CC-PVTZ-RI
    Molecular point group: c1

    Geometry (in Angstrom), charge = 0, multiplicity = 1:

       Center              X                  Y                   Z               Mass
    ------------   -----------------  -----------------  -----------------  -----------------
         O           -2.349549873376    -1.112539442516    -0.115424558190    15.994914619570
         C           -1.514666373376    -0.028260442516     0.316059741810    12.000000000000
         C           -0.164888173376    -0.244148842516    -0.285847458190    12.000000000000
         C            2.335905626624    -0.446492442516    -0.201436258190    12.000000000000
         C            0.975021626624    -0.283222442516     0.401918741810    12.000000000000
         C           -2.109292373376     1.304487557484    -0.123003258190    12.000000000000
         C            3.214314626624     0.785103557484     0.025615741810    12.000000000000
         H           -1.419787373376    -0.042301442516     1.413483741810     1.007825032230
         H           -0.159915373376    -0.386023442516    -1.374301258190     1.007825032230
         H            2.236120626624    -0.641165442516    -1.275020258190     1.007825032230
         H            2.827206626624    -1.325250442516     0.235128741810     1.007825032230
         H            0.937800626624    -0.160637442516     1.486318741810     1.007825032230
         H           -1.475424373376     2.135988557484     0.196082741810     1.007825032230
         H           -2.199848373376     1.324794557484    -1.212235258190     1.007825032230
         H           -3.105866373376     1.449198557484     0.310015741810     1.007825032230
         H            3.331103626624     0.990226557484     1.093753741810     1.007825032230
         H            2.764631626624     1.666768557484    -0.438535258190     1.007825032230
         H            4.211394626624     0.643620557484    -0.400859258190     1.007825032230
         H           -3.240140373376    -0.946693442516     0.210772741810     1.007825032230

  Basis Set: AUG-CC-PVTZ
    Blend: AUG-CC-PVTZ
  Basis Set: (AUG-CC-PVTZ AUX)
    Blend: AUG-CC-PVTZ-JKFIT
	 Reference Energy          =    -309.1503695297878949 [Eh]
	 Singles Energy            =      -0.0000000000000000 [Eh]
	 Same-Spin Energy          =      -0.3162945908572977 [Eh]
	 Opposite-Spin Energy      =      -1.1017683014105517 [Eh]
	 Correlation Energy        =      -1.4180628922678493 [Eh]
	 Total Energy              =    -310.5684324220557642 [Eh]

	 ================> DF-SCS-MP2 Energies <==================
	-----------------------------------------------------------
	 SCS Same-Spin Scale       =       0.3333333333333333 [-]
	 SCS Opposite-Spin Scale   =       1.2000000000000000 [-]
	 SCS Same-Spin Energy      =      -0.1054315302857659 [Eh]
	 SCS Opposite-Spin Energy  =      -1.3221219616926621 [Eh]
	 SCS Correlation Energy    =      -1.4275534919784278 [Eh]
	 SCS Total Energy          =    -310.5779230217663098 [Eh]
	-----------------------------------------------------------

  Dipole Moment: [D]
     X:    -0.0724      Y:     1.3628      Z:     0.8111     Total:     1.5876

*** Psi4 exiting successfully. Buy a developer a beer!
