                               Psi4 1.3.2 release

  ==> Input File <==

--------------------------------------------------------------------------
#psi4
#
memory 32 gb

molecule  {
0 1
  O       -2.3409430    -1.1152500    -0.1201430
  C       -1.5156830    -0.0261920     0.3177710
  C       -0.1702520    -0.2529640    -0.2898400
  C        2.3348890    -0.4444240    -0.1997250
  C        0.8831319    -0.2702516     0.4439191
  C       -2.1103090     1.3065560    -0.1212920
  C        3.2132980     0.7871720     0.0273270
  H       -1.4208040    -0.0402330     1.4151950
  H       -0.1609320    -0.3839550    -1.3725900
  H        2.2351040    -0.6390970    -1.2733090
  H        2.8261900    -1.3231820     0.2368400
  H        0.9367840    -0.1585690     1.4880300
  H       -1.4764410     2.1380570     0.1977940
  H       -2.2008650     1.3268630    -1.2105240
  H       -3.1068830     1.4512670     0.3117270
  H        3.3300870     0.9922950     1.0954650
  H        2.7636150     1.6688370    -0.4368240
  H        4.2103780     0.6456890    -0.3991480
  H       -3.2411570    -0.9446250     0.2124840
units angstrom
no_reorient  #important for SAPT in psi4, default
symmetry c1  #important for SAPT in psi4, default
}

set PROPERTIES_ORIGIN ["COM"]
properties('MP2/aug-cc-pvtz', properties = ['dipole'])
--------------------------------------------------------------------------

    Molecular point group: c1
  Charge       = 0
  Multiplicity = 1
  Basis Set: AUG-CC-PVTZ
    Blend: AUG-CC-PVTZ
  Basis Set: (AUG-CC-PVTZ AUX)
    Blend: AUG-CC-PVTZ-JKFIT

    Orbital Energies [Eh]
    ---------------------

    Doubly Occupied:

       1A    -20.554589     2A    -11.280391     3A    -11.226818
       4A    -11.220857     5A    -11.218786     6A    -11.214123
       7A    -11.213642     8A     -1.353471     9A     -1.091816
      10A     -1.027245    11A     -0.976703    12A     -0.867546
      13A     -0.809460    14A     -0.761214    15A     -0.683586
      16A     -0.631176    17A     -0.624941    18A     -0.594731
      19A     -0.587243    20A     -0.551271    21A     -0.542197
      22A     -0.533648    23A     -0.511807    24A     -0.498931
      25A     -0.483127    26A     -0.444859    27A     -0.439347
      28A     -0.365948

  @DF-RHF Final Energy:  -309.14138522138006

   => Energetics <=

    Nuclear Repulsion Energy =            299.3889143695558346
    One-Electron Energy =               -1012.4416604718991266
    Two-Electron Energy =                 403.9113608809631728
    Total Energy =                       -309.1413852213800624
  Basis Set: (AUG-CC-PVTZ AUX)
    Blend: AUG-CC-PVTZ-RI
    Molecular point group: c1

    Geometry (in Angstrom), charge = 0, multiplicity = 1:

       Center              X                  Y                   Z               Mass
    ------------   -----------------  -----------------  -----------------  -----------------
         O           -2.330047981479    -1.116556977841    -0.124973298989    15.994914619570
         C           -1.504787981479    -0.027498977841     0.312940701011    12.000000000000
         C           -0.159356981479    -0.254270977841    -0.294670298989    12.000000000000
         C            2.345784018521    -0.445730977841    -0.204555298989    12.000000000000
         C            0.894026918521    -0.271558577841     0.439088801011    12.000000000000
         C           -2.099413981479     1.305249022159    -0.126122298989    12.000000000000
         C            3.224193018521     0.785865022159     0.022496701011    12.000000000000
         H           -1.409908981479    -0.041539977841     1.410364701011     1.007825032230
         H           -0.150036981479    -0.385261977841    -1.377420298989     1.007825032230
         H            2.245999018521    -0.640403977841    -1.278139298989     1.007825032230
         H            2.837085018521    -1.324488977841     0.232009701011     1.007825032230
         H            0.947679018521    -0.159875977841     1.483199701011     1.007825032230
         H           -1.465545981479     2.136750022159     0.192963701011     1.007825032230
         H           -2.189969981479     1.325556022159    -1.215354298989     1.007825032230
         H           -3.095987981479     1.449960022159     0.306896701011     1.007825032230
         H            3.340982018521     0.990988022159     1.090634701011     1.007825032230
         H            2.774510018521     1.667530022159    -0.441654298989     1.007825032230
         H            4.221273018521     0.644382022159    -0.403978298989     1.007825032230
         H           -3.230261981479    -0.945931977841     0.207653701011     1.007825032230

  Basis Set: AUG-CC-PVTZ
    Blend: AUG-CC-PVTZ
  Basis Set: (AUG-CC-PVTZ AUX)
    Blend: AUG-CC-PVTZ-JKFIT
	 Reference Energy          =    -309.1413852213800624 [Eh]
	 Singles Energy            =      -0.0000000000000000 [Eh]
	 Same-Spin Energy          =      -0.3155595686331834 [Eh]
	 Opposite-Spin Energy      =      -1.1009775842569294 [Eh]
	 Correlation Energy        =      -1.4165371528901127 [Eh]
	 Total Energy              =    -310.5579223742701629 [Eh]

	 ================> DF-SCS-MP2 Energies <==================
	-----------------------------------------------------------
	 SCS Same-Spin Scale       =       0.3333333333333333 [-]
	 SCS Opposite-Spin Scale   =       1.2000000000000000 [-]
	 SCS Same-Spin Energy      =      -0.1051865228777278 [Eh]
	 SCS Opposite-Spin Energy  =      -1.3211731011083152 [Eh]
	 SCS Correlation Energy    =      -1.4263596239860430 [Eh]
	 SCS Total Energy          =    -310.5677448453661214 [Eh]
	-----------------------------------------------------------

  Dipole Moment: [D]
     X:    -0.1800      Y:     1.3815      Z:     0.8339     Total:     1.6237

*** Psi4 exiting successfully. Buy a developer a beer!
