                               Psi4 1.4a3.dev225

  ==> Input File <==

--------------------------------------------------------------------------
#psi4
#
memory 32 gb

molecule  {
0 1
  O       -2.4334040    -1.0537050    -0.1031880
  C       -1.5599110     0.0061750     0.3163080
  C       -0.2252920    -0.2882920    -0.2906650
  C        2.2718840    -0.5904540    -0.1973150
  C        0.9184280    -0.3582560     0.4039980
  C       -2.0985830     1.3582810    -0.1413790
  C        3.2072160     0.6032460     0.0168350
  H       -1.4627270     0.0051460     1.4138490
  H       -0.2231950    -0.4335060    -1.3719210
  H        2.1635620    -0.7923810    -1.2691220
  H        2.7222980    -1.4861610     0.2495370
  H        0.8868390    -0.2195170     1.4869310
  H       -1.4287050     2.1666040     0.1650490
  H       -2.1908800     1.3667930    -1.2308750
  H       -3.0873820     1.5512680     0.2912850
  H        3.3343300     0.8133780     1.0831920
  H        2.7976640     1.4999730    -0.4563300
  H        4.1964720     0.4112550    -0.4090930
  H       -3.3692183    -0.8263046     0.2432320
units angstrom
no_reorient  #important for SAPT in psi4, default
symmetry c1  #important for SAPT in psi4, default
}

set PROPERTIES_ORIGIN ["COM"]
properties('MP2/aug-cc-pvtz', properties = ['dipole'])
--------------------------------------------------------------------------

    Molecular point group: c1
  Charge       = 0
  Multiplicity = 1
  Basis Set: AUG-CC-PVTZ
    Blend: AUG-CC-PVTZ
  Basis Set: (AUG-CC-PVTZ AUX)
    Blend: AUG-CC-PVTZ-JKFIT

    Orbital Energies [Eh]
    ---------------------

    Doubly Occupied:

       1A    -20.559684     2A    -11.282888     3A    -11.228269
       4A    -11.224915     5A    -11.221441     6A    -11.219365
       7A    -11.215563     8A     -1.344057     9A     -1.088603
      10A     -1.031584    11A     -0.970543    12A     -0.874488
      13A     -0.808192    14A     -0.754641    15A     -0.674779
      16A     -0.631763    17A     -0.621233    18A     -0.597736
      19A     -0.588764    20A     -0.541900    21A     -0.539550
      22A     -0.530514    23A     -0.515898    24A     -0.500843
      25A     -0.481994    26A     -0.461735    27A     -0.442580
      28A     -0.349472

  @DF-RHF Final Energy:  -309.14417760309618

   => Energetics <=

    Nuclear Repulsion Energy =            298.6352109698934783
    One-Electron Energy =               -1010.9527828749941136
    Two-Electron Energy =                 403.1733943020044535
    Total Energy =                       -309.1441776030961819
  Basis Set: (AUG-CC-PVTZ AUX)
    Blend: AUG-CC-PVTZ-RI
    Molecular point group: c1

    Geometry (in Angstrom), charge = 0, multiplicity = 1:

       Center              X                  Y                   Z               Mass
    ------------   -----------------  -----------------  -----------------  -----------------
         O           -2.389601161009    -1.013768154961    -0.101591082054    15.994914619570
         C           -1.516108161009     0.046111845039     0.317904917946    12.000000000000
         C           -0.181489161009    -0.248355154961    -0.289068082054    12.000000000000
         C            2.315686838991    -0.550517154961    -0.195718082054    12.000000000000
         C            0.962230838991    -0.318319154961     0.405594917946    12.000000000000
         C           -2.054780161009     1.398217845039    -0.139782082054    12.000000000000
         C            3.251018838991     0.643182845039     0.018431917946    12.000000000000
         H           -1.418924161009     0.045082845039     1.415445917946     1.007825032230
         H           -0.179392161009    -0.393569154961    -1.370324082054     1.007825032230
         H            2.207364838991    -0.752444154961    -1.267525082054     1.007825032230
         H            2.766100838991    -1.446224154961     0.251133917946     1.007825032230
         H            0.930641838991    -0.179580154961     1.488527917946     1.007825032230
         H           -1.384902161009     2.206540845039     0.166645917946     1.007825032230
         H           -2.147077161009     1.406729845039    -1.229278082054     1.007825032230
         H           -3.043579161009     1.591204845039     0.292881917946     1.007825032230
         H            3.378132838991     0.853314845039     1.084788917946     1.007825032230
         H            2.841466838991     1.539909845039    -0.454733082054     1.007825032230
         H            4.240274838991     0.451191845039    -0.407496082054     1.007825032230
         H           -3.325415461009    -0.786367754961     0.244828917946     1.007825032230

  Basis Set: AUG-CC-PVTZ
    Blend: AUG-CC-PVTZ
  Basis Set: (AUG-CC-PVTZ AUX)
    Blend: AUG-CC-PVTZ-JKFIT
	 Reference Energy          =    -309.1441776030961819 [Eh]
	 Singles Energy            =      -0.0000000000000000 [Eh]
	 Same-Spin Energy          =      -0.3170623710305046 [Eh]
	 Opposite-Spin Energy      =      -1.1040235273034020 [Eh]
	 Correlation Energy        =      -1.4210858983339065 [Eh]
	 Total Energy              =    -310.5652635014300813 [Eh]

	 ================> DF-SCS-MP2 Energies <==================
	-----------------------------------------------------------
	 SCS Same-Spin Scale       =       0.3333333333333333 [-]
	 SCS Opposite-Spin Scale   =       1.2000000000000000 [-]
	 SCS Same-Spin Energy      =      -0.1056874570101682 [Eh]
	 SCS Opposite-Spin Energy  =      -1.3248282327640823 [Eh]
	 SCS Correlation Energy    =      -1.4305156897742506 [Eh]
	 SCS Total Energy          =    -310.5746932928704496 [Eh]
	-----------------------------------------------------------

  Dipole Moment: [D]
     X:    -0.0534      Y:     1.3966      Z:     0.7998     Total:     1.6103

*** Psi4 exiting successfully. Buy a developer a beer!
