                               Psi4 1.4a3.dev225

  ==> Input File <==

--------------------------------------------------------------------------
#psi4
#
memory 32 gb

molecule  {
0 1
  O       -2.4334040    -1.0537050    -0.1031880
  C       -1.5599110     0.0061750     0.3163080
  C       -0.2252920    -0.2882920    -0.2906650
  C        2.2718840    -0.5904540    -0.1973150
  C        0.9635699    -0.3660005     0.3839424
  C       -2.0985830     1.3582810    -0.1413790
  C        3.2072160     0.6032460     0.0168350
  H       -1.4627270     0.0051460     1.4138490
  H       -0.2231950    -0.4335060    -1.3719210
  H        2.1635620    -0.7923810    -1.2691220
  H        2.7222980    -1.4861610     0.2495370
  H        0.8868390    -0.2195170     1.4869310
  H       -1.4287050     2.1666040     0.1650490
  H       -2.1908800     1.3667930    -1.2308750
  H       -3.0873820     1.5512680     0.2912850
  H        3.3343300     0.8133780     1.0831920
  H        2.7976640     1.4999730    -0.4563300
  H        4.1964720     0.4112550    -0.4090930
  H       -3.3235000    -0.8374140     0.2263080
units angstrom
no_reorient  #important for SAPT in psi4, default
symmetry c1  #important for SAPT in psi4, default
}

set PROPERTIES_ORIGIN ["COM"]
properties('MP2/aug-cc-pvtz', properties = ['dipole'])
--------------------------------------------------------------------------

    Molecular point group: c1
  Charge       = 0
  Multiplicity = 1
  Basis Set: AUG-CC-PVTZ
    Blend: AUG-CC-PVTZ
  Basis Set: (AUG-CC-PVTZ AUX)
    Blend: AUG-CC-PVTZ-JKFIT

    Orbital Energies [Eh]
    ---------------------

    Doubly Occupied:

       1A    -20.555567     2A    -11.284598     3A    -11.232313
       4A    -11.225080     5A    -11.223270     6A    -11.219947
       7A    -11.216598     8A     -1.354195     9A     -1.091758
      10A     -1.035661    11A     -0.967568    12A     -0.880526
      13A     -0.810313    14A     -0.752023    15A     -0.681140
      16A     -0.635072    17A     -0.624838    18A     -0.600725
      19A     -0.589613    20A     -0.543848    21A     -0.539579
      22A     -0.525665    23A     -0.518752    24A     -0.504289
      25A     -0.478830    26A     -0.470292    27A     -0.443749
      28A     -0.341363

  @DF-RHF Final Energy:  -309.14420648704242

   => Energetics <=

    Nuclear Repulsion Energy =            298.8889052447300401
    One-Electron Energy =               -1011.3718770573208303
    Two-Electron Energy =                 403.3387653255483656
    Total Energy =                       -309.1442064870424247
  Basis Set: (AUG-CC-PVTZ AUX)
    Blend: AUG-CC-PVTZ-RI
    Molecular point group: c1

    Geometry (in Angstrom), charge = 0, multiplicity = 1:

       Center              X                  Y                   Z               Mass
    ------------   -----------------  -----------------  -----------------  -----------------
         O           -2.395473733754    -1.012727775660    -0.099016132687    15.994914619570
         C           -1.521980733754     0.047152224340     0.320479867313    12.000000000000
         C           -0.187361733754    -0.247314775660    -0.286493132687    12.000000000000
         C            2.309814266246    -0.549476775660    -0.193143132687    12.000000000000
         C            1.001500166246    -0.325023275660     0.388114267313    12.000000000000
         C           -2.060652733754     1.399258224340    -0.137207132687    12.000000000000
         C            3.245146266246     0.644223224340     0.021006867313    12.000000000000
         H           -1.424796733754     0.046123224340     1.418020867313     1.007825032230
         H           -0.185264733754    -0.392528775660    -1.367749132687     1.007825032230
         H            2.201492266246    -0.751403775660    -1.264950132687     1.007825032230
         H            2.760228266246    -1.445183775660     0.253708867313     1.007825032230
         H            0.924769266246    -0.178539775660     1.491102867313     1.007825032230
         H           -1.390774733754     2.207581224340     0.169220867313     1.007825032230
         H           -2.152949733754     1.407770224340    -1.226703132687     1.007825032230
         H           -3.049451733754     1.592245224340     0.295456867313     1.007825032230
         H            3.372260266246     0.854355224340     1.087363867313     1.007825032230
         H            2.835594266246     1.540950224340    -0.452158132687     1.007825032230
         H            4.234402266246     0.452232224340    -0.404921132687     1.007825032230
         H           -3.285569733754    -0.796436775660     0.230479867313     1.007825032230

  Basis Set: AUG-CC-PVTZ
    Blend: AUG-CC-PVTZ
  Basis Set: (AUG-CC-PVTZ AUX)
    Blend: AUG-CC-PVTZ-JKFIT
	 Reference Energy          =    -309.1442064870424247 [Eh]
	 Singles Energy            =      -0.0000000000000000 [Eh]
	 Same-Spin Energy          =      -0.3173466662752294 [Eh]
	 Opposite-Spin Energy      =      -1.1037604457701953 [Eh]
	 Correlation Energy        =      -1.4211071120454246 [Eh]
	 Total Energy              =    -310.5653135990878582 [Eh]

	 ================> DF-SCS-MP2 Energies <==================
	-----------------------------------------------------------
	 SCS Same-Spin Scale       =       0.3333333333333333 [-]
	 SCS Opposite-Spin Scale   =       1.2000000000000000 [-]
	 SCS Same-Spin Energy      =      -0.1057822220917431 [Eh]
	 SCS Opposite-Spin Energy  =      -1.3245125349242344 [Eh]
	 SCS Correlation Energy    =      -1.4302947570159774 [Eh]
	 SCS Total Energy          =    -310.5745012440584105 [Eh]
	-----------------------------------------------------------

  Dipole Moment: [D]
     X:     0.0195      Y:     1.3954      Z:     0.7798     Total:     1.5987

*** Psi4 exiting successfully. Buy a developer a beer!
