                               Psi4 1.3.2 release

  ==> Input File <==

--------------------------------------------------------------------------
#psi4
#
memory 32 gb

molecule  {
0 1
  O       -2.3873201    -1.0650058    -0.1512542
  C       -1.5156830    -0.0261920     0.3177710
  C       -0.1702520    -0.2529640    -0.2898400
  C        2.3348890    -0.4444240    -0.1997250
  C        0.9740050    -0.2811540     0.4036300
  C       -2.1701736     1.2662493    -0.1553158
  C        3.2132980     0.7871720     0.0273270
  H       -1.4208040    -0.0402330     1.4151950
  H       -0.1609320    -0.3839550    -1.3725900
  H        2.2351040    -0.6390970    -1.2733090
  H        2.8261900    -1.3231820     0.2368400
  H        0.9367840    -0.1585690     1.4880300
  H       -1.4764410     2.1380570     0.1977940
  H       -2.2008650     1.3268630    -1.2105240
  H       -3.1068830     1.4512670     0.3117270
  H        3.3300870     0.9922950     1.0954650
  H        2.7636150     1.6688370    -0.4368240
  H        4.2103780     0.6456890    -0.3991480
  H       -3.2411570    -0.9446250     0.2124840
units angstrom
no_reorient  #important for SAPT in psi4, default
symmetry c1  #important for SAPT in psi4, default
}

set PROPERTIES_ORIGIN ["COM"]
properties('MP2/aug-cc-pvtz', properties = ['dipole'])
--------------------------------------------------------------------------

    Molecular point group: c1
  Charge       = 0
  Multiplicity = 1
  Basis Set: AUG-CC-PVTZ
    Blend: AUG-CC-PVTZ
  Basis Set: (AUG-CC-PVTZ AUX)
    Blend: AUG-CC-PVTZ-JKFIT

    Orbital Energies [Eh]
    ---------------------

    Doubly Occupied:

       1A    -20.547094     2A    -11.283956     3A    -11.230008
       4A    -11.225729     5A    -11.222742     6A    -11.217261
       7A    -11.216016     8A     -1.360618     9A     -1.091488
      10A     -1.033860    11A     -0.971556    12A     -0.877951
      13A     -0.813441    14A     -0.756395    15A     -0.690341
      16A     -0.636977    17A     -0.621115    18A     -0.598596
      19A     -0.589519    20A     -0.552375    21A     -0.541693
      22A     -0.531207    23A     -0.514945    24A     -0.491451
      25A     -0.482638    26A     -0.465691    27A     -0.438603
      28A     -0.351802

  @DF-RHF Final Energy:  -309.14299136581582

   => Energetics <=

    Nuclear Repulsion Energy =            299.3535701422983379
    One-Electron Energy =               -1012.2829888969785088
    Two-Electron Energy =                 403.7864273888644107
    Total Energy =                       -309.1429913658158171
  Basis Set: (AUG-CC-PVTZ AUX)
    Blend: AUG-CC-PVTZ-RI
    Molecular point group: c1

    Geometry (in Angstrom), charge = 0, multiplicity = 1:

       Center              X                  Y                   Z               Mass
    ------------   -----------------  -----------------  -----------------  -----------------
         O           -2.372731404470    -1.068202524354    -0.142203069904    15.994914619570
         C           -1.501094304470    -0.029388724354     0.326822130096    12.000000000000
         C           -0.155663304470    -0.256160724354    -0.280788869904    12.000000000000
         C            2.349477695530    -0.447620724354    -0.190673869904    12.000000000000
         C            0.988593695530    -0.284350724354     0.412681130096    12.000000000000
         C           -2.155584904470     1.263052575646    -0.146264669904    12.000000000000
         C            3.227886695530     0.783975275646     0.036378130096    12.000000000000
         H           -1.406215304470    -0.043429724354     1.424246130096     1.007825032230
         H           -0.146343304470    -0.387151724354    -1.363538869904     1.007825032230
         H            2.249692695530    -0.642293724354    -1.264257869904     1.007825032230
         H            2.840778695530    -1.326378724354     0.245891130096     1.007825032230
         H            0.951372695530    -0.161765724354     1.497081130096     1.007825032230
         H           -1.461852304470     2.134860275646     0.206845130096     1.007825032230
         H           -2.186276304470     1.323666275646    -1.201472869904     1.007825032230
         H           -3.092294304470     1.448070275646     0.320778130096     1.007825032230
         H            3.344675695530     0.989098275646     1.104516130096     1.007825032230
         H            2.778203695530     1.665640275646    -0.427772869904     1.007825032230
         H            4.224966695530     0.642492275646    -0.390096869904     1.007825032230
         H           -3.226568304470    -0.947821724354     0.221535130096     1.007825032230

  Basis Set: AUG-CC-PVTZ
    Blend: AUG-CC-PVTZ
  Basis Set: (AUG-CC-PVTZ AUX)
    Blend: AUG-CC-PVTZ-JKFIT
	 Reference Energy          =    -309.1429913658158171 [Eh]
	 Singles Energy            =      -0.0000000000000000 [Eh]
	 Same-Spin Energy          =      -0.3160589625235005 [Eh]
	 Opposite-Spin Energy      =      -1.1012539746796306 [Eh]
	 Correlation Energy        =      -1.4173129372031310 [Eh]
	 Total Energy              =    -310.5603043030189383 [Eh]

	 ================> DF-SCS-MP2 Energies <==================
	-----------------------------------------------------------
	 SCS Same-Spin Scale       =       0.3333333333333333 [-]
	 SCS Opposite-Spin Scale   =       1.2000000000000000 [-]
	 SCS Same-Spin Energy      =      -0.1053529875078335 [Eh]
	 SCS Opposite-Spin Energy  =      -1.3215047696155566 [Eh]
	 SCS Correlation Energy    =      -1.4268577571233900 [Eh]
	 SCS Total Energy          =    -310.5698491229392175 [Eh]
	-----------------------------------------------------------

  Dipole Moment: [D]
     X:     0.0337      Y:     1.2316      Z:     0.8980     Total:     1.5246

*** Psi4 exiting successfully. Buy a developer a beer!
