                               Psi4 1.3.2 release

  ==> Input File <==

--------------------------------------------------------------------------
#psi4
#
memory 32 gb

molecule  {
0 1
  O       -2.3409430    -1.1152500    -0.1201430
  C       -1.5156830    -0.0261920     0.3177710
  C       -0.1407143    -0.2577962    -0.2175998
  C        2.3348890    -0.4444240    -0.1997250
  C        0.9740050    -0.2811540     0.4036300
  C       -2.1103090     1.3065560    -0.1212920
  C        3.2132980     0.7871720     0.0273270
  H       -1.3642923    -0.0497255     1.4086723
  H       -0.1609320    -0.3839550    -1.3725900
  H        2.2351040    -0.6390970    -1.2733090
  H        2.8261900    -1.3231820     0.2368400
  H        0.9367840    -0.1585690     1.4880300
  H       -1.4764410     2.1380570     0.1977940
  H       -2.2008650     1.3268630    -1.2105240
  H       -3.1068830     1.4512670     0.3117270
  H        3.3300870     0.9922950     1.0954650
  H        2.7636150     1.6688370    -0.4368240
  H        4.2103780     0.6456890    -0.3991480
  H       -3.2411570    -0.9446250     0.2124840
units angstrom
no_reorient  #important for SAPT in psi4, default
symmetry c1  #important for SAPT in psi4, default
}

set PROPERTIES_ORIGIN ["COM"]
properties('MP2/aug-cc-pvtz', properties = ['dipole'])
--------------------------------------------------------------------------

    Molecular point group: c1
  Charge       = 0
  Multiplicity = 1
  Basis Set: AUG-CC-PVTZ
    Blend: AUG-CC-PVTZ
  Basis Set: (AUG-CC-PVTZ AUX)
    Blend: AUG-CC-PVTZ-JKFIT

    Orbital Energies [Eh]
    ---------------------

    Doubly Occupied:

       1A    -20.557462     2A    -11.283918     3A    -11.225267
       4A    -11.221217     5A    -11.219270     6A    -11.216909
       7A    -11.215649     8A     -1.354970     9A     -1.099012
      10A     -1.033929    11A     -0.978396    12A     -0.877036
      13A     -0.817026    14A     -0.743201    15A     -0.681682
      16A     -0.637089    17A     -0.625253    18A     -0.602091
      19A     -0.585475    20A     -0.546116    21A     -0.539613
      22A     -0.527662    23A     -0.517353    24A     -0.502618
      25A     -0.482669    26A     -0.454938    27A     -0.439715
      28A     -0.365632

  @DF-RHF Final Energy:  -309.14201423775563

   => Energetics <=

    Nuclear Repulsion Energy =            299.8367957185946011
    One-Electron Energy =               -1013.2552821612782736
    Two-Electron Energy =                 404.2764722049279840
    Total Energy =                       -309.1420142377556317
  Basis Set: (AUG-CC-PVTZ AUX)
    Blend: AUG-CC-PVTZ-RI
    Molecular point group: c1

    Geometry (in Angstrom), charge = 0, multiplicity = 1:

       Center              X                  Y                   Z               Mass
    ------------   -----------------  -----------------  -----------------  -----------------
         O           -2.345053489395    -1.114574918416    -0.128738349655    15.994914619570
         C           -1.519793489395    -0.025516918416     0.309175650345    12.000000000000
         C           -0.144824789395    -0.257121118416    -0.226195149655    12.000000000000
         C            2.330778510605    -0.443748918416    -0.208320349655    12.000000000000
         C            0.969894510605    -0.280478918416     0.395034650345    12.000000000000
         C           -2.114419489395     1.307231081584    -0.129887349655    12.000000000000
         C            3.209187510605     0.787847081584     0.018731650345    12.000000000000
         H           -1.368402789395    -0.049050418416     1.400076950345     1.007825032230
         H           -0.165042489395    -0.383279918416    -1.381185349655     1.007825032230
         H            2.230993510605    -0.638421918416    -1.281904349655     1.007825032230
         H            2.822079510605    -1.322506918416     0.228244650345     1.007825032230
         H            0.932673510605    -0.157893918416     1.479434650345     1.007825032230
         H           -1.480551489395     2.138732081584     0.189198650345     1.007825032230
         H           -2.204975489395     1.327538081584    -1.219119349655     1.007825032230
         H           -3.110993489395     1.451942081584     0.303131650345     1.007825032230
         H            3.325976510605     0.992970081584     1.086869650345     1.007825032230
         H            2.759504510605     1.669512081584    -0.445419349655     1.007825032230
         H            4.206267510605     0.646364081584    -0.407743349655     1.007825032230
         H           -3.245267489395    -0.943949918416     0.203888650345     1.007825032230

  Basis Set: AUG-CC-PVTZ
    Blend: AUG-CC-PVTZ
  Basis Set: (AUG-CC-PVTZ AUX)
    Blend: AUG-CC-PVTZ-JKFIT
	 Reference Energy          =    -309.1420142377556317 [Eh]
	 Singles Energy            =      -0.0000000000000000 [Eh]
	 Same-Spin Energy          =      -0.3163152484186530 [Eh]
	 Opposite-Spin Energy      =      -1.1015380686571836 [Eh]
	 Correlation Energy        =      -1.4178533170758367 [Eh]
	 Total Energy              =    -310.5598675548314418 [Eh]

	 ================> DF-SCS-MP2 Energies <==================
	-----------------------------------------------------------
	 SCS Same-Spin Scale       =       0.3333333333333333 [-]
	 SCS Opposite-Spin Scale   =       1.2000000000000000 [-]
	 SCS Same-Spin Energy      =      -0.1054384161395510 [Eh]
	 SCS Opposite-Spin Energy  =      -1.3218456823886202 [Eh]
	 SCS Correlation Energy    =      -1.4272840985281712 [Eh]
	 SCS Total Energy          =    -310.5692983362837936 [Eh]
	-----------------------------------------------------------

  Dipole Moment: [D]
     X:    -0.1100      Y:     1.4021      Z:     0.8422     Total:     1.6393

*** Psi4 exiting successfully. Buy a developer a beer!
