                               Psi4 1.3.2 release

  ==> Input File <==

--------------------------------------------------------------------------
#psi4
#
memory 32 gb

molecule  {
0 1
  O       -2.3409430    -1.1152500    -0.1201430
  C       -1.5211217    -0.0272152     0.3059702
  C       -0.1702520    -0.2529640    -0.2898400
  C        2.3348890    -0.4444240    -0.1997250
  C        0.9798913    -0.2831303     0.3937387
  C       -2.1103090     1.3065560    -0.1212920
  C        3.2132980     0.7871720     0.0273270
  H       -1.4208040    -0.0402330     1.4151950
  H       -0.1609320    -0.3839550    -1.3725900
  H        2.2351040    -0.6390970    -1.2733090
  H        2.8261900    -1.3231820     0.2368400
  H        0.9367840    -0.1585690     1.4880300
  H       -1.4764410     2.1380570     0.1977940
  H       -2.2008650     1.3268630    -1.2105240
  H       -3.1068830     1.4512670     0.3117270
  H        3.3300870     0.9922950     1.0954650
  H        2.7636150     1.6688370    -0.4368240
  H        4.2103780     0.6456890    -0.3991480
  H       -3.2411570    -0.9446250     0.2124840
units angstrom
no_reorient  #important for SAPT in psi4, default
symmetry c1  #important for SAPT in psi4, default
}

set PROPERTIES_ORIGIN ["COM"]
properties('MP2/aug-cc-pvtz', properties = ['dipole'])
--------------------------------------------------------------------------

    Molecular point group: c1
  Charge       = 0
  Multiplicity = 1
  Basis Set: AUG-CC-PVTZ
    Blend: AUG-CC-PVTZ
  Basis Set: (AUG-CC-PVTZ AUX)
    Blend: AUG-CC-PVTZ-JKFIT

    Orbital Energies [Eh]
    ---------------------

    Doubly Occupied:

       1A    -20.556325     2A    -11.283544     3A    -11.228212
       4A    -11.224198     5A    -11.220632     6A    -11.219283
       7A    -11.215475     8A     -1.357286     9A     -1.090684
      10A     -1.034398    11A     -0.971566    12A     -0.876817
      13A     -0.810740    14A     -0.752595    15A     -0.681890
      16A     -0.635105    17A     -0.626168    18A     -0.599565
      19A     -0.589292    20A     -0.543324    21A     -0.539671
      22A     -0.530154    23A     -0.517520    24A     -0.502583
      25A     -0.481035    26A     -0.463372    27A     -0.442047
      28A     -0.349624

  @DF-RHF Final Energy:  -309.14896268167314

   => Energetics <=

    Nuclear Repulsion Energy =            299.3495289365064309
    One-Electron Energy =               -1012.3107766016097457
    Two-Electron Energy =                 403.8122849834301746
    Total Energy =                       -309.1489626816731402
  Basis Set: (AUG-CC-PVTZ AUX)
    Blend: AUG-CC-PVTZ-RI
    Molecular point group: c1

    Geometry (in Angstrom), charge = 0, multiplicity = 1:

       Center              X                  Y                   Z               Mass
    ------------   -----------------  -----------------  -----------------  -----------------
         O           -2.340996741337    -1.114890230163    -0.117542154960    15.994914619570
         C           -1.521175441337    -0.026855430163     0.308571045040    12.000000000000
         C           -0.170305741337    -0.252604230163    -0.287239154960    12.000000000000
         C            2.334835258663    -0.444064230163    -0.197124154960    12.000000000000
         C            0.979837558663    -0.282770530163     0.396339545040    12.000000000000
         C           -2.110362741337     1.306915769837    -0.118691154960    12.000000000000
         C            3.213244258663     0.787531769837     0.029927845040    12.000000000000
         H           -1.420857741337    -0.039873230163     1.417795845040     1.007825032230
         H           -0.160985741337    -0.383595230163    -1.369989154960     1.007825032230
         H            2.235050258663    -0.638737230163    -1.270708154960     1.007825032230
         H            2.826136258663    -1.322822230163     0.239440845040     1.007825032230
         H            0.936730258663    -0.158209230163     1.490630845040     1.007825032230
         H           -1.476494741337     2.138416769837     0.200394845040     1.007825032230
         H           -2.200918741337     1.327222769837    -1.207923154960     1.007825032230
         H           -3.106936741337     1.451626769837     0.314327845040     1.007825032230
         H            3.330033258663     0.992654769837     1.098065845040     1.007825032230
         H            2.763561258663     1.669196769837    -0.434223154960     1.007825032230
         H            4.210324258663     0.646048769837    -0.396547154960     1.007825032230
         H           -3.241210741337    -0.944265230163     0.215084845040     1.007825032230

  Basis Set: AUG-CC-PVTZ
    Blend: AUG-CC-PVTZ
  Basis Set: (AUG-CC-PVTZ AUX)
    Blend: AUG-CC-PVTZ-JKFIT
	 Reference Energy          =    -309.1489626816731402 [Eh]
	 Singles Energy            =      -0.0000000000000000 [Eh]
	 Same-Spin Energy          =      -0.3166569247400305 [Eh]
	 Opposite-Spin Energy      =      -1.1024283502314765 [Eh]
	 Correlation Energy        =      -1.4190852749715068 [Eh]
	 Total Energy              =    -310.5680479566446479 [Eh]

	 ================> DF-SCS-MP2 Energies <==================
	-----------------------------------------------------------
	 SCS Same-Spin Scale       =       0.3333333333333333 [-]
	 SCS Opposite-Spin Scale   =       1.2000000000000000 [-]
	 SCS Same-Spin Energy      =      -0.1055523082466768 [Eh]
	 SCS Opposite-Spin Energy  =      -1.3229140202777716 [Eh]
	 SCS Correlation Energy    =      -1.4284663285244483 [Eh]
	 SCS Total Energy          =    -310.5774290101975907 [Eh]
	-----------------------------------------------------------

  Dipole Moment: [D]
     X:    -0.1083      Y:     1.3702      Z:     0.7906     Total:     1.5856

*** Psi4 exiting successfully. Buy a developer a beer!
