                               Psi4 1.3.2 release

  ==> Input File <==

--------------------------------------------------------------------------
#psi4
#
memory 32 gb

molecule  {
0 1
  O       -2.3409430    -1.1152500    -0.1201430
  C       -1.5760846     0.0036115     0.3510369
  C       -0.1702520    -0.2529640    -0.2898400
  C        2.3348890    -0.4444240    -0.1997250
  C        0.9740050    -0.2811540     0.4036300
  C       -2.1103090     1.3065560    -0.1212920
  C        3.2132980     0.7871720     0.0273270
  H       -1.4208040    -0.0402330     1.4151950
  H       -0.1609320    -0.3839550    -1.3725900
  H        2.2351040    -0.6390970    -1.2733090
  H        2.8261900    -1.3231820     0.2368400
  H        0.9367840    -0.1585690     1.4880300
  H       -1.4764410     2.1380570     0.1977940
  H       -2.2008650     1.3268630    -1.2105240
  H       -3.1068830     1.4512670     0.3117270
  H        3.3300870     0.9922950     1.0954650
  H        2.7636150     1.6688370    -0.4368240
  H        4.2103780     0.6456890    -0.3991480
  H       -3.2237249    -0.9015985     0.2336761
units angstrom
no_reorient  #important for SAPT in psi4, default
symmetry c1  #important for SAPT in psi4, default
}

set PROPERTIES_ORIGIN ["COM"]
properties('MP2/aug-cc-pvtz', properties = ['dipole'])
--------------------------------------------------------------------------

    Molecular point group: c1
  Charge       = 0
  Multiplicity = 1
  Basis Set: AUG-CC-PVTZ
    Blend: AUG-CC-PVTZ
  Basis Set: (AUG-CC-PVTZ AUX)
    Blend: AUG-CC-PVTZ-JKFIT

    Orbital Energies [Eh]
    ---------------------

    Doubly Occupied:

       1A    -20.559783     2A    -11.283459     3A    -11.224292
       4A    -11.222760     5A    -11.221917     6A    -11.220300
       7A    -11.213996     8A     -1.359588     9A     -1.084797
      10A     -1.034742    11A     -0.973493    12A     -0.869581
      13A     -0.809668    14A     -0.754281    15A     -0.682245
      16A     -0.633594    17A     -0.622954    18A     -0.598701
      19A     -0.590557    20A     -0.551585    21A     -0.537393
      22A     -0.530174    23A     -0.517575    24A     -0.503859
      25A     -0.480347    26A     -0.455275    27A     -0.446387
      28A     -0.348349

  @DF-RHF Final Energy:  -309.14220237059567

   => Energetics <=

    Nuclear Repulsion Energy =            298.7840276513732647
    One-Electron Energy =               -1011.1891603803014732
    Two-Electron Energy =                 403.2629303583325964
    Total Energy =                       -309.1422023705956690
  Basis Set: (AUG-CC-PVTZ AUX)
    Blend: AUG-CC-PVTZ-RI
    Molecular point group: c1

    Geometry (in Angstrom), charge = 0, multiplicity = 1:

       Center              X                  Y                   Z               Mass
    ------------   -----------------  -----------------  -----------------  -----------------
         O           -2.333876845940    -1.119256344236    -0.124344652610    15.994914619570
         C           -1.569018445940    -0.000394844236     0.346835247390    12.000000000000
         C           -0.163185845940    -0.256970344236    -0.294041652610    12.000000000000
         C            2.341955154060    -0.448430344236    -0.203926652610    12.000000000000
         C            0.981071154060    -0.285160344236     0.399428347390    12.000000000000
         C           -2.103242845940     1.302549655764    -0.125493652610    12.000000000000
         C            3.220364154060     0.783165655764     0.023125347390    12.000000000000
         H           -1.413737845940    -0.044239344236     1.410993347390     1.007825032230
         H           -0.153865845940    -0.387961344236    -1.376791652610     1.007825032230
         H            2.242170154060    -0.643103344236    -1.277510652610     1.007825032230
         H            2.833256154060    -1.327188344236     0.232638347390     1.007825032230
         H            0.943850154060    -0.162575344236     1.483828347390     1.007825032230
         H           -1.469374845940     2.134050655764     0.193592347390     1.007825032230
         H           -2.193798845940     1.322856655764    -1.214725652610     1.007825032230
         H           -3.099816845940     1.447260655764     0.307525347390     1.007825032230
         H            3.337153154060     0.988288655764     1.091263347390     1.007825032230
         H            2.770681154060     1.664830655764    -0.441025652610     1.007825032230
         H            4.217444154060     0.641682655764    -0.403349652610     1.007825032230
         H           -3.216658745940    -0.905604844236     0.229474447390     1.007825032230

  Basis Set: AUG-CC-PVTZ
    Blend: AUG-CC-PVTZ
  Basis Set: (AUG-CC-PVTZ AUX)
    Blend: AUG-CC-PVTZ-JKFIT
	 Reference Energy          =    -309.1422023705956690 [Eh]
	 Singles Energy            =      -0.0000000000000000 [Eh]
	 Same-Spin Energy          =      -0.3167863148407956 [Eh]
	 Opposite-Spin Energy      =      -1.1032012607448676 [Eh]
	 Correlation Energy        =      -1.4199875755856632 [Eh]
	 Total Energy              =    -310.5621899461813200 [Eh]

	 ================> DF-SCS-MP2 Energies <==================
	-----------------------------------------------------------
	 SCS Same-Spin Scale       =       0.3333333333333333 [-]
	 SCS Opposite-Spin Scale   =       1.2000000000000000 [-]
	 SCS Same-Spin Energy      =      -0.1055954382802652 [Eh]
	 SCS Opposite-Spin Energy  =      -1.3238415128938410 [Eh]
	 SCS Correlation Energy    =      -1.4294369511741063 [Eh]
	 SCS Total Energy          =    -310.5716393217697942 [Eh]
	-----------------------------------------------------------

  Dipole Moment: [D]
     X:    -0.2204      Y:     1.4817      Z:     0.8420     Total:     1.7184

*** Psi4 exiting successfully. Buy a developer a beer!
