                               Psi4 1.3.2 release

  ==> Input File <==

--------------------------------------------------------------------------
#psi4
#
memory 32 gb

molecule  {
0 1
  O       -2.3409430    -1.1152500    -0.1201430
  C       -1.5156830    -0.0261920     0.3177710
  C       -0.1599922    -0.2546445    -0.2659353
  C        2.3348890    -0.4444240    -0.1997250
  C        0.9740050    -0.2811540     0.4036300
  C       -2.1103090     1.3065560    -0.1212920
  C        3.2132980     0.7871720     0.0273270
  H       -1.4019302    -0.0434027     1.4133543
  H       -0.1609320    -0.3839550    -1.3725900
  H        2.2351040    -0.6390970    -1.2733090
  H        2.8261900    -1.3231820     0.2368400
  H        0.9367840    -0.1585690     1.4880300
  H       -1.4764410     2.1380570     0.1977940
  H       -2.2008650     1.3268630    -1.2105240
  H       -3.1068830     1.4512670     0.3117270
  H        3.3300870     0.9922950     1.0954650
  H        2.7636150     1.6688370    -0.4368240
  H        4.2103780     0.6456890    -0.3991480
  H       -3.2411570    -0.9446250     0.2124840
units angstrom
no_reorient  #important for SAPT in psi4, default
symmetry c1  #important for SAPT in psi4, default
}

set PROPERTIES_ORIGIN ["COM"]
properties('MP2/aug-cc-pvtz', properties = ['dipole'])
--------------------------------------------------------------------------

    Molecular point group: c1
  Charge       = 0
  Multiplicity = 1
  Basis Set: AUG-CC-PVTZ
    Blend: AUG-CC-PVTZ
  Basis Set: (AUG-CC-PVTZ AUX)
    Blend: AUG-CC-PVTZ-JKFIT

    Orbital Energies [Eh]
    ---------------------

    Doubly Occupied:

       1A    -20.555992     2A    -11.283060     3A    -11.224958
       4A    -11.224259     5A    -11.219930     6A    -11.219659
       7A    -11.215351     8A     -1.354337     9A     -1.092775
      10A     -1.033629    11A     -0.973507    12A     -0.876148
      13A     -0.812474    14A     -0.750993    15A     -0.681571
      16A     -0.634619    17A     -0.624825    18A     -0.599337
      19A     -0.587894    20A     -0.544027    21A     -0.539605
      22A     -0.529682    23A     -0.517041    24A     -0.502050
      25A     -0.482119    26A     -0.459799    27A     -0.443677
      28A     -0.354990

  @DF-RHF Final Energy:  -309.14918328482730

   => Energetics <=

    Nuclear Repulsion Energy =            299.4164922139780742
    One-Electron Energy =               -1012.4547363992003284
    Two-Electron Energy =                 403.8890609003950090
    Total Energy =                       -309.1491832848273020
  Basis Set: (AUG-CC-PVTZ AUX)
    Blend: AUG-CC-PVTZ-RI
    Molecular point group: c1

    Geometry (in Angstrom), charge = 0, multiplicity = 1:

       Center              X                  Y                   Z               Mass
    ------------   -----------------  -----------------  -----------------  -----------------
         O           -2.342363206592    -1.115016453028    -0.122990381082    15.994914619570
         C           -1.517103206592    -0.025958453028     0.314923618918    12.000000000000
         C           -0.161412406592    -0.254410953028    -0.268782681082    12.000000000000
         C            2.333468793408    -0.444190453028    -0.202572381082    12.000000000000
         C            0.972584793408    -0.280920453028     0.400782618918    12.000000000000
         C           -2.111729206592     1.306789546972    -0.124139381082    12.000000000000
         C            3.211877793408     0.787405546972     0.024479618918    12.000000000000
         H           -1.403350406592    -0.043169153028     1.410506918918     1.007825032230
         H           -0.162352206592    -0.383721453028    -1.375437381082     1.007825032230
         H            2.233683793408    -0.638863453028    -1.276156381082     1.007825032230
         H            2.824769793408    -1.322948453028     0.233992618918     1.007825032230
         H            0.935363793408    -0.158335453028     1.485182618918     1.007825032230
         H           -1.477861206592     2.138290546972     0.194946618918     1.007825032230
         H           -2.202285206592     1.327096546972    -1.213371381082     1.007825032230
         H           -3.108303206592     1.451500546972     0.308879618918     1.007825032230
         H            3.328666793408     0.992528546972     1.092617618918     1.007825032230
         H            2.762194793408     1.669070546972    -0.439671381082     1.007825032230
         H            4.208957793408     0.645922546972    -0.401995381082     1.007825032230
         H           -3.242577206592    -0.944391453028     0.209636618918     1.007825032230

  Basis Set: AUG-CC-PVTZ
    Blend: AUG-CC-PVTZ
  Basis Set: (AUG-CC-PVTZ AUX)
    Blend: AUG-CC-PVTZ-JKFIT
	 Reference Energy          =    -309.1491832848273020 [Eh]
	 Singles Energy            =      -0.0000000000000000 [Eh]
	 Same-Spin Energy          =      -0.3164006721057641 [Eh]
	 Opposite-Spin Energy      =      -1.1019676354593344 [Eh]
	 Correlation Energy        =      -1.4183683075650984 [Eh]
	 Total Energy              =    -310.5675515923924195 [Eh]

	 ================> DF-SCS-MP2 Energies <==================
	-----------------------------------------------------------
	 SCS Same-Spin Scale       =       0.3333333333333333 [-]
	 SCS Opposite-Spin Scale   =       1.2000000000000000 [-]
	 SCS Same-Spin Energy      =      -0.1054668907019213 [Eh]
	 SCS Opposite-Spin Energy  =      -1.3223611625512013 [Eh]
	 SCS Correlation Energy    =      -1.4278280532531227 [Eh]
	 SCS Total Energy          =    -310.5770113380804105 [Eh]
	-----------------------------------------------------------

  Dipole Moment: [D]
     X:    -0.1006      Y:     1.3864      Z:     0.8201     Total:     1.6139

*** Psi4 exiting successfully. Buy a developer a beer!
