                               Psi4 1.3.2 release

  ==> Input File <==

--------------------------------------------------------------------------
#psi4
#
memory 32 gb

molecule  {
0 1
  O       -2.3409430    -1.1152500    -0.1201430
  C       -1.5156830    -0.0261920     0.3177710
  C       -0.1702520    -0.2529640    -0.2898400
  C        2.3348890    -0.4444240    -0.1997250
  C        0.9720561    -0.2705625     0.3962265
  C       -2.1103090     1.3065560    -0.1212920
  C        3.2132980     0.7871720     0.0273270
  H       -1.4208040    -0.0402330     1.4151950
  H       -0.1609320    -0.3839550    -1.3725900
  H        2.2351040    -0.6390970    -1.2733090
  H        2.8338845    -1.3215399     0.2313810
  H        0.9367840    -0.1585690     1.4880300
  H       -1.4764410     2.1380570     0.1977940
  H       -2.2008650     1.3268630    -1.2105240
  H       -3.1068830     1.4512670     0.3117270
  H        3.3300870     0.9922950     1.0954650
  H        2.7636150     1.6688370    -0.4368240
  H        4.2103780     0.6456890    -0.3991480
  H       -3.2411570    -0.9446250     0.2124840
units angstrom
no_reorient  #important for SAPT in psi4, default
symmetry c1  #important for SAPT in psi4, default
}

set PROPERTIES_ORIGIN ["COM"]
properties('MP2/aug-cc-pvtz', properties = ['dipole'])
--------------------------------------------------------------------------

    Molecular point group: c1
  Charge       = 0
  Multiplicity = 1
  Basis Set: AUG-CC-PVTZ
    Blend: AUG-CC-PVTZ
  Basis Set: (AUG-CC-PVTZ AUX)
    Blend: AUG-CC-PVTZ-JKFIT

    Orbital Energies [Eh]
    ---------------------

    Doubly Occupied:

       1A    -20.555430     2A    -11.282976     3A    -11.227439
       4A    -11.224463     5A    -11.220226     6A    -11.219374
       7A    -11.215029     8A     -1.354204     9A     -1.090714
      10A     -1.033690    11A     -0.971765    12A     -0.875554
      13A     -0.810891    14A     -0.754305    15A     -0.681483
      16A     -0.633979    17A     -0.624734    18A     -0.598865
      19A     -0.589050    20A     -0.543139    21A     -0.539448
      22A     -0.530941    23A     -0.516212    24A     -0.502183
      25A     -0.481182    26A     -0.462505    27A     -0.443892
      28A     -0.351225

  @DF-RHF Final Energy:  -309.14950414823966

   => Energetics <=

    Nuclear Repulsion Energy =            299.2972619793135891
    One-Electron Energy =               -1012.2237350975121899
    Two-Electron Energy =                 403.7769689699589435
    Total Energy =                       -309.1495041482396573
  Basis Set: (AUG-CC-PVTZ AUX)
    Blend: AUG-CC-PVTZ-RI
    Molecular point group: c1

    Geometry (in Angstrom), charge = 0, multiplicity = 1:

       Center              X                  Y                   Z               Mass
    ------------   -----------------  -----------------  -----------------  -----------------
         O           -2.340786894809    -1.116536237756    -0.119200297112    15.994914619570
         C           -1.515526894809    -0.027478237756     0.318713702888    12.000000000000
         C           -0.170095894809    -0.254250237756    -0.288897297112    12.000000000000
         C            2.335045105191    -0.445710237756    -0.198782297112    12.000000000000
         C            0.972212205191    -0.271848737756     0.397169202888    12.000000000000
         C           -2.110152894809     1.305269762244    -0.120349297112    12.000000000000
         C            3.213454105191     0.785885762244     0.028269702888    12.000000000000
         H           -1.420647894809    -0.041519237756     1.416137702888     1.007825032230
         H           -0.160775894809    -0.385241237756    -1.371647297112     1.007825032230
         H            2.235260105191    -0.640383237756    -1.272366297112     1.007825032230
         H            2.834040605191    -1.322826137756     0.232323702888     1.007825032230
         H            0.936940105191    -0.159855237756     1.488972702888     1.007825032230
         H           -1.476284894809     2.136770762244     0.198736702888     1.007825032230
         H           -2.200708894809     1.325576762244    -1.209581297112     1.007825032230
         H           -3.106726894809     1.449980762244     0.312669702888     1.007825032230
         H            3.330243105191     0.991008762244     1.096407702888     1.007825032230
         H            2.763771105191     1.667550762244    -0.435881297112     1.007825032230
         H            4.210534105191     0.644402762244    -0.398205297112     1.007825032230
         H           -3.241000894809    -0.945911237756     0.213426702888     1.007825032230

  Basis Set: AUG-CC-PVTZ
    Blend: AUG-CC-PVTZ
  Basis Set: (AUG-CC-PVTZ AUX)
    Blend: AUG-CC-PVTZ-JKFIT
	 Reference Energy          =    -309.1495041482396573 [Eh]
	 Singles Energy            =      -0.0000000000000000 [Eh]
	 Same-Spin Energy          =      -0.3164923665063811 [Eh]
	 Opposite-Spin Energy      =      -1.1022619667495923 [Eh]
	 Correlation Energy        =      -1.4187543332559733 [Eh]
	 Total Energy              =    -310.5682584814956044 [Eh]

	 ================> DF-SCS-MP2 Energies <==================
	-----------------------------------------------------------
	 SCS Same-Spin Scale       =       0.3333333333333333 [-]
	 SCS Opposite-Spin Scale   =       1.2000000000000000 [-]
	 SCS Same-Spin Energy      =      -0.1054974555021270 [Eh]
	 SCS Opposite-Spin Energy  =      -1.3227143600995108 [Eh]
	 SCS Correlation Energy    =      -1.4282118156016379 [Eh]
	 SCS Total Energy          =    -310.5777159638412854 [Eh]
	-----------------------------------------------------------

  Dipole Moment: [D]
     X:    -0.1019      Y:     1.3669      Z:     0.8102     Total:     1.5922

*** Psi4 exiting successfully. Buy a developer a beer!
