                               Psi4 1.3.2 release

  ==> Input File <==

--------------------------------------------------------------------------
#psi4
#
memory 32 gb

molecule  {
0 1
  O       -2.3409430    -1.1152500    -0.1201430
  C       -1.5058316    -0.0314518     0.3121075
  C       -0.1702520    -0.2529640    -0.2898400
  C        2.3348890    -0.4444240    -0.1997250
  C        0.9740050    -0.2811540     0.4036300
  C       -2.1103090     1.3065560    -0.1212920
  C        3.2132980     0.7871720     0.0273270
  H       -1.4208040    -0.0402330     1.4151950
  H       -0.1609320    -0.3839550    -1.3725900
  H        2.2351040    -0.6390970    -1.2733090
  H        2.8261900    -1.3231820     0.2368400
  H        0.9367840    -0.1585690     1.4880300
  H       -1.4764410     2.1380570     0.1977940
  H       -2.2008650     1.3268630    -1.2105240
  H       -3.1068830     1.4512670     0.3117270
  H        3.3300870     0.9922950     1.0954650
  H        2.7636150     1.6688370    -0.4368240
  H        4.2103780     0.6456890    -0.3991480
  H       -3.2438236    -0.9518448     0.2088617
units angstrom
no_reorient  #important for SAPT in psi4, default
symmetry c1  #important for SAPT in psi4, default
}

set PROPERTIES_ORIGIN ["COM"]
properties('MP2/aug-cc-pvtz', properties = ['dipole'])
--------------------------------------------------------------------------

    Molecular point group: c1
  Charge       = 0
  Multiplicity = 1
  Basis Set: AUG-CC-PVTZ
    Blend: AUG-CC-PVTZ
  Basis Set: (AUG-CC-PVTZ AUX)
    Blend: AUG-CC-PVTZ-JKFIT

    Orbital Energies [Eh]
    ---------------------

    Doubly Occupied:

       1A    -20.554556     2A    -11.282898     3A    -11.228305
       4A    -11.224755     5A    -11.220567     6A    -11.219213
       7A    -11.215457     8A     -1.353222     9A     -1.091046
      10A     -1.033703    11A     -0.970564    12A     -0.876982
      13A     -0.810611    14A     -0.755133    15A     -0.681468
      16A     -0.634769    17A     -0.624138    18A     -0.598210
      19A     -0.588880    20A     -0.542532    21A     -0.539777
      22A     -0.531180    23A     -0.516657    24A     -0.501098
      25A     -0.482218    26A     -0.464656    27A     -0.441842
      28A     -0.349947

  @DF-RHF Final Energy:  -309.14929173877334

   => Energetics <=

    Nuclear Repulsion Energy =            299.2868373304114584
    One-Electron Energy =               -1012.2034930092768263
    Two-Electron Energy =                 403.7673639400920251
    Total Energy =                       -309.1492917387733428
  Basis Set: (AUG-CC-PVTZ AUX)
    Blend: AUG-CC-PVTZ-RI
    Molecular point group: c1

    Geometry (in Angstrom), charge = 0, multiplicity = 1:

       Center              X                  Y                   Z               Mass
    ------------   -----------------  -----------------  -----------------  -----------------
         O           -2.342097345173    -1.114546536463    -0.119427406128    15.994914619570
         C           -1.506985945173    -0.030748336463     0.312823093872    12.000000000000
         C           -0.171406345173    -0.252260536463    -0.289124406128    12.000000000000
         C            2.333734654827    -0.443720536463    -0.199009406128    12.000000000000
         C            0.972850654827    -0.280450536463     0.404345593872    12.000000000000
         C           -2.111463345173     1.307259463537    -0.120576406128    12.000000000000
         C            3.212143654827     0.787875463537     0.028042593872    12.000000000000
         H           -1.421958345173    -0.039529536463     1.415910593872     1.007825032230
         H           -0.162086345173    -0.383251536463    -1.371874406128     1.007825032230
         H            2.233949654827    -0.638393536463    -1.272593406128     1.007825032230
         H            2.825035654827    -1.322478536463     0.237555593872     1.007825032230
         H            0.935629654827    -0.157865536463     1.488745593872     1.007825032230
         H           -1.477595345173     2.138760463537     0.198509593872     1.007825032230
         H           -2.202019345173     1.327566463537    -1.209808406128     1.007825032230
         H           -3.108037345173     1.451970463537     0.312442593872     1.007825032230
         H            3.328932654827     0.992998463537     1.096180593872     1.007825032230
         H            2.762460654827     1.669540463537    -0.436108406128     1.007825032230
         H            4.209223654827     0.646392463537    -0.398432406128     1.007825032230
         H           -3.244977945173    -0.951141336463     0.209577293872     1.007825032230

  Basis Set: AUG-CC-PVTZ
    Blend: AUG-CC-PVTZ
  Basis Set: (AUG-CC-PVTZ AUX)
    Blend: AUG-CC-PVTZ-JKFIT
	 Reference Energy          =    -309.1492917387733428 [Eh]
	 Singles Energy            =      -0.0000000000000000 [Eh]
	 Same-Spin Energy          =      -0.3165534356262285 [Eh]
	 Opposite-Spin Energy      =      -1.1023406385811434 [Eh]
	 Correlation Energy        =      -1.4188940742073719 [Eh]
	 Total Energy              =    -310.5681858129806869 [Eh]

	 ================> DF-SCS-MP2 Energies <==================
	-----------------------------------------------------------
	 SCS Same-Spin Scale       =       0.3333333333333333 [-]
	 SCS Opposite-Spin Scale   =       1.2000000000000000 [-]
	 SCS Same-Spin Energy      =      -0.1055178118754095 [Eh]
	 SCS Opposite-Spin Energy  =      -1.3228087662973720 [Eh]
	 SCS Correlation Energy    =      -1.4283265781727814 [Eh]
	 SCS Total Energy          =    -310.5776183169461433 [Eh]
	-----------------------------------------------------------

  Dipole Moment: [D]
     X:    -0.0735      Y:     1.3612      Z:     0.8086     Total:     1.5849

*** Psi4 exiting successfully. Buy a developer a beer!
