                               Psi4 1.3.2 release

  ==> Input File <==

--------------------------------------------------------------------------
#psi4
#
memory 32 gb

molecule  {
0 1
  O       -2.3409430    -1.1152500    -0.1201430
  C       -1.5466159    -0.0312508     0.2461328
  C       -0.1702520    -0.2529640    -0.2898400
  C        2.3348890    -0.4444240    -0.1997250
  C        0.9740050    -0.2811540     0.4036300
  C       -2.1103090     1.3065560    -0.1212920
  C        3.2132980     0.7871720     0.0273270
  H       -1.4208040    -0.0402330     1.4151950
  H       -0.2176603    -0.3774401    -1.3723608
  H        2.2351040    -0.6390970    -1.2733090
  H        2.8261900    -1.3231820     0.2368400
  H        0.9367840    -0.1585690     1.4880300
  H       -1.4764410     2.1380570     0.1977940
  H       -2.2008650     1.3268630    -1.2105240
  H       -3.1068830     1.4512670     0.3117270
  H        3.3300870     0.9922950     1.0954650
  H        2.7636150     1.6688370    -0.4368240
  H        4.2103780     0.6456890    -0.3991480
  H       -3.2411570    -0.9446250     0.2124840
units angstrom
no_reorient  #important for SAPT in psi4, default
symmetry c1  #important for SAPT in psi4, default
}

set PROPERTIES_ORIGIN ["COM"]
properties('MP2/aug-cc-pvtz', properties = ['dipole'])
--------------------------------------------------------------------------

    Molecular point group: c1
  Charge       = 0
  Multiplicity = 1
  Basis Set: AUG-CC-PVTZ
    Blend: AUG-CC-PVTZ
  Basis Set: (AUG-CC-PVTZ AUX)
    Blend: AUG-CC-PVTZ-JKFIT

    Orbital Energies [Eh]
    ---------------------

    Doubly Occupied:

       1A    -20.560882     2A    -11.285035     3A    -11.229180
       4A    -11.224533     5A    -11.220909     6A    -11.218942
       7A    -11.215095     8A     -1.372587     9A     -1.089154
      10A     -1.035658    11A     -0.973311    12A     -0.877271
      13A     -0.810502    14A     -0.749883    15A     -0.685272
      16A     -0.639954    17A     -0.633736    18A     -0.600596
      19A     -0.589778    20A     -0.544182    21A     -0.542726
      22A     -0.532294    23A     -0.518687    24A     -0.503595
      25A     -0.482031    26A     -0.460318    27A     -0.427002
      28A     -0.350308

  @DF-RHF Final Energy:  -309.14219253870658

   => Energetics <=

    Nuclear Repulsion Energy =            299.7135739177629716
    One-Electron Energy =               -1012.9646896314726519
    Two-Electron Energy =                 404.1089231750030422
    Total Energy =                       -309.1421925387065812
  Basis Set: (AUG-CC-PVTZ AUX)
    Blend: AUG-CC-PVTZ-RI
    Molecular point group: c1

    Geometry (in Angstrom), charge = 0, multiplicity = 1:

       Center              X                  Y                   Z               Mass
    ------------   -----------------  -----------------  -----------------  -----------------
         O           -2.336663208157    -1.114708933974    -0.111556249277    15.994914619570
         C           -1.542336108157    -0.030709733974     0.254719550723    12.000000000000
         C           -0.165972208157    -0.252422933974    -0.281253249277    12.000000000000
         C            2.339168791843    -0.443882933974    -0.191138249277    12.000000000000
         C            0.978284791843    -0.280612933974     0.412216750723    12.000000000000
         C           -2.106029208157     1.307097066026    -0.112705249277    12.000000000000
         C            3.217577791843     0.787713066026     0.035913750723    12.000000000000
         H           -1.416524208157    -0.039691933974     1.423781750723     1.007825032230
         H           -0.213380508157    -0.376899033974    -1.363774049277     1.007825032230
         H            2.239383791843    -0.638555933974    -1.264722249277     1.007825032230
         H            2.830469791843    -1.322640933974     0.245426750723     1.007825032230
         H            0.941063791843    -0.158027933974     1.496616750723     1.007825032230
         H           -1.472161208157     2.138598066026     0.206380750723     1.007825032230
         H           -2.196585208157     1.327404066026    -1.201937249277     1.007825032230
         H           -3.102603208157     1.451808066026     0.320313750723     1.007825032230
         H            3.334366791843     0.992836066026     1.104051750723     1.007825032230
         H            2.767894791843     1.669378066026    -0.428237249277     1.007825032230
         H            4.214657791843     0.646230066026    -0.390561249277     1.007825032230
         H           -3.236877208157    -0.944083933974     0.221070750723     1.007825032230

  Basis Set: AUG-CC-PVTZ
    Blend: AUG-CC-PVTZ
  Basis Set: (AUG-CC-PVTZ AUX)
    Blend: AUG-CC-PVTZ-JKFIT
	 Reference Energy          =    -309.1421925387065812 [Eh]
	 Singles Energy            =      -0.0000000000000000 [Eh]
	 Same-Spin Energy          =      -0.3168444887976063 [Eh]
	 Opposite-Spin Energy      =      -1.1025285839322114 [Eh]
	 Correlation Energy        =      -1.4193730727298177 [Eh]
	 Total Energy              =    -310.5615656114363787 [Eh]

	 ================> DF-SCS-MP2 Energies <==================
	-----------------------------------------------------------
	 SCS Same-Spin Scale       =       0.3333333333333333 [-]
	 SCS Opposite-Spin Scale   =       1.2000000000000000 [-]
	 SCS Same-Spin Energy      =      -0.1056148295992021 [Eh]
	 SCS Opposite-Spin Energy  =      -1.3230343007186536 [Eh]
	 SCS Correlation Energy    =      -1.4286491303178557 [Eh]
	 SCS Total Energy          =    -310.5708416690244462 [Eh]
	-----------------------------------------------------------

  Dipole Moment: [D]
     X:    -0.2218      Y:     1.3181      Z:     0.6869     Total:     1.5028

*** Psi4 exiting successfully. Buy a developer a beer!
