                               Psi4 1.3.2 release

  ==> Input File <==

--------------------------------------------------------------------------
#psi4
#
memory 32 gb

molecule  {
0 1
  O       -2.3409430    -1.1152500    -0.1201430
  C       -1.4581686     0.0497071     0.3482903
  C       -0.1702520    -0.2529640    -0.2898400
  C        2.3348890    -0.4444240    -0.1997250
  C        0.9740050    -0.2811540     0.4036300
  C       -2.1103090     1.3065560    -0.1212920
  C        3.2132980     0.7871720     0.0273270
  H       -1.4208040    -0.0402330     1.4151950
  H       -0.1609320    -0.3839550    -1.3725900
  H        2.2351040    -0.6390970    -1.2733090
  H        2.8261900    -1.3231820     0.2368400
  H        0.9367840    -0.1585690     1.4880300
  H       -1.4764410     2.1380570     0.1977940
  H       -2.2008650     1.3268630    -1.2105240
  H       -3.1068830     1.4512670     0.3117270
  H        3.3300870     0.9922950     1.0954650
  H        2.7636150     1.6688370    -0.4368240
  H        4.2103780     0.6456890    -0.3991480
  H       -3.2411570    -0.9446250     0.2124840
units angstrom
no_reorient  #important for SAPT in psi4, default
symmetry c1  #important for SAPT in psi4, default
}

set PROPERTIES_ORIGIN ["COM"]
properties('MP2/aug-cc-pvtz', properties = ['dipole'])
--------------------------------------------------------------------------

    Molecular point group: c1
  Charge       = 0
  Multiplicity = 1
  Basis Set: AUG-CC-PVTZ
    Blend: AUG-CC-PVTZ
  Basis Set: (AUG-CC-PVTZ AUX)
    Blend: AUG-CC-PVTZ-JKFIT

    Orbital Energies [Eh]
    ---------------------

    Doubly Occupied:

       1A    -20.541762     2A    -11.283539     3A    -11.230557
       4A    -11.226083     5A    -11.222822     6A    -11.221541
       7A    -11.217071     8A     -1.317317     9A     -1.096325
      10A     -1.041654    11A     -0.977126    12A     -0.878191
      13A     -0.809292    14A     -0.760086    15A     -0.669854
      16A     -0.628120    17A     -0.617929    18A     -0.599103
      19A     -0.588360    20A     -0.551107    21A     -0.540645
      22A     -0.529798    23A     -0.513923    24A     -0.487216
      25A     -0.483146    26A     -0.472331    27A     -0.447160
      28A     -0.352588

  @DF-RHF Final Energy:  -309.13978248175277

   => Energetics <=

    Nuclear Repulsion Energy =            298.9396906058991590
    One-Electron Energy =               -1011.5496508136195644
    Two-Electron Energy =                 403.4701777259676305
    Total Energy =                       -309.1397824817527749
  Basis Set: (AUG-CC-PVTZ AUX)
    Blend: AUG-CC-PVTZ-RI
    Molecular point group: c1

    Geometry (in Angstrom), charge = 0, multiplicity = 1:

       Center              X                  Y                   Z               Mass
    ------------   -----------------  -----------------  -----------------  -----------------
         O           -2.347838680668    -1.124349660769    -0.123801963311    15.994914619570
         C           -1.465064280668     0.040607439231     0.344631336689    12.000000000000
         C           -0.177147680668    -0.262063660769    -0.293498963311    12.000000000000
         C            2.327993319332    -0.453523660769    -0.203383963311    12.000000000000
         C            0.967109319332    -0.290253660769     0.399971036689    12.000000000000
         C           -2.117204680668     1.297456339231    -0.124950963311    12.000000000000
         C            3.206402319332     0.778072339231     0.023668036689    12.000000000000
         H           -1.427699680668    -0.049332660769     1.411536036689     1.007825032230
         H           -0.167827680668    -0.393054660769    -1.376248963311     1.007825032230
         H            2.228208319332    -0.648196660769    -1.276967963311     1.007825032230
         H            2.819294319332    -1.332281660769     0.233181036689     1.007825032230
         H            0.929888319332    -0.167668660769     1.484371036689     1.007825032230
         H           -1.483336680668     2.128957339231     0.194135036689     1.007825032230
         H           -2.207760680668     1.317763339231    -1.214182963311     1.007825032230
         H           -3.113778680668     1.442167339231     0.308068036689     1.007825032230
         H            3.323191319332     0.983195339231     1.091806036689     1.007825032230
         H            2.756719319332     1.659737339231    -0.440482963311     1.007825032230
         H            4.203482319332     0.636589339231    -0.402806963311     1.007825032230
         H           -3.248052680668    -0.953724660769     0.208825036689     1.007825032230

  Basis Set: AUG-CC-PVTZ
    Blend: AUG-CC-PVTZ
  Basis Set: (AUG-CC-PVTZ AUX)
    Blend: AUG-CC-PVTZ-JKFIT
	 Reference Energy          =    -309.1397824817527749 [Eh]
	 Singles Energy            =      -0.0000000000000000 [Eh]
	 Same-Spin Energy          =      -0.3173446390580105 [Eh]
	 Opposite-Spin Energy      =      -1.1045647889813250 [Eh]
	 Correlation Energy        =      -1.4219094280393356 [Eh]
	 Total Energy              =    -310.5616919097921027 [Eh]

	 ================> DF-SCS-MP2 Energies <==================
	-----------------------------------------------------------
	 SCS Same-Spin Scale       =       0.3333333333333333 [-]
	 SCS Opposite-Spin Scale   =       1.2000000000000000 [-]
	 SCS Same-Spin Energy      =      -0.1057815463526702 [Eh]
	 SCS Opposite-Spin Energy  =      -1.3254777467775900 [Eh]
	 SCS Correlation Energy    =      -1.4312592931302601 [Eh]
	 SCS Total Energy          =    -310.5710417748830423 [Eh]
	-----------------------------------------------------------

  Dipole Moment: [D]
     X:     0.2003      Y:     1.6729      Z:     0.8770     Total:     1.8994

*** Psi4 exiting successfully. Buy a developer a beer!
