                               Psi4 1.3.2 release

  ==> Input File <==

--------------------------------------------------------------------------
#psi4
#
memory 32 gb

molecule  {
0 1
  O       -2.3308821    -1.0918640    -0.1908190
  C       -1.5156830    -0.0261920     0.3177710
  C       -0.1702520    -0.2529640    -0.2898400
  C        2.3348890    -0.4444240    -0.1997250
  C        0.9740050    -0.2811540     0.4036300
  C       -2.1103090     1.3065560    -0.1212920
  C        3.2132980     0.7871720     0.0273270
  H       -1.3874396     0.0066563     1.4113949
  H       -0.1609320    -0.3839550    -1.3725900
  H        2.2351040    -0.6390970    -1.2733090
  H        2.8261900    -1.3231820     0.2368400
  H        0.9367840    -0.1585690     1.4880300
  H       -1.4764410     2.1380570     0.1977940
  H       -2.2008650     1.3268630    -1.2105240
  H       -3.1068830     1.4512670     0.3117270
  H        3.3300870     0.9922950     1.0954650
  H        2.7636150     1.6688370    -0.4368240
  H        4.2103780     0.6456890    -0.3991480
  H       -3.2411570    -0.9446250     0.2124840
units angstrom
no_reorient  #important for SAPT in psi4, default
symmetry c1  #important for SAPT in psi4, default
}

set PROPERTIES_ORIGIN ["COM"]
properties('MP2/aug-cc-pvtz', properties = ['dipole'])
--------------------------------------------------------------------------

    Molecular point group: c1
  Charge       = 0
  Multiplicity = 1
  Basis Set: AUG-CC-PVTZ
    Blend: AUG-CC-PVTZ
  Basis Set: (AUG-CC-PVTZ AUX)
    Blend: AUG-CC-PVTZ-JKFIT

    Orbital Energies [Eh]
    ---------------------

    Doubly Occupied:

       1A    -20.561604     2A    -11.282915     3A    -11.226799
       4A    -11.224027     5A    -11.220000     6A    -11.217502
       7A    -11.214914     8A     -1.350907     9A     -1.089312
      10A     -1.032570    11A     -0.970524    12A     -0.874688
      13A     -0.807951    14A     -0.755417    15A     -0.681365
      16A     -0.632497    17A     -0.618674    18A     -0.598016
      19A     -0.588478    20A     -0.543098    21A     -0.538733
      22A     -0.530840    23A     -0.516805    24A     -0.502709
      25A     -0.481548    26A     -0.461803    27A     -0.444269
      28A     -0.348894

  @DF-RHF Final Energy:  -309.14411318071387

   => Energetics <=

    Nuclear Repulsion Energy =            299.3819725850355553
    One-Electron Energy =               -1012.4184521686443077
    Two-Electron Energy =                 403.8923664028948792
    Total Energy =                       -309.1441131807138731
  Basis Set: (AUG-CC-PVTZ AUX)
    Blend: AUG-CC-PVTZ-RI
    Molecular point group: c1

    Geometry (in Angstrom), charge = 0, multiplicity = 1:

       Center              X                  Y                   Z               Mass
    ------------   -----------------  -----------------  -----------------  -----------------
         O           -2.332825937788    -1.096073245028    -0.179486098121    15.994914619570
         C           -1.517626837788    -0.030401245028     0.329103901879    12.000000000000
         C           -0.172195837788    -0.257173245028    -0.278507098121    12.000000000000
         C            2.332945162212    -0.448633245028    -0.188392098121    12.000000000000
         C            0.972061162212    -0.285363245028     0.414962901879    12.000000000000
         C           -2.112252837788     1.302346754972    -0.109959098121    12.000000000000
         C            3.211354162212     0.782962754972     0.038659901879    12.000000000000
         H           -1.389383437788     0.002447054972     1.422727801879     1.007825032230
         H           -0.162875837788    -0.388164245028    -1.361257098121     1.007825032230
         H            2.233160162212    -0.643306245028    -1.261976098121     1.007825032230
         H            2.824246162212    -1.327391245028     0.248172901879     1.007825032230
         H            0.934840162212    -0.162778245028     1.499362901879     1.007825032230
         H           -1.478384837788     2.133847754972     0.209126901879     1.007825032230
         H           -2.202808837788     1.322653754972    -1.199191098121     1.007825032230
         H           -3.108826837788     1.447057754972     0.323059901879     1.007825032230
         H            3.328143162212     0.988085754972     1.106797901879     1.007825032230
         H            2.761671162212     1.664627754972    -0.425491098121     1.007825032230
         H            4.208434162212     0.641479754972    -0.387815098121     1.007825032230
         H           -3.243100837788    -0.948834245028     0.223816901879     1.007825032230

  Basis Set: AUG-CC-PVTZ
    Blend: AUG-CC-PVTZ
  Basis Set: (AUG-CC-PVTZ AUX)
    Blend: AUG-CC-PVTZ-JKFIT
	 Reference Energy          =    -309.1441131807138731 [Eh]
	 Singles Energy            =      -0.0000000000000000 [Eh]
	 Same-Spin Energy          =      -0.3172377667231743 [Eh]
	 Opposite-Spin Energy      =      -1.1039126501393559 [Eh]
	 Correlation Energy        =      -1.4211504168625302 [Eh]
	 Total Energy              =    -310.5652635975764042 [Eh]

	 ================> DF-SCS-MP2 Energies <==================
	-----------------------------------------------------------
	 SCS Same-Spin Scale       =       0.3333333333333333 [-]
	 SCS Opposite-Spin Scale   =       1.2000000000000000 [-]
	 SCS Same-Spin Energy      =      -0.1057459222410581 [Eh]
	 SCS Opposite-Spin Energy  =      -1.3246951801672271 [Eh]
	 SCS Correlation Energy    =      -1.4304411024082853 [Eh]
	 SCS Total Energy          =    -310.5745542831221542 [Eh]
	-----------------------------------------------------------

  Dipole Moment: [D]
     X:    -0.1271      Y:     1.2782      Z:     0.9425     Total:     1.5931

*** Psi4 exiting successfully. Buy a developer a beer!
