                               Psi4 1.3.2 release

  ==> Input File <==

--------------------------------------------------------------------------
#psi4
#
memory 32 gb

molecule  {
0 1
  O       -2.3409430    -1.1152500    -0.1201430
  C       -1.5156830    -0.0261920     0.3177710
  C       -0.1702520    -0.2529640    -0.2898400
  C        2.3555622    -0.4405969    -0.1518673
  C        0.9740050    -0.2811540     0.4036300
  C       -2.1103090     1.3065560    -0.1212920
  C        3.2132980     0.7871720     0.0273270
  H       -1.4208040    -0.0402330     1.4151950
  H       -0.1609320    -0.3839550    -1.3725900
  H        2.2351040    -0.6390970    -1.2733090
  H        2.8261900    -1.3231820     0.2368400
  H        0.9747983    -0.1611628     1.4889582
  H       -1.4764410     2.1380570     0.1977940
  H       -2.2008650     1.3268630    -1.2105240
  H       -3.1068830     1.4512670     0.3117270
  H        3.3300870     0.9922950     1.0954650
  H        2.7636150     1.6688370    -0.4368240
  H        4.2103780     0.6456890    -0.3991480
  H       -3.2411570    -0.9446250     0.2124840
units angstrom
no_reorient  #important for SAPT in psi4, default
symmetry c1  #important for SAPT in psi4, default
}

set PROPERTIES_ORIGIN ["COM"]
properties('MP2/aug-cc-pvtz', properties = ['dipole'])
--------------------------------------------------------------------------

    Molecular point group: c1
  Charge       = 0
  Multiplicity = 1
  Basis Set: AUG-CC-PVTZ
    Blend: AUG-CC-PVTZ
  Basis Set: (AUG-CC-PVTZ AUX)
    Blend: AUG-CC-PVTZ-JKFIT

    Orbital Energies [Eh]
    ---------------------

    Doubly Occupied:

       1A    -20.555579     2A    -11.283329     3A    -11.228264
       4A    -11.225085     5A    -11.222686     6A    -11.219582
       7A    -11.214770     8A     -1.354376     9A     -1.090574
      10A     -1.035746    11A     -0.972583    12A     -0.876694
      13A     -0.810003    14A     -0.753920    15A     -0.681862
      16A     -0.635276    17A     -0.624827    18A     -0.601400
      19A     -0.587007    20A     -0.544316    21A     -0.539721
      22A     -0.535741    23A     -0.521774    24A     -0.503095
      25A     -0.470039    26A     -0.459468    27A     -0.443828
      28A     -0.351835

  @DF-RHF Final Energy:  -309.14576861090990

   => Energetics <=

    Nuclear Repulsion Energy =            299.2167653787232098
    One-Electron Energy =               -1012.0383094884855382
    Two-Electron Energy =                 403.6757754988523743
    Total Energy =                       -309.1457686109098972
  Basis Set: (AUG-CC-PVTZ AUX)
    Blend: AUG-CC-PVTZ-RI
    Molecular point group: c1

    Geometry (in Angstrom), charge = 0, multiplicity = 1:

       Center              X                  Y                   Z               Mass
    ------------   -----------------  -----------------  -----------------  -----------------
         O           -2.343804437313    -1.115682577474    -0.125890071389    15.994914619570
         C           -1.518544437313    -0.026624577474     0.312023928611    12.000000000000
         C           -0.173113437313    -0.253396577474    -0.295587071389    12.000000000000
         C            2.352700762687    -0.441029477474    -0.157614371389    12.000000000000
         C            0.971143562687    -0.281586577474     0.397882928611    12.000000000000
         C           -2.113170437313     1.306123422526    -0.127039071389    12.000000000000
         C            3.210436562687     0.786739422526     0.021579928611    12.000000000000
         H           -1.423665437313    -0.040665577474     1.409447928611     1.007825032230
         H           -0.163793437313    -0.384387577474    -1.378337071389     1.007825032230
         H            2.232242562687    -0.639529577474    -1.279056071389     1.007825032230
         H            2.823328562687    -1.323614577474     0.231092928611     1.007825032230
         H            0.971936862687    -0.161595377474     1.483211128611     1.007825032230
         H           -1.479302437313     2.137624422526     0.192046928611     1.007825032230
         H           -2.203726437313     1.326430422526    -1.216271071389     1.007825032230
         H           -3.109744437313     1.450834422526     0.305979928611     1.007825032230
         H            3.327225562687     0.991862422526     1.089717928611     1.007825032230
         H            2.760753562687     1.668404422526    -0.442571071389     1.007825032230
         H            4.207516562687     0.645256422526    -0.404895071389     1.007825032230
         H           -3.244018437313    -0.945057577474     0.206736928611     1.007825032230

  Basis Set: AUG-CC-PVTZ
    Blend: AUG-CC-PVTZ
  Basis Set: (AUG-CC-PVTZ AUX)
    Blend: AUG-CC-PVTZ-JKFIT
	 Reference Energy          =    -309.1457686109098972 [Eh]
	 Singles Energy            =      -0.0000000000000000 [Eh]
	 Same-Spin Energy          =      -0.3166776397438105 [Eh]
	 Opposite-Spin Energy      =      -1.1027329357967259 [Eh]
	 Correlation Energy        =      -1.4194105755405364 [Eh]
	 Total Energy              =    -310.5651791864504503 [Eh]

	 ================> DF-SCS-MP2 Energies <==================
	-----------------------------------------------------------
	 SCS Same-Spin Scale       =       0.3333333333333333 [-]
	 SCS Opposite-Spin Scale   =       1.2000000000000000 [-]
	 SCS Same-Spin Energy      =      -0.1055592132479368 [Eh]
	 SCS Opposite-Spin Energy  =      -1.3232795229560710 [Eh]
	 SCS Correlation Energy    =      -1.4288387362040078 [Eh]
	 SCS Total Energy          =    -310.5746073471138970 [Eh]
	-----------------------------------------------------------

  Dipole Moment: [D]
     X:    -0.1001      Y:     1.3870      Z:     0.8422     Total:     1.6257

*** Psi4 exiting successfully. Buy a developer a beer!
