                               Psi4 1.4a3.dev225

  ==> Input File <==

--------------------------------------------------------------------------
#psi4
#
memory 32 gb

molecule  {
0 1
  O       -2.4334040    -1.0537050    -0.1031880
  C       -1.5599110     0.0061750     0.3163080
  C       -0.2252920    -0.2882920    -0.2906650
  C        2.2718840    -0.5904540    -0.1973150
  C        0.9184280    -0.3582560     0.4039980
  C       -2.0985830     1.3582810    -0.1413790
  C        3.2072160     0.6032460     0.0168350
  H       -1.4627270     0.0051460     1.4138490
  H       -0.2231950    -0.4335060    -1.3719210
  H        2.1635620    -0.7923810    -1.2691220
  H        2.7222980    -1.4861610     0.2495370
  H        0.8874174    -0.2220574     1.4671014
  H       -1.4287050     2.1666040     0.1650490
  H       -2.1908800     1.3667930    -1.2308750
  H       -3.0873820     1.5512680     0.2912850
  H        3.3343300     0.8133780     1.0831920
  H        2.7976640     1.4999730    -0.4563300
  H        4.1964720     0.4112550    -0.4090930
  H       -3.3235000    -0.8374140     0.2263080
units angstrom
no_reorient  #important for SAPT in psi4, default
symmetry c1  #important for SAPT in psi4, default
}

set PROPERTIES_ORIGIN ["COM"]
properties('MP2/aug-cc-pvtz', properties = ['dipole'])
--------------------------------------------------------------------------

    Molecular point group: c1
  Charge       = 0
  Multiplicity = 1
  Basis Set: AUG-CC-PVTZ
    Blend: AUG-CC-PVTZ
  Basis Set: (AUG-CC-PVTZ AUX)
    Blend: AUG-CC-PVTZ-JKFIT

    Orbital Energies [Eh]
    ---------------------

    Doubly Occupied:

       1A    -20.555238     2A    -11.283347     3A    -11.225937
       4A    -11.224618     5A    -11.221243     6A    -11.219701
       7A    -11.215565     8A     -1.353896     9A     -1.089700
      10A     -1.033001    11A     -0.971000    12A     -0.875875
      13A     -0.810451    14A     -0.757017    15A     -0.682212
      16A     -0.633328    17A     -0.624483    18A     -0.597903
      19A     -0.589338    20A     -0.542938    21A     -0.540528
      22A     -0.531647    23A     -0.516106    24A     -0.501915
      25A     -0.482524    26A     -0.462843    27A     -0.443683
      28A     -0.349445

  @DF-RHF Final Energy:  -309.14945097283328

   => Energetics <=

    Nuclear Repulsion Energy =            299.0153648332665171
    One-Electron Energy =               -1011.6586669227787070
    Two-Electron Energy =                 403.4938511166789112
    Total Energy =                       -309.1494509728332787
  Basis Set: (AUG-CC-PVTZ AUX)
    Blend: AUG-CC-PVTZ-RI
    Molecular point group: c1

    Geometry (in Angstrom), charge = 0, multiplicity = 1:

       Center              X                  Y                   Z               Mass
    ------------   -----------------  -----------------  -----------------  -----------------
         O           -2.390067336706    -1.013630710930    -0.101220998762    15.994914619570
         C           -1.516574336706     0.046249289070     0.318275001238    12.000000000000
         C           -0.181955336706    -0.248217710930    -0.288697998762    12.000000000000
         C            2.315220663294    -0.550379710930    -0.195347998762    12.000000000000
         C            0.961764663294    -0.318181710930     0.405965001238    12.000000000000
         C           -2.055246336706     1.398355289070    -0.139411998762    12.000000000000
         C            3.250552663294     0.643320289070     0.018802001238    12.000000000000
         H           -1.419390336706     0.045220289070     1.415816001238     1.007825032230
         H           -0.179858336706    -0.393431710930    -1.369953998762     1.007825032230
         H            2.206898663294    -0.752306710930    -1.267154998762     1.007825032230
         H            2.765634663294    -1.446086710930     0.251504001238     1.007825032230
         H            0.930754063294    -0.181983110930     1.469068401238     1.007825032230
         H           -1.385368336706     2.206678289070     0.167016001238     1.007825032230
         H           -2.147543336706     1.406867289070    -1.228907998762     1.007825032230
         H           -3.044045336706     1.591342289070     0.293252001238     1.007825032230
         H            3.377666663294     0.853452289070     1.085159001238     1.007825032230
         H            2.841000663294     1.540047289070    -0.454362998762     1.007825032230
         H            4.239808663294     0.451329289070    -0.407125998762     1.007825032230
         H           -3.280163336706    -0.797339710930     0.228275001238     1.007825032230

  Basis Set: AUG-CC-PVTZ
    Blend: AUG-CC-PVTZ
  Basis Set: (AUG-CC-PVTZ AUX)
    Blend: AUG-CC-PVTZ-JKFIT
	 Reference Energy          =    -309.1494509728332787 [Eh]
	 Singles Energy            =      -0.0000000000000000 [Eh]
	 Same-Spin Energy          =      -0.3164300235235933 [Eh]
	 Opposite-Spin Energy      =      -1.1022697355908257 [Eh]
	 Correlation Energy        =      -1.4186997591144190 [Eh]
	 Total Energy              =    -310.5681507319476964 [Eh]

	 ================> DF-SCS-MP2 Energies <==================
	-----------------------------------------------------------
	 SCS Same-Spin Scale       =       0.3333333333333333 [-]
	 SCS Opposite-Spin Scale   =       1.2000000000000000 [-]
	 SCS Same-Spin Energy      =      -0.1054766745078644 [Eh]
	 SCS Opposite-Spin Energy  =      -1.3227236827089908 [Eh]
	 SCS Correlation Energy    =      -1.4282003572168551 [Eh]
	 SCS Total Energy          =    -310.5776513300501165 [Eh]
	-----------------------------------------------------------

  Dipole Moment: [D]
     X:    -0.0313      Y:     1.4002      Z:     0.8010     Total:     1.6134

*** Psi4 exiting successfully. Buy a developer a beer!
