                               Psi4 1.3.2 release

  ==> Input File <==

--------------------------------------------------------------------------
#psi4
#
memory 32 gb

molecule  {
0 1
  O       -2.3409430    -1.1152500    -0.1201430
  C       -1.4766620    -0.0477248     0.2949211
  C       -0.1702520    -0.2529640    -0.2898400
  C        2.3348890    -0.4444240    -0.1997250
  C        0.9740050    -0.2811540     0.4036300
  C       -2.1103090     1.3065560    -0.1212920
  C        3.2132980     0.7871720     0.0273270
  H       -1.4208040    -0.0402330     1.4151950
  H       -0.1609320    -0.3839550    -1.3725900
  H        2.2351040    -0.6390970    -1.2733090
  H        2.8261900    -1.3231820     0.2368400
  H        0.9367840    -0.1585690     1.4880300
  H       -1.4764410     2.1380570     0.1977940
  H       -2.2008650     1.3268630    -1.2105240
  H       -3.1068830     1.4512670     0.3117270
  H        3.3300870     0.9922950     1.0954650
  H        2.7636150     1.6688370    -0.4368240
  H        4.2103780     0.6456890    -0.3991480
  H       -3.2514103    -0.9735765     0.1978458
units angstrom
no_reorient  #important for SAPT in psi4, default
symmetry c1  #important for SAPT in psi4, default
}

set PROPERTIES_ORIGIN ["COM"]
properties('MP2/aug-cc-pvtz', properties = ['dipole'])
--------------------------------------------------------------------------

    Molecular point group: c1
  Charge       = 0
  Multiplicity = 1
  Basis Set: AUG-CC-PVTZ
    Blend: AUG-CC-PVTZ
  Basis Set: (AUG-CC-PVTZ AUX)
    Blend: AUG-CC-PVTZ-JKFIT

    Orbital Energies [Eh]
    ---------------------

    Doubly Occupied:

       1A    -20.552350     2A    -11.283361     3A    -11.230249
       4A    -11.225635     5A    -11.219448     6A    -11.218948
       7A    -11.216100     8A     -1.350753     9A     -1.094393
      10A     -1.034595    11A     -0.968479    12A     -0.880364
      13A     -0.811361    14A     -0.755304    15A     -0.681070
      16A     -0.639144    17A     -0.622612    18A     -0.598117
      19A     -0.587491    20A     -0.543242    21A     -0.538332
      22A     -0.530423    23A     -0.517580    24A     -0.498361
      25A     -0.482994    26A     -0.469642    27A     -0.436121
      28A     -0.350003

  @DF-RHF Final Energy:  -309.14637082699977

   => Energetics <=

    Nuclear Repulsion Energy =            299.5143576833846168
    One-Electron Energy =               -1012.6485100737392031
    Two-Electron Energy =                 403.9877815633547584
    Total Energy =                       -309.1463708269997710
  Basis Set: (AUG-CC-PVTZ AUX)
    Blend: AUG-CC-PVTZ-RI
    Molecular point group: c1

    Geometry (in Angstrom), charge = 0, multiplicity = 1:

       Center              X                  Y                   Z               Mass
    ------------   -----------------  -----------------  -----------------  -----------------
         O           -2.345518198281    -1.112376686103    -0.117255945713    15.994914619570
         C           -1.481237198281    -0.044851486103     0.297808154287    12.000000000000
         C           -0.174827198281    -0.250090686103    -0.286952945713    12.000000000000
         C            2.330313801719    -0.441550686103    -0.196837945713    12.000000000000
         C            0.969429801719    -0.278280686103     0.406517054287    12.000000000000
         C           -2.114884198281     1.309429313897    -0.118404945713    12.000000000000
         C            3.208722801719     0.790045313897     0.030214054287    12.000000000000
         H           -1.425379198281    -0.037359686103     1.418082054287     1.007825032230
         H           -0.165507198281    -0.381081686103    -1.369702945713     1.007825032230
         H            2.230528801719    -0.636223686103    -1.270421945713     1.007825032230
         H            2.821614801719    -1.320308686103     0.239727054287     1.007825032230
         H            0.932208801719    -0.155695686103     1.490917054287     1.007825032230
         H           -1.481016198281     2.140930313897     0.200681054287     1.007825032230
         H           -2.205440198281     1.329736313897    -1.207636945713     1.007825032230
         H           -3.111458198281     1.454140313897     0.314614054287     1.007825032230
         H            3.325511801719     0.995168313897     1.098352054287     1.007825032230
         H            2.759039801719     1.671710313897    -0.433936945713     1.007825032230
         H            4.205802801719     0.648562313897    -0.396260945713     1.007825032230
         H           -3.255985498281    -0.970703186103     0.200732854287     1.007825032230

  Basis Set: AUG-CC-PVTZ
    Blend: AUG-CC-PVTZ
  Basis Set: (AUG-CC-PVTZ AUX)
    Blend: AUG-CC-PVTZ-JKFIT
	 Reference Energy          =    -309.1463708269997710 [Eh]
	 Singles Energy            =      -0.0000000000000000 [Eh]
	 Same-Spin Energy          =      -0.3167338328557198 [Eh]
	 Opposite-Spin Energy      =      -1.1024402191077571 [Eh]
	 Correlation Energy        =      -1.4191740519634770 [Eh]
	 Total Energy              =    -310.5655448789632374 [Eh]

	 ================> DF-SCS-MP2 Energies <==================
	-----------------------------------------------------------
	 SCS Same-Spin Scale       =       0.3333333333333333 [-]
	 SCS Opposite-Spin Scale   =       1.2000000000000000 [-]
	 SCS Same-Spin Energy      =      -0.1055779442852399 [Eh]
	 SCS Opposite-Spin Energy  =      -1.3229282629293084 [Eh]
	 SCS Correlation Energy    =      -1.4285062072145482 [Eh]
	 SCS Total Energy          =    -310.5748770342142961 [Eh]
	-----------------------------------------------------------

  Dipole Moment: [D]
     X:    -0.0064      Y:     1.3051      Z:     0.7903     Total:     1.5257

*** Psi4 exiting successfully. Buy a developer a beer!
