                               Psi4 1.3.2 release

  ==> Input File <==

--------------------------------------------------------------------------
#psi4
#
memory 32 gb

molecule  {
0 1
  O       -2.3409430    -1.1152500    -0.1201430
  C       -1.4006543     0.1256062     0.3788096
  C       -0.1702520    -0.2529640    -0.2898400
  C        2.3348890    -0.4444240    -0.1997250
  C        0.9740050    -0.2811540     0.4036300
  C       -2.1103090     1.3065560    -0.1212920
  C        3.2132980     0.7871720     0.0273270
  H       -1.4208040    -0.0402330     1.4151950
  H       -0.1609320    -0.3839550    -1.3725900
  H        2.2351040    -0.6390970    -1.2733090
  H        2.8261900    -1.3231820     0.2368400
  H        0.9367840    -0.1585690     1.4880300
  H       -1.4764410     2.1380570     0.1977940
  H       -2.2008650     1.3268630    -1.2105240
  H       -3.1068830     1.4512670     0.3117270
  H        3.3300870     0.9922950     1.0954650
  H        2.7636150     1.6688370    -0.4368240
  H        4.2103780     0.6456890    -0.3991480
  H       -3.2411570    -0.9446250     0.2124840
units angstrom
no_reorient  #important for SAPT in psi4, default
symmetry c1  #important for SAPT in psi4, default
}

set PROPERTIES_ORIGIN ["COM"]
properties('MP2/aug-cc-pvtz', properties = ['dipole'])
--------------------------------------------------------------------------

    Molecular point group: c1
  Charge       = 0
  Multiplicity = 1
  Basis Set: AUG-CC-PVTZ
    Blend: AUG-CC-PVTZ
  Basis Set: (AUG-CC-PVTZ AUX)
    Blend: AUG-CC-PVTZ-JKFIT

    Orbital Energies [Eh]
    ---------------------

    Doubly Occupied:

       1A    -20.526198     2A    -11.287747     3A    -11.234015
       4A    -11.228012     5A    -11.225871     6A    -11.224426
       7A    -11.219151     8A     -1.286690     9A     -1.103377
      10A     -1.048941    11A     -0.983354    12A     -0.881032
      13A     -0.810149    14A     -0.765157    15A     -0.666056
      16A     -0.626865    17A     -0.611827    18A     -0.601920
      19A     -0.585227    20A     -0.559679    21A     -0.542801
      22A     -0.531270    23A     -0.515646    24A     -0.486438
      25A     -0.479219    26A     -0.462001    27A     -0.440486
      28A     -0.354169

  @DF-RHF Final Energy:  -309.11828621148936

   => Energetics <=

    Nuclear Repulsion Energy =            298.6855517742570214
    One-Electron Energy =               -1011.0322306206020357
    Two-Electron Energy =                 403.2283926348555951
    Total Energy =                       -309.1182862114893624
  Basis Set: (AUG-CC-PVTZ AUX)
    Blend: AUG-CC-PVTZ-RI
    Molecular point group: c1

    Geometry (in Angstrom), charge = 0, multiplicity = 1:

       Center              X                  Y                   Z               Mass
    ------------   -----------------  -----------------  -----------------  -----------------
         O           -2.354734272348    -1.133449470772    -0.127461029511    15.994914619570
         C           -1.414445572348     0.107406729228     0.371491570489    12.000000000000
         C           -0.184043272348    -0.271163470772    -0.297158029511    12.000000000000
         C            2.321097727652    -0.462623470772    -0.207043029511    12.000000000000
         C            0.960213727652    -0.299353470772     0.396311970489    12.000000000000
         C           -2.124100272348     1.288356529228    -0.128610029511    12.000000000000
         C            3.199506727652     0.768972529228     0.020008970489    12.000000000000
         H           -1.434595272348    -0.058432470772     1.407876970489     1.007825032230
         H           -0.174723272348    -0.402154470772    -1.379908029511     1.007825032230
         H            2.221312727652    -0.657296470772    -1.280627029511     1.007825032230
         H            2.812398727652    -1.341381470772     0.229521970489     1.007825032230
         H            0.922992727652    -0.176768470772     1.480711970489     1.007825032230
         H           -1.490232272348     2.119857529228     0.190475970489     1.007825032230
         H           -2.214656272348     1.308663529228    -1.217842029511     1.007825032230
         H           -3.120674272348     1.433067529228     0.304408970489     1.007825032230
         H            3.316295727652     0.974095529228     1.088146970489     1.007825032230
         H            2.749823727652     1.650637529228    -0.444142029511     1.007825032230
         H            4.196586727652     0.627489529228    -0.406466029511     1.007825032230
         H           -3.254948272348    -0.962824470772     0.205165970489     1.007825032230

  Basis Set: AUG-CC-PVTZ
    Blend: AUG-CC-PVTZ
  Basis Set: (AUG-CC-PVTZ AUX)
    Blend: AUG-CC-PVTZ-JKFIT
	 Reference Energy          =    -309.1182862114893624 [Eh]
	 Singles Energy            =      -0.0000000000000000 [Eh]
	 Same-Spin Energy          =      -0.3186775691497516 [Eh]
	 Opposite-Spin Energy      =      -1.1075550228146298 [Eh]
	 Correlation Energy        =      -1.4262325919643815 [Eh]
	 Total Energy              =    -310.5445188034537409 [Eh]

	 ================> DF-SCS-MP2 Energies <==================
	-----------------------------------------------------------
	 SCS Same-Spin Scale       =       0.3333333333333333 [-]
	 SCS Opposite-Spin Scale   =       1.2000000000000000 [-]
	 SCS Same-Spin Energy      =      -0.1062258563832505 [Eh]
	 SCS Opposite-Spin Energy  =      -1.3290660273775556 [Eh]
	 SCS Correlation Energy    =      -1.4352918837608062 [Eh]
	 SCS Total Energy          =    -310.5535780952501455 [Eh]
	-----------------------------------------------------------

  Dipole Moment: [D]
     X:     0.4987      Y:     1.9442      Z:     0.9176     Total:     2.2069

*** Psi4 exiting successfully. Buy a developer a beer!
