                               Psi4 1.3.2 release

  ==> Input File <==

--------------------------------------------------------------------------
#psi4
#
memory 32 gb

molecule  {
0 1
  O       -2.3409430    -1.1152500    -0.1201430
  C       -1.5156830    -0.0261920     0.3177710
  C       -0.1702520    -0.2529640    -0.2898400
  C        2.3348890    -0.4444240    -0.1997250
  C        0.9740050    -0.2811540     0.4036300
  C       -2.1103090     1.3065560    -0.1212920
  C        3.2132980     0.7871720     0.0273270
  H       -1.4208040    -0.0402330     1.4151950
  H       -0.1609320    -0.3839550    -1.3725900
  H        2.2351040    -0.6390970    -1.2733090
  H        2.8261900    -1.3231820     0.2368400
  H        0.9367840    -0.1585690     1.4880300
  H       -1.4764410     2.1380570     0.1977940
  H       -2.2008650     1.3268630    -1.2105240
  H       -3.1068830     1.4512670     0.3117270
  H        3.3300870     0.9922950     1.0954650
  H        2.7636150     1.6688370    -0.4368240
  H        4.2103780     0.6456890    -0.3991480
  H       -3.1488037    -0.9621295     0.1783597
units angstrom
no_reorient  #important for SAPT in psi4, default
symmetry c1  #important for SAPT in psi4, default
}

set PROPERTIES_ORIGIN ["COM"]
properties('MP2/aug-cc-pvtz', properties = ['dipole'])
--------------------------------------------------------------------------

    Molecular point group: c1
  Charge       = 0
  Multiplicity = 1
  Basis Set: AUG-CC-PVTZ
    Blend: AUG-CC-PVTZ
  Basis Set: (AUG-CC-PVTZ AUX)
    Blend: AUG-CC-PVTZ-JKFIT

    Orbital Energies [Eh]
    ---------------------

    Doubly Occupied:

       1A    -20.545084     2A    -11.283906     3A    -11.227818
       4A    -11.224614     5A    -11.221141     6A    -11.220030
       7A    -11.215384     8A     -1.379424     9A     -1.091893
      10A     -1.037050    11A     -0.971771    12A     -0.879108
      13A     -0.815616    14A     -0.755659    15A     -0.696548
      16A     -0.636607    17A     -0.628827    18A     -0.598856
      19A     -0.589923    20A     -0.545365    21A     -0.540322
      22A     -0.532263    23A     -0.517245    24A     -0.503986
      25A     -0.482203    26A     -0.464286    27A     -0.446352
      28A     -0.350204

  @DF-RHF Final Energy:  -309.14494419454724

   => Energetics <=

    Nuclear Repulsion Energy =            299.8618138142243765
    One-Electron Energy =               -1013.2105427291412525
    Two-Electron Energy =                 404.2037847203695833
    Total Energy =                       -309.1449441945472358
  Basis Set: (AUG-CC-PVTZ AUX)
    Blend: AUG-CC-PVTZ-RI
    Molecular point group: c1

    Geometry (in Angstrom), charge = 0, multiplicity = 1:

       Center              X                  Y                   Z               Mass
    ------------   -----------------  -----------------  -----------------  -----------------
         O           -2.341873010754    -1.115073592577    -0.119799289048    15.994914619570
         C           -1.516613010754    -0.026015592577     0.318114710952    12.000000000000
         C           -0.171182010754    -0.252787592577    -0.289496289048    12.000000000000
         C            2.333958989246    -0.444247592577    -0.199381289048    12.000000000000
         C            0.973074989246    -0.280977592577     0.403973710952    12.000000000000
         C           -2.111239010754     1.306732407423    -0.120948289048    12.000000000000
         C            3.212367989246     0.787348407423     0.027670710952    12.000000000000
         H           -1.421734010754    -0.040056592577     1.415538710952     1.007825032230
         H           -0.161862010754    -0.383778592577    -1.372246289048     1.007825032230
         H            2.234173989246    -0.638920592577    -1.272965289048     1.007825032230
         H            2.825259989246    -1.323005592577     0.237183710952     1.007825032230
         H            0.935853989246    -0.158392592577     1.488373710952     1.007825032230
         H           -1.477371010754     2.138233407423     0.198137710952     1.007825032230
         H           -2.201795010754     1.327039407423    -1.210180289048     1.007825032230
         H           -3.107813010754     1.451443407423     0.312070710952     1.007825032230
         H            3.329156989246     0.992471407423     1.095808710952     1.007825032230
         H            2.762684989246     1.669013407423    -0.436480289048     1.007825032230
         H            4.209447989246     0.645865407423    -0.398804289048     1.007825032230
         H           -3.149733710754    -0.961953092577     0.178703410952     1.007825032230

  Basis Set: AUG-CC-PVTZ
    Blend: AUG-CC-PVTZ
  Basis Set: (AUG-CC-PVTZ AUX)
    Blend: AUG-CC-PVTZ-JKFIT
	 Reference Energy          =    -309.1449441945472358 [Eh]
	 Singles Energy            =      -0.0000000000000000 [Eh]
	 Same-Spin Energy          =      -0.3153059149297819 [Eh]
	 Opposite-Spin Energy      =      -1.0993450443983390 [Eh]
	 Correlation Energy        =      -1.4146509593281209 [Eh]
	 Total Energy              =    -310.5595951538753638 [Eh]

	 ================> DF-SCS-MP2 Energies <==================
	-----------------------------------------------------------
	 SCS Same-Spin Scale       =       0.3333333333333333 [-]
	 SCS Opposite-Spin Scale   =       1.2000000000000000 [-]
	 SCS Same-Spin Energy      =      -0.1051019716432606 [Eh]
	 SCS Opposite-Spin Energy  =      -1.3192140532780068 [Eh]
	 SCS Correlation Energy    =      -1.4243160249212674 [Eh]
	 SCS Total Energy          =    -310.5692602194685037 [Eh]
	-----------------------------------------------------------

  Dipole Moment: [D]
     X:    -0.0338      Y:     1.3911      Z:     0.7960     Total:     1.6031

*** Psi4 exiting successfully. Buy a developer a beer!
