                               Psi4 1.3.2 release

  ==> Input File <==

--------------------------------------------------------------------------
#psi4
#
memory 32 gb

molecule  {
0 1
  O       -2.3409430    -1.1152500    -0.1201430
  C       -1.5156830    -0.0261920     0.3177710
  C       -0.1770991    -0.1838483    -0.3257651
  C        2.3348890    -0.4444240    -0.1997250
  C        0.9740050    -0.2811540     0.4036300
  C       -2.0445345     1.3192335    -0.1646395
  C        3.2132980     0.7871720     0.0273270
  H       -1.4208040    -0.0402330     1.4151950
  H       -0.1609320    -0.3839550    -1.3725900
  H        2.2351040    -0.6390970    -1.2733090
  H        2.8261900    -1.3231820     0.2368400
  H        0.9367840    -0.1585690     1.4880300
  H       -1.4764410     2.1380570     0.1977940
  H       -2.2008650     1.3268630    -1.2105240
  H       -3.1068830     1.4512670     0.3117270
  H        3.3300870     0.9922950     1.0954650
  H        2.7636150     1.6688370    -0.4368240
  H        4.2103780     0.6456890    -0.3991480
  H       -3.2411570    -0.9446250     0.2124840
units angstrom
no_reorient  #important for SAPT in psi4, default
symmetry c1  #important for SAPT in psi4, default
}

set PROPERTIES_ORIGIN ["COM"]
properties('MP2/aug-cc-pvtz', properties = ['dipole'])
--------------------------------------------------------------------------

    Molecular point group: c1
  Charge       = 0
  Multiplicity = 1
  Basis Set: AUG-CC-PVTZ
    Blend: AUG-CC-PVTZ
  Basis Set: (AUG-CC-PVTZ AUX)
    Blend: AUG-CC-PVTZ-JKFIT

    Orbital Energies [Eh]
    ---------------------

    Doubly Occupied:

       1A    -20.557803     2A    -11.283414     3A    -11.231346
       4A    -11.224118     5A    -11.222132     6A    -11.219621
       7A    -11.214811     8A     -1.355012     9A     -1.088158
      10A     -1.036140    11A     -0.966668    12A     -0.874301
      13A     -0.808647    14A     -0.760155    15A     -0.683273
      16A     -0.633242    17A     -0.627744    18A     -0.595621
      19A     -0.592558    20A     -0.554285    21A     -0.536217
      22A     -0.522715    23A     -0.516700    24A     -0.503820
      25A     -0.481520    26A     -0.457769    27A     -0.448103
      28A     -0.341482

  @DF-RHF Final Energy:  -309.13776647895054

   => Energetics <=

    Nuclear Repulsion Energy =            299.2647957779982448
    One-Electron Energy =               -1012.1303761102134331
    Two-Electron Energy =                 403.7278138532645926
    Total Energy =                       -309.1377664789505388
  Basis Set: (AUG-CC-PVTZ AUX)
    Blend: AUG-CC-PVTZ-RI
    Molecular point group: c1

    Geometry (in Angstrom), charge = 0, multiplicity = 1:

       Center              X                  Y                   Z               Mass
    ------------   -----------------  -----------------  -----------------  -----------------
         O           -2.348008090207    -1.125056325145    -0.110638626329    15.994914619570
         C           -1.522748090207    -0.035998325145     0.327275373671    12.000000000000
         C           -0.184164190207    -0.193654625145    -0.316260726329    12.000000000000
         C            2.327823909793    -0.454230325145    -0.190220626329    12.000000000000
         C            0.966939909793    -0.290960325145     0.413134373671    12.000000000000
         C           -2.051599590207     1.309427174855    -0.155135126329    12.000000000000
         C            3.206232909793     0.777365674855     0.036831373671    12.000000000000
         H           -1.427869090207    -0.050039325145     1.424699373671     1.007825032230
         H           -0.167997090207    -0.393761325145    -1.363085626329     1.007825032230
         H            2.228038909793    -0.648903325145    -1.263804626329     1.007825032230
         H            2.819124909793    -1.332988325145     0.246344373671     1.007825032230
         H            0.929718909793    -0.168375325145     1.497534373671     1.007825032230
         H           -1.483506090207     2.128250674855     0.207298373671     1.007825032230
         H           -2.207930090207     1.317056674855    -1.201019626329     1.007825032230
         H           -3.113948090207     1.441460674855     0.321231373671     1.007825032230
         H            3.323021909793     0.982488674855     1.104969373671     1.007825032230
         H            2.756549909793     1.659030674855    -0.427319626329     1.007825032230
         H            4.203312909793     0.635882674855    -0.389643626329     1.007825032230
         H           -3.248222090207    -0.954431325145     0.221988373671     1.007825032230

  Basis Set: AUG-CC-PVTZ
    Blend: AUG-CC-PVTZ
  Basis Set: (AUG-CC-PVTZ AUX)
    Blend: AUG-CC-PVTZ-JKFIT
	 Reference Energy          =    -309.1377664789505388 [Eh]
	 Singles Energy            =      -0.0000000000000000 [Eh]
	 Same-Spin Energy          =      -0.3171883708894688 [Eh]
	 Opposite-Spin Energy      =      -1.1038748706459276 [Eh]
	 Correlation Energy        =      -1.4210632415353963 [Eh]
	 Total Energy              =    -310.5588297204859600 [Eh]

	 ================> DF-SCS-MP2 Energies <==================
	-----------------------------------------------------------
	 SCS Same-Spin Scale       =       0.3333333333333333 [-]
	 SCS Opposite-Spin Scale   =       1.2000000000000000 [-]
	 SCS Same-Spin Energy      =      -0.1057294569631562 [Eh]
	 SCS Opposite-Spin Energy  =      -1.3246498447751132 [Eh]
	 SCS Correlation Energy    =      -1.4303793017382693 [Eh]
	 SCS Total Energy          =    -310.5681457806887806 [Eh]
	-----------------------------------------------------------

  Dipole Moment: [D]
     X:    -0.0768      Y:     1.2824      Z:     0.7927     Total:     1.5096

*** Psi4 exiting successfully. Buy a developer a beer!
