                               Psi4 1.3.2 release

  ==> Input File <==

--------------------------------------------------------------------------
#psi4
#
memory 32 gb

molecule  {
0 1
  O       -2.3409430    -1.1152500    -0.1201430
  C       -1.5156830    -0.0261920     0.3177710
  C       -0.1702520    -0.2529640    -0.2898400
  C        2.3348890    -0.4444240    -0.1997250
  C        1.0595064    -0.2832604     0.4554476
  C       -2.1103090     1.3065560    -0.1212920
  C        3.2132980     0.7871720     0.0273270
  H       -1.4208040    -0.0402330     1.4151950
  H       -0.1609320    -0.3839550    -1.3725900
  H        2.2351040    -0.6390970    -1.2733090
  H        2.8261900    -1.3231820     0.2368400
  H        0.9367840    -0.1585690     1.4880300
  H       -1.4764410     2.1380570     0.1977940
  H       -2.2008650     1.3268630    -1.2105240
  H       -3.1068830     1.4512670     0.3117270
  H        3.3300870     0.9922950     1.0954650
  H        2.7636150     1.6688370    -0.4368240
  H        4.2103780     0.6456890    -0.3991480
  H       -3.2411570    -0.9446250     0.2124840
units angstrom
no_reorient  #important for SAPT in psi4, default
symmetry c1  #important for SAPT in psi4, default
}

set PROPERTIES_ORIGIN ["COM"]
properties('MP2/aug-cc-pvtz', properties = ['dipole'])
--------------------------------------------------------------------------

    Molecular point group: c1
  Charge       = 0
  Multiplicity = 1
  Basis Set: AUG-CC-PVTZ
    Blend: AUG-CC-PVTZ
  Basis Set: (AUG-CC-PVTZ AUX)
    Blend: AUG-CC-PVTZ-JKFIT

    Orbital Energies [Eh]
    ---------------------

    Doubly Occupied:

       1A    -20.555128     2A    -11.283348     3A    -11.235851
       4A    -11.233383     5A    -11.222914     6A    -11.219087
       7A    -11.215576     8A     -1.353883     9A     -1.088584
      10A     -1.035560    11A     -0.960670    12A     -0.881375
      13A     -0.805961    14A     -0.761996    15A     -0.683006
      16A     -0.633996    17A     -0.624076    18A     -0.598253
      19A     -0.593641    20A     -0.543299    21A     -0.541754
      22A     -0.527353    23A     -0.516564    24A     -0.504203
      25A     -0.488775    26A     -0.466430    27A     -0.443022
      28A     -0.325837

  @DF-RHF Final Energy:  -309.13050586452960

   => Energetics <=

    Nuclear Repulsion Energy =            298.4395364418855365
    One-Electron Energy =               -1010.4530417127517694
    Two-Electron Energy =                 402.8829994063366939
    Total Energy =                       -309.1305058645295958
  Basis Set: (AUG-CC-PVTZ AUX)
    Blend: AUG-CC-PVTZ-RI
    Molecular point group: c1

    Geometry (in Angstrom), charge = 0, multiplicity = 1:

       Center              X                  Y                   Z               Mass
    ------------   -----------------  -----------------  -----------------  -----------------
         O           -2.351194140516    -1.114997307063    -0.126355491394    15.994914619570
         C           -1.525934140516    -0.025939307063     0.311558508606    12.000000000000
         C           -0.180503140516    -0.252711307063    -0.296052491394    12.000000000000
         C            2.324637859484    -0.444171307063    -0.205937491394    12.000000000000
         C            1.049255259484    -0.283007707063     0.449235108606    12.000000000000
         C           -2.120560140516     1.306808692937    -0.127504491394    12.000000000000
         C            3.203046859484     0.787424692937     0.021114508606    12.000000000000
         H           -1.431055140516    -0.039980307063     1.408982508606     1.007825032230
         H           -0.171183140516    -0.383702307063    -1.378802491394     1.007825032230
         H            2.224852859484    -0.638844307063    -1.279521491394     1.007825032230
         H            2.815938859484    -1.322929307063     0.230627508606     1.007825032230
         H            0.926532859484    -0.158316307063     1.481817508606     1.007825032230
         H           -1.486692140516     2.138309692937     0.191581508606     1.007825032230
         H           -2.211116140516     1.327115692937    -1.216736491394     1.007825032230
         H           -3.117134140516     1.451519692937     0.305514508606     1.007825032230
         H            3.319835859484     0.992547692937     1.089252508606     1.007825032230
         H            2.753363859484     1.669089692937    -0.443036491394     1.007825032230
         H            4.200126859484     0.645941692937    -0.405360491394     1.007825032230
         H           -3.251408140516    -0.944372307063     0.206271508606     1.007825032230

  Basis Set: AUG-CC-PVTZ
    Blend: AUG-CC-PVTZ
  Basis Set: (AUG-CC-PVTZ AUX)
    Blend: AUG-CC-PVTZ-JKFIT
	 Reference Energy          =    -309.1305058645295958 [Eh]
	 Singles Energy            =      -0.0000000000000000 [Eh]
	 Same-Spin Energy          =      -0.3184308647714723 [Eh]
	 Opposite-Spin Energy      =      -1.1060633391245585 [Eh]
	 Correlation Energy        =      -1.4244942038960309 [Eh]
	 Total Energy              =    -310.5550000684256133 [Eh]

	 ================> DF-SCS-MP2 Energies <==================
	-----------------------------------------------------------
	 SCS Same-Spin Scale       =       0.3333333333333333 [-]
	 SCS Opposite-Spin Scale   =       1.2000000000000000 [-]
	 SCS Same-Spin Energy      =      -0.1061436215904908 [Eh]
	 SCS Opposite-Spin Energy  =      -1.3272760069494700 [Eh]
	 SCS Correlation Energy    =      -1.4334196285399607 [Eh]
	 SCS Total Energy          =    -310.5639254930695756 [Eh]
	-----------------------------------------------------------

  Dipole Moment: [D]
     X:    -0.0262      Y:     1.3679      Z:     0.8330     Total:     1.6018

*** Psi4 exiting successfully. Buy a developer a beer!
