                               Psi4 1.4a3.dev225

  ==> Input File <==

--------------------------------------------------------------------------
#psi4
#
memory 32 gb

molecule  {
0 1
  O       -2.4334040    -1.0537050    -0.1031880
  C       -1.5599110     0.0061750     0.3163080
  C       -0.2252920    -0.2882920    -0.2906650
  C        2.2718840    -0.5904540    -0.1973150
  C        0.9184280    -0.3582560     0.4039980
  C       -2.0985830     1.3582810    -0.1413790
  C        3.2072160     0.6032460     0.0168350
  H       -1.4627270     0.0051460     1.4138490
  H       -0.2232334    -0.4308439    -1.3520990
  H        2.1635620    -0.7923810    -1.2691220
  H        2.7222980    -1.4861610     0.2495370
  H        0.8868390    -0.2195170     1.4869310
  H       -1.4287050     2.1666040     0.1650490
  H       -2.1908800     1.3667930    -1.2308750
  H       -3.0873820     1.5512680     0.2912850
  H        3.3343300     0.8133780     1.0831920
  H        2.7976640     1.4999730    -0.4563300
  H        4.1964720     0.4112550    -0.4090930
  H       -3.3235000    -0.8374140     0.2263080
units angstrom
no_reorient  #important for SAPT in psi4, default
symmetry c1  #important for SAPT in psi4, default
}

set PROPERTIES_ORIGIN ["COM"]
properties('MP2/aug-cc-pvtz', properties = ['dipole'])
--------------------------------------------------------------------------

    Molecular point group: c1
  Charge       = 0
  Multiplicity = 1
  Basis Set: AUG-CC-PVTZ
    Blend: AUG-CC-PVTZ
  Basis Set: (AUG-CC-PVTZ AUX)
    Blend: AUG-CC-PVTZ-JKFIT

    Orbital Energies [Eh]
    ---------------------

    Doubly Occupied:

       1A    -20.555201     2A    -11.283085     3A    -11.228083
       4A    -11.224950     5A    -11.219674     6A    -11.219149
       7A    -11.215606     8A     -1.353866     9A     -1.089623
      10A     -1.033111    11A     -0.971028    12A     -0.875828
      13A     -0.810368    14A     -0.757342    15A     -0.681362
      16A     -0.633013    17A     -0.624860    18A     -0.598043
      19A     -0.590172    20A     -0.542925    21A     -0.540308
      22A     -0.531971    23A     -0.516192    24A     -0.501928
      25A     -0.482092    26A     -0.462995    27A     -0.443642
      28A     -0.349471

  @DF-RHF Final Energy:  -309.14945852851980

   => Energetics <=

    Nuclear Repulsion Energy =            299.0186387422575649
    One-Electron Energy =               -1011.6644172172498202
    Two-Electron Energy =                 403.4963199464725108
    Total Energy =                       -309.1494585285198013
  Basis Set: (AUG-CC-PVTZ AUX)
    Blend: AUG-CC-PVTZ-RI
    Molecular point group: c1

    Geometry (in Angstrom), charge = 0, multiplicity = 1:

       Center              X                  Y                   Z               Mass
    ------------   -----------------  -----------------  -----------------  -----------------
         O           -2.390061125958    -1.013683096502    -0.101620262906    15.994914619570
         C           -1.516568125958     0.046196903498     0.317875737094    12.000000000000
         C           -0.181949125958    -0.248270096502    -0.289097262906    12.000000000000
         C            2.315226874042    -0.550432096502    -0.195747262906    12.000000000000
         C            0.961770874042    -0.318234096502     0.405565737094    12.000000000000
         C           -2.055240125958     1.398302903498    -0.139811262906    12.000000000000
         C            3.250558874042     0.643267903498     0.018402737094    12.000000000000
         H           -1.419384125958     0.045167903498     1.415416737094     1.007825032230
         H           -0.179890525958    -0.390821996502    -1.350531262906     1.007825032230
         H            2.206904874042    -0.752359096502    -1.267554262906     1.007825032230
         H            2.765640874042    -1.446139096502     0.251104737094     1.007825032230
         H            0.930181874042    -0.179495096502     1.488498737094     1.007825032230
         H           -1.385362125958     2.206625903498     0.166616737094     1.007825032230
         H           -2.147537125958     1.406814903498    -1.229307262906     1.007825032230
         H           -3.044039125958     1.591289903498     0.292852737094     1.007825032230
         H            3.377672874042     0.853399903498     1.084759737094     1.007825032230
         H            2.841006874042     1.539994903498    -0.454762262906     1.007825032230
         H            4.239814874042     0.451276903498    -0.407525262906     1.007825032230
         H           -3.280157125958    -0.797392096502     0.227875737094     1.007825032230

  Basis Set: AUG-CC-PVTZ
    Blend: AUG-CC-PVTZ
  Basis Set: (AUG-CC-PVTZ AUX)
    Blend: AUG-CC-PVTZ-JKFIT
	 Reference Energy          =    -309.1494585285198013 [Eh]
	 Singles Energy            =      -0.0000000000000000 [Eh]
	 Same-Spin Energy          =      -0.3164223470634096 [Eh]
	 Opposite-Spin Energy      =      -1.1022712117287090 [Eh]
	 Correlation Energy        =      -1.4186935587921186 [Eh]
	 Total Energy              =    -310.5681520873119439 [Eh]

	 ================> DF-SCS-MP2 Energies <==================
	-----------------------------------------------------------
	 SCS Same-Spin Scale       =       0.3333333333333333 [-]
	 SCS Opposite-Spin Scale   =       1.2000000000000000 [-]
	 SCS Same-Spin Energy      =      -0.1054741156878032 [Eh]
	 SCS Opposite-Spin Energy  =      -1.3227254540744509 [Eh]
	 SCS Correlation Energy    =      -1.4281995697622540 [Eh]
	 SCS Total Energy          =    -310.5776580982820292 [Eh]
	-----------------------------------------------------------

  Dipole Moment: [D]
     X:    -0.0264      Y:     1.3982      Z:     0.7839     Total:     1.6031

*** Psi4 exiting successfully. Buy a developer a beer!
