                               Psi4 1.4a3.dev225

  ==> Input File <==

--------------------------------------------------------------------------
#psi4
#
memory 32 gb

molecule  {
0 1
  O       -2.4334040    -1.0537050    -0.1031880
  C       -1.5599110     0.0061750     0.3163080
  C       -0.2252920    -0.2882920    -0.2906650
  C        2.2718840    -0.5904540    -0.1973150
  C        0.8732861    -0.3505115     0.4240536
  C       -2.0985830     1.3582810    -0.1413790
  C        3.2072160     0.6032460     0.0168350
  H       -1.4627270     0.0051460     1.4138490
  H       -0.2231950    -0.4335060    -1.3719210
  H        2.1635620    -0.7923810    -1.2691220
  H        2.7222980    -1.4861610     0.2495370
  H        0.8868390    -0.2195170     1.4869310
  H       -1.4287050     2.1666040     0.1650490
  H       -2.1908800     1.3667930    -1.2308750
  H       -3.0873820     1.5512680     0.2912850
  H        3.3343300     0.8133780     1.0831920
  H        2.7976640     1.4999730    -0.4563300
  H        4.1964720     0.4112550    -0.4090930
  H       -3.3235000    -0.8374140     0.2263080
units angstrom
no_reorient  #important for SAPT in psi4, default
symmetry c1  #important for SAPT in psi4, default
}

set PROPERTIES_ORIGIN ["COM"]
properties('MP2/aug-cc-pvtz', properties = ['dipole'])
--------------------------------------------------------------------------

    Molecular point group: c1
  Charge       = 0
  Multiplicity = 1
  Basis Set: AUG-CC-PVTZ
    Blend: AUG-CC-PVTZ
  Basis Set: (AUG-CC-PVTZ AUX)
    Blend: AUG-CC-PVTZ-JKFIT

    Orbital Energies [Eh]
    ---------------------

    Doubly Occupied:

       1A    -20.554874     2A    -11.282097     3A    -11.226381
       4A    -11.224536     5A    -11.219422     6A    -11.218001
       7A    -11.214756     8A     -1.353583     9A     -1.089264
      10A     -1.029971    11A     -0.973751    12A     -0.871326
      13A     -0.810016    14A     -0.757887    15A     -0.682125
      16A     -0.631580    17A     -0.624455    18A     -0.595921
      19A     -0.588072    20A     -0.544231    21A     -0.542420
      22A     -0.533597    23A     -0.513754    24A     -0.500236
      25A     -0.483253    26A     -0.452828    27A     -0.443425
      28A     -0.357720

  @DF-RHF Final Energy:  -309.14822259736786

   => Energetics <=

    Nuclear Repulsion Energy =            298.9946017165353283
    One-Electron Energy =               -1011.6466831576647110
    Two-Electron Energy =                 403.5038588437615772
    Total Energy =                       -309.1482225973678624
  Basis Set: (AUG-CC-PVTZ AUX)
    Blend: AUG-CC-PVTZ-RI
    Molecular point group: c1

    Geometry (in Angstrom), charge = 0, multiplicity = 1:

       Center              X                  Y                   Z               Mass
    ------------   -----------------  -----------------  -----------------  -----------------
         O           -2.384649291483    -1.014584806338    -0.103825205508    15.994914619570
         C           -1.511156291483     0.045295193662     0.315670794492    12.000000000000
         C           -0.176537291483    -0.249171806338    -0.291302205508    12.000000000000
         C            2.320638708517    -0.551333806338    -0.197952205508    12.000000000000
         C            0.922040808517    -0.311391306338     0.423416394492    12.000000000000
         C           -2.049828291483     1.397401193662    -0.142016205508    12.000000000000
         C            3.255970708517     0.642366193662     0.016197794492    12.000000000000
         H           -1.413972291483     0.044266193662     1.413211794492     1.007825032230
         H           -0.174440291483    -0.394385806338    -1.372558205508     1.007825032230
         H            2.212316708517    -0.753260806338    -1.269759205508     1.007825032230
         H            2.771052708517    -1.447040806338     0.248899794492     1.007825032230
         H            0.935593708517    -0.180396806338     1.486293794492     1.007825032230
         H           -1.379950291483     2.205724193662     0.164411794492     1.007825032230
         H           -2.142125291483     1.405913193662    -1.231512205508     1.007825032230
         H           -3.038627291483     1.590388193662     0.290647794492     1.007825032230
         H            3.383084708517     0.852498193662     1.082554794492     1.007825032230
         H            2.846418708517     1.539093193662    -0.456967205508     1.007825032230
         H            4.245226708517     0.450375193662    -0.409730205508     1.007825032230
         H           -3.274745291483    -0.798293806338     0.225670794492     1.007825032230

  Basis Set: AUG-CC-PVTZ
    Blend: AUG-CC-PVTZ
  Basis Set: (AUG-CC-PVTZ AUX)
    Blend: AUG-CC-PVTZ-JKFIT
	 Reference Energy          =    -309.1482225973678624 [Eh]
	 Singles Energy            =      -0.0000000000000000 [Eh]
	 Same-Spin Energy          =      -0.3158518155889036 [Eh]
	 Opposite-Spin Energy      =      -1.1014916087941760 [Eh]
	 Correlation Energy        =      -1.4173434243830796 [Eh]
	 Total Energy              =    -310.5655660217509535 [Eh]

	 ================> DF-SCS-MP2 Energies <==================
	-----------------------------------------------------------
	 SCS Same-Spin Scale       =       0.3333333333333333 [-]
	 SCS Opposite-Spin Scale   =       1.2000000000000000 [-]
	 SCS Same-Spin Energy      =      -0.1052839385296345 [Eh]
	 SCS Opposite-Spin Energy  =      -1.3217899305530112 [Eh]
	 SCS Correlation Energy    =      -1.4270738690826457 [Eh]
	 SCS Total Energy          =    -310.5752964664504816 [Eh]
	-----------------------------------------------------------

  Dipole Moment: [D]
     X:    -0.0717      Y:     1.4021      Z:     0.8009     Total:     1.6163

*** Psi4 exiting successfully. Buy a developer a beer!
