                               Psi4 1.3.2 release

  ==> Input File <==

--------------------------------------------------------------------------
#psi4
#
memory 32 gb

molecule  {
0 1
  O       -2.3409430    -1.1152500    -0.1201430
  C       -1.5156830    -0.0261920     0.3177710
  C       -0.1702520    -0.2529640    -0.2898400
  C        2.3348890    -0.4444240    -0.1997250
  C        0.9668325    -0.2388707     0.3737458
  C       -2.1103090     1.3065560    -0.1212920
  C        3.2132980     0.7871720     0.0273270
  H       -1.4208040    -0.0402330     1.4151950
  H       -0.1609320    -0.3839550    -1.3725900
  H        2.2351040    -0.6390970    -1.2733090
  H        2.8567378    -1.3162135     0.2148087
  H        0.9367840    -0.1585690     1.4880300
  H       -1.4764410     2.1380570     0.1977940
  H       -2.2008650     1.3268630    -1.2105240
  H       -3.1068830     1.4512670     0.3117270
  H        3.3300870     0.9922950     1.0954650
  H        2.7636150     1.6688370    -0.4368240
  H        4.2103780     0.6456890    -0.3991480
  H       -3.2411570    -0.9446250     0.2124840
units angstrom
no_reorient  #important for SAPT in psi4, default
symmetry c1  #important for SAPT in psi4, default
}

set PROPERTIES_ORIGIN ["COM"]
properties('MP2/aug-cc-pvtz', properties = ['dipole'])
--------------------------------------------------------------------------

    Molecular point group: c1
  Charge       = 0
  Multiplicity = 1
  Basis Set: AUG-CC-PVTZ
    Blend: AUG-CC-PVTZ
  Basis Set: (AUG-CC-PVTZ AUX)
    Blend: AUG-CC-PVTZ-JKFIT

    Orbital Energies [Eh]
    ---------------------

    Doubly Occupied:

       1A    -20.555879     2A    -11.283490     3A    -11.226970
       4A    -11.224504     5A    -11.219582     6A    -11.218563
       7A    -11.214355     8A     -1.354641     9A     -1.092828
      10A     -1.034076    11A     -0.973572    12A     -0.874666
      13A     -0.812359    14A     -0.752094    15A     -0.681102
      16A     -0.635343    17A     -0.624965    18A     -0.600748
      19A     -0.588444    20A     -0.543339    21A     -0.538568
      22A     -0.529933    23A     -0.515442    24A     -0.503029
      25A     -0.479442    26A     -0.460864    27A     -0.444490
      28A     -0.355281

  @DF-RHF Final Energy:  -309.14803254766383

   => Energetics <=

    Nuclear Repulsion Energy =            299.5374834075220178
    One-Electron Energy =               -1012.6938955154460018
    Two-Electron Energy =                 404.0083795602601526
    Total Energy =                       -309.1480325476638313
  Basis Set: (AUG-CC-PVTZ AUX)
    Blend: AUG-CC-PVTZ-RI
    Molecular point group: c1

    Geometry (in Angstrom), charge = 0, multiplicity = 1:

       Center              X                  Y                   Z               Mass
    ------------   -----------------  -----------------  -----------------  -----------------
         O           -2.340390735936    -1.120389512263    -0.116338135354    15.994914619570
         C           -1.515130735936    -0.031331512263     0.321575864646    12.000000000000
         C           -0.169699735936    -0.258103512263    -0.286035135354    12.000000000000
         C            2.335441264064    -0.449563512263    -0.195920135354    12.000000000000
         C            0.967384764064    -0.244010212263     0.377550664646    12.000000000000
         C           -2.109756735936     1.301416487737    -0.117487135354    12.000000000000
         C            3.213850264064     0.782032487737     0.031131864646    12.000000000000
         H           -1.420251735936    -0.045372512263     1.418999864646     1.007825032230
         H           -0.160379735936    -0.389094512263    -1.368785135354     1.007825032230
         H            2.235656264064    -0.644236512263    -1.269504135354     1.007825032230
         H            2.857290064064    -1.321353012263     0.218613564646     1.007825032230
         H            0.937336264064    -0.163708512263     1.491834864646     1.007825032230
         H           -1.475888735936     2.132917487737     0.201598864646     1.007825032230
         H           -2.200312735936     1.321723487737    -1.206719135354     1.007825032230
         H           -3.106330735936     1.446127487737     0.315531864646     1.007825032230
         H            3.330639264064     0.987155487737     1.099269864646     1.007825032230
         H            2.764167264064     1.663697487737    -0.433019135354     1.007825032230
         H            4.210930264064     0.640549487737    -0.395343135354     1.007825032230
         H           -3.240604735936    -0.949764512263     0.216288864646     1.007825032230

  Basis Set: AUG-CC-PVTZ
    Blend: AUG-CC-PVTZ
  Basis Set: (AUG-CC-PVTZ AUX)
    Blend: AUG-CC-PVTZ-JKFIT
	 Reference Energy          =    -309.1480325476638313 [Eh]
	 Singles Energy            =      -0.0000000000000000 [Eh]
	 Same-Spin Energy          =      -0.3164447215630288 [Eh]
	 Opposite-Spin Energy      =      -1.1020955636387941 [Eh]
	 Correlation Energy        =      -1.4185402852018230 [Eh]
	 Total Energy              =    -310.5665728328656314 [Eh]

	 ================> DF-SCS-MP2 Energies <==================
	-----------------------------------------------------------
	 SCS Same-Spin Scale       =       0.3333333333333333 [-]
	 SCS Opposite-Spin Scale   =       1.2000000000000000 [-]
	 SCS Same-Spin Energy      =      -0.1054815738543429 [Eh]
	 SCS Opposite-Spin Energy  =      -1.3225146763665530 [Eh]
	 SCS Correlation Energy    =      -1.4279962502208958 [Eh]
	 SCS Total Energy          =    -310.5760287978847032 [Eh]
	-----------------------------------------------------------

  Dipole Moment: [D]
     X:    -0.1256      Y:     1.3303      Z:     0.7955     Total:     1.5551

*** Psi4 exiting successfully. Buy a developer a beer!
