                               Psi4 1.3.2 release

  ==> Input File <==

--------------------------------------------------------------------------
#psi4
#
memory 32 gb

molecule  {
0 1
  O       -2.3409430    -1.1152500    -0.1201430
  C       -1.5156830    -0.0261920     0.3177710
  C       -0.1642444    -0.2545982    -0.2997209
  C        2.3348890    -0.4444240    -0.1997250
  C        0.9740050    -0.2811540     0.4036300
  C       -2.1103090     1.3065560    -0.1212920
  C        3.2132980     0.7871720     0.0273270
  H       -1.4208040    -0.0402330     1.4151950
  H       -0.1609320    -0.3839550    -1.3725900
  H        2.2351040    -0.6390970    -1.2733090
  H        2.8261900    -1.3231820     0.2368400
  H        0.9462698    -0.1593931     1.4884069
  H       -1.4764410     2.1380570     0.1977940
  H       -2.2008650     1.3268630    -1.2105240
  H       -3.1068830     1.4512670     0.3117270
  H        3.3300870     0.9922950     1.0954650
  H        2.7636150     1.6688370    -0.4368240
  H        4.2103780     0.6456890    -0.3991480
  H       -3.2411570    -0.9446250     0.2124840
units angstrom
no_reorient  #important for SAPT in psi4, default
symmetry c1  #important for SAPT in psi4, default
}

set PROPERTIES_ORIGIN ["COM"]
properties('MP2/aug-cc-pvtz', properties = ['dipole'])
--------------------------------------------------------------------------

    Molecular point group: c1
  Charge       = 0
  Multiplicity = 1
  Basis Set: AUG-CC-PVTZ
    Blend: AUG-CC-PVTZ
  Basis Set: (AUG-CC-PVTZ AUX)
    Blend: AUG-CC-PVTZ-JKFIT

    Orbital Energies [Eh]
    ---------------------

    Doubly Occupied:

       1A    -20.555129     2A    -11.283166     3A    -11.227707
       4A    -11.223916     5A    -11.220699     6A    -11.219152
       7A    -11.215076     8A     -1.353774     9A     -1.089612
      10A     -1.032663    11A     -0.971030    12A     -0.875005
      13A     -0.809711    14A     -0.756525    15A     -0.681614
      16A     -0.632707    17A     -0.624636    18A     -0.597751
      19A     -0.589906    20A     -0.542743    21A     -0.540712
      22A     -0.532401    23A     -0.516117    24A     -0.501705
      25A     -0.481969    26A     -0.460962    27A     -0.443579
      28A     -0.349925

  @DF-RHF Final Energy:  -309.14941108352900

   => Energetics <=

    Nuclear Repulsion Energy =            299.1186958601857100
    One-Electron Energy =               -1011.8764288335900119
    Two-Electron Energy =                 403.6083218898752421
    Total Energy =                       -309.1494110835290030
  Basis Set: (AUG-CC-PVTZ AUX)
    Blend: AUG-CC-PVTZ-RI
    Molecular point group: c1

    Geometry (in Angstrom), charge = 0, multiplicity = 1:

       Center              X                  Y                   Z               Mass
    ------------   -----------------  -----------------  -----------------  -----------------
         O           -2.341758864724    -1.115045622665    -0.118962036385    15.994914619570
         C           -1.516498864724    -0.025987622665     0.318951963615    12.000000000000
         C           -0.165060264724    -0.254393822665    -0.298539936385    12.000000000000
         C            2.334073135276    -0.444219622665    -0.198544036385    12.000000000000
         C            0.973189135276    -0.280949622665     0.404810963615    12.000000000000
         C           -2.111124864724     1.306760377335    -0.120111036385    12.000000000000
         C            3.212482135276     0.787376377335     0.028507963615    12.000000000000
         H           -1.421619864724    -0.040028622665     1.416375963615     1.007825032230
         H           -0.161747864724    -0.383750622665    -1.371409036385     1.007825032230
         H            2.234288135276    -0.638892622665    -1.272128036385     1.007825032230
         H            2.825374135276    -1.322977622665     0.238020963615     1.007825032230
         H            0.945453935276    -0.159188722665     1.489587863615     1.007825032230
         H           -1.477256864724     2.138261377335     0.198974963615     1.007825032230
         H           -2.201680864724     1.327067377335    -1.209343036385     1.007825032230
         H           -3.107698864724     1.451471377335     0.312907963615     1.007825032230
         H            3.329271135276     0.992499377335     1.096645963615     1.007825032230
         H            2.762799135276     1.669041377335    -0.435643036385     1.007825032230
         H            4.209562135276     0.645893377335    -0.397967036385     1.007825032230
         H           -3.241972864724    -0.944420622665     0.213664963615     1.007825032230

  Basis Set: AUG-CC-PVTZ
    Blend: AUG-CC-PVTZ
  Basis Set: (AUG-CC-PVTZ AUX)
    Blend: AUG-CC-PVTZ-JKFIT
	 Reference Energy          =    -309.1494110835290030 [Eh]
	 Singles Energy            =      -0.0000000000000000 [Eh]
	 Same-Spin Energy          =      -0.3164300798308808 [Eh]
	 Opposite-Spin Energy      =      -1.1022800555806236 [Eh]
	 Correlation Energy        =      -1.4187101354115044 [Eh]
	 Total Energy              =    -310.5681212189405187 [Eh]

	 ================> DF-SCS-MP2 Energies <==================
	-----------------------------------------------------------
	 SCS Same-Spin Scale       =       0.3333333333333333 [-]
	 SCS Opposite-Spin Scale   =       1.2000000000000000 [-]
	 SCS Same-Spin Energy      =      -0.1054766932769603 [Eh]
	 SCS Opposite-Spin Energy  =      -1.3227360666967483 [Eh]
	 SCS Correlation Energy    =      -1.4282127599737084 [Eh]
	 SCS Total Energy          =    -310.5776238435026926 [Eh]
	-----------------------------------------------------------

  Dipole Moment: [D]
     X:    -0.0975      Y:     1.3763      Z:     0.8128     Total:     1.6014

*** Psi4 exiting successfully. Buy a developer a beer!
