                               Psi4 1.3.2 release

  ==> Input File <==

--------------------------------------------------------------------------
#psi4
#
memory 32 gb

molecule  {
0 1
  O       -2.3601263    -1.1056095    -0.1072507
  C       -1.5156830    -0.0261920     0.3177710
  C       -0.1616604    -0.2311804    -0.2783866
  C        2.3348890    -0.4444240    -0.1997250
  C        0.9740050    -0.2811540     0.4036300
  C       -2.1103090     1.3065560    -0.1212920
  C        3.2132980     0.7871720     0.0273270
  H       -1.4208040    -0.0402330     1.4151950
  H       -0.1609320    -0.3839550    -1.3725900
  H        2.2351040    -0.6390970    -1.2733090
  H        2.8261900    -1.3231820     0.2368400
  H        0.9367840    -0.1585690     1.4880300
  H       -1.4764410     2.1380570     0.1977940
  H       -2.2008650     1.3268630    -1.2105240
  H       -3.1068830     1.4512670     0.3117270
  H        3.3300870     0.9922950     1.0954650
  H        2.7636150     1.6688370    -0.4368240
  H        4.2103780     0.6456890    -0.3991480
  H       -3.2411570    -0.9446250     0.2124840
units angstrom
no_reorient  #important for SAPT in psi4, default
symmetry c1  #important for SAPT in psi4, default
}

set PROPERTIES_ORIGIN ["COM"]
properties('MP2/aug-cc-pvtz', properties = ['dipole'])
--------------------------------------------------------------------------

    Molecular point group: c1
  Charge       = 0
  Multiplicity = 1
  Basis Set: AUG-CC-PVTZ
    Blend: AUG-CC-PVTZ
  Basis Set: (AUG-CC-PVTZ AUX)
    Blend: AUG-CC-PVTZ-JKFIT

    Orbital Energies [Eh]
    ---------------------

    Doubly Occupied:

       1A    -20.552606     2A    -11.283289     3A    -11.226745
       4A    -11.225003     5A    -11.220958     6A    -11.218687
       7A    -11.215575     8A     -1.358148     9A     -1.092623
      10A     -1.034681    11A     -0.972442    12A     -0.876329
      13A     -0.813278    14A     -0.752860    15A     -0.684996
      16A     -0.637032    17A     -0.625186    18A     -0.598972
      19A     -0.588817    20A     -0.543174    21A     -0.539189
      22A     -0.531162    23A     -0.517207    24A     -0.501236
      25A     -0.482334    26A     -0.461414    27A     -0.443543
      28A     -0.353428

  @DF-RHF Final Energy:  -309.15065216304646

   => Energetics <=

    Nuclear Repulsion Energy =            299.3469778554865570
    One-Electron Energy =               -1012.2934300270751464
    Two-Electron Energy =                 403.7958000085421304
    Total Energy =                       -309.1506521630464590
  Basis Set: (AUG-CC-PVTZ AUX)
    Blend: AUG-CC-PVTZ-RI
    Molecular point group: c1

    Geometry (in Angstrom), charge = 0, multiplicity = 1:

       Center              X                  Y                   Z               Mass
    ------------   -----------------  -----------------  -----------------  -----------------
         O           -2.358090824419    -1.109761684614    -0.110684068051    15.994914619570
         C           -1.513647524419    -0.030344184614     0.314337631949    12.000000000000
         C           -0.159624924419    -0.235332584614    -0.281819968051    12.000000000000
         C            2.336924475581    -0.448576184614    -0.203158368051    12.000000000000
         C            0.976040475581    -0.285306184614     0.400196631949    12.000000000000
         C           -2.108273524419     1.302403815386    -0.124725368051    12.000000000000
         C            3.215333475581     0.783019815386     0.023893631949    12.000000000000
         H           -1.418768524419    -0.044385184614     1.411761631949     1.007825032230
         H           -0.158896524419    -0.388107184614    -1.376023368051     1.007825032230
         H            2.237139475581    -0.643249184614    -1.276742368051     1.007825032230
         H            2.828225475581    -1.327334184614     0.233406631949     1.007825032230
         H            0.938819475581    -0.162721184614     1.484596631949     1.007825032230
         H           -1.474405524419     2.133904815386     0.194360631949     1.007825032230
         H           -2.198829524419     1.322710815386    -1.213957368051     1.007825032230
         H           -3.104847524419     1.447114815386     0.308293631949     1.007825032230
         H            3.332122475581     0.988142815386     1.092031631949     1.007825032230
         H            2.765650475581     1.664684815386    -0.440257368051     1.007825032230
         H            4.212413475581     0.641536815386    -0.402581368051     1.007825032230
         H           -3.239121524419    -0.948777184614     0.209050631949     1.007825032230

  Basis Set: AUG-CC-PVTZ
    Blend: AUG-CC-PVTZ
  Basis Set: (AUG-CC-PVTZ AUX)
    Blend: AUG-CC-PVTZ-JKFIT
	 Reference Energy          =    -309.1506521630464590 [Eh]
	 Singles Energy            =      -0.0000000000000000 [Eh]
	 Same-Spin Energy          =      -0.3160748423323334 [Eh]
	 Opposite-Spin Energy      =      -1.1012088984380002 [Eh]
	 Correlation Energy        =      -1.4172837407703336 [Eh]
	 Total Energy              =    -310.5679359038168172 [Eh]

	 ================> DF-SCS-MP2 Energies <==================
	-----------------------------------------------------------
	 SCS Same-Spin Scale       =       0.3333333333333333 [-]
	 SCS Opposite-Spin Scale   =       1.2000000000000000 [-]
	 SCS Same-Spin Energy      =      -0.1053582807774445 [Eh]
	 SCS Opposite-Spin Energy  =      -1.3214506781256001 [Eh]
	 SCS Correlation Energy    =      -1.4268089589030446 [Eh]
	 SCS Total Energy          =    -310.5774611219495114 [Eh]
	-----------------------------------------------------------

  Dipole Moment: [D]
     X:    -0.0484      Y:     1.3464      Z:     0.8084     Total:     1.5712

*** Psi4 exiting successfully. Buy a developer a beer!
