                               Psi4 1.3.2 release

  ==> Input File <==

--------------------------------------------------------------------------
#psi4
#
memory 32 gb

molecule  {
0 1
  O       -2.3409430    -1.1152500    -0.1201430
  C       -1.5731974    -0.1020911     0.2872517
  C       -0.1702520    -0.2529640    -0.2898400
  C        2.3348890    -0.4444240    -0.1997250
  C        0.9740050    -0.2811540     0.4036300
  C       -2.1103090     1.3065560    -0.1212920
  C        3.2132980     0.7871720     0.0273270
  H       -1.4208040    -0.0402330     1.4151950
  H       -0.1609320    -0.3839550    -1.3725900
  H        2.2351040    -0.6390970    -1.2733090
  H        2.8261900    -1.3231820     0.2368400
  H        0.9367840    -0.1585690     1.4880300
  H       -1.4764410     2.1380570     0.1977940
  H       -2.2008650     1.3268630    -1.2105240
  H       -3.1068830     1.4512670     0.3117270
  H        3.3300870     0.9922950     1.0954650
  H        2.7636150     1.6688370    -0.4368240
  H        4.2103780     0.6456890    -0.3991480
  H       -3.2411570    -0.9446250     0.2124840
units angstrom
no_reorient  #important for SAPT in psi4, default
symmetry c1  #important for SAPT in psi4, default
}

set PROPERTIES_ORIGIN ["COM"]
properties('MP2/aug-cc-pvtz', properties = ['dipole'])
--------------------------------------------------------------------------

    Molecular point group: c1
  Charge       = 0
  Multiplicity = 1
  Basis Set: AUG-CC-PVTZ
    Blend: AUG-CC-PVTZ
  Basis Set: (AUG-CC-PVTZ AUX)
    Blend: AUG-CC-PVTZ-JKFIT

    Orbital Energies [Eh]
    ---------------------

    Doubly Occupied:

       1A    -20.567995     2A    -11.285744     3A    -11.225163
       4A    -11.223010     5A    -11.219676     6A    -11.217326
       7A    -11.213560     8A     -1.400098     9A     -1.084592
      10A     -1.024758    11A     -0.965268    12A     -0.874858
      13A     -0.814838    14A     -0.750926    15A     -0.699957
      16A     -0.643563    17A     -0.633221    18A     -0.599153
      19A     -0.590325    20A     -0.546633    21A     -0.537676
      22A     -0.531643    23A     -0.521802    24A     -0.503555
      25A     -0.480092    26A     -0.449657    27A     -0.429451
      28A     -0.346020

  @DF-RHF Final Energy:  -309.14126906483506

   => Energetics <=

    Nuclear Repulsion Energy =            299.5607794758836917
    One-Electron Energy =               -1012.6429801140286600
    Two-Electron Energy =                 403.9409315733099106
    Total Energy =                       -309.1412690648350576
  Basis Set: (AUG-CC-PVTZ AUX)
    Blend: AUG-CC-PVTZ-RI
    Molecular point group: c1

    Geometry (in Angstrom), charge = 0, multiplicity = 1:

       Center              X                  Y                   Z               Mass
    ------------   -----------------  -----------------  -----------------  -----------------
         O           -2.334047473330    -1.106150040763    -0.116483830910    15.994914619570
         C           -1.566301873330    -0.092991140763     0.290910869090    12.000000000000
         C           -0.163356473330    -0.243864040763    -0.286180830910    12.000000000000
         C            2.341784526670    -0.435324040763    -0.196065830910    12.000000000000
         C            0.980900526670    -0.272054040763     0.407289169090    12.000000000000
         C           -2.103413473330     1.315655959237    -0.117632830910    12.000000000000
         C            3.220193526670     0.796271959237     0.030986169090    12.000000000000
         H           -1.413908473330    -0.031133040763     1.418854169090     1.007825032230
         H           -0.154036473330    -0.374855040763    -1.368930830910     1.007825032230
         H            2.241999526670    -0.629997040763    -1.269649830910     1.007825032230
         H            2.833085526670    -1.314082040763     0.240499169090     1.007825032230
         H            0.943679526670    -0.149469040763     1.491689169090     1.007825032230
         H           -1.469545473330     2.147156959237     0.201453169090     1.007825032230
         H           -2.193969473330     1.335962959237    -1.206864830910     1.007825032230
         H           -3.099987473330     1.460366959237     0.315386169090     1.007825032230
         H            3.336982526670     1.001394959237     1.099124169090     1.007825032230
         H            2.770510526670     1.677936959237    -0.433164830910     1.007825032230
         H            4.217273526670     0.654788959237    -0.395488830910     1.007825032230
         H           -3.234261473330    -0.935525040763     0.216143169090     1.007825032230

  Basis Set: AUG-CC-PVTZ
    Blend: AUG-CC-PVTZ
  Basis Set: (AUG-CC-PVTZ AUX)
    Blend: AUG-CC-PVTZ-JKFIT
	 Reference Energy          =    -309.1412690648350576 [Eh]
	 Singles Energy            =      -0.0000000000000000 [Eh]
	 Same-Spin Energy          =      -0.3163858467560408 [Eh]
	 Opposite-Spin Energy      =      -1.1013104448756672 [Eh]
	 Correlation Energy        =      -1.4176962916317080 [Eh]
	 Total Energy              =    -310.5589653564667856 [Eh]

	 ================> DF-SCS-MP2 Energies <==================
	-----------------------------------------------------------
	 SCS Same-Spin Scale       =       0.3333333333333333 [-]
	 SCS Opposite-Spin Scale   =       1.2000000000000000 [-]
	 SCS Same-Spin Energy      =      -0.1054619489186802 [Eh]
	 SCS Opposite-Spin Energy  =      -1.3215725338508006 [Eh]
	 SCS Correlation Energy    =      -1.4270344827694810 [Eh]
	 SCS Total Energy          =    -310.5683035476045575 [Eh]
	-----------------------------------------------------------

  Dipole Moment: [D]
     X:    -0.3999      Y:     1.0465      Z:     0.7184     Total:     1.3308

*** Psi4 exiting successfully. Buy a developer a beer!
