                               Psi4 1.4a3.dev225

  ==> Input File <==

--------------------------------------------------------------------------
#psi4
#
memory 32 gb

molecule  {
0 1
  O       -2.4334040    -1.0537050    -0.1031880
  C       -1.5599110     0.0061750     0.3163080
  C       -0.2252920    -0.2882920    -0.2906650
  C        2.2718840    -0.5904540    -0.1973150
  C        0.9184280    -0.3582560     0.4039980
  C       -2.0985830     1.3582810    -0.1413790
  C        3.2072160     0.6032460     0.0168350
  H       -1.4627270     0.0051460     1.4138490
  H       -0.2230989    -0.4401613    -1.4214760
  H        2.1635620    -0.7923810    -1.2691220
  H        2.7222980    -1.4861610     0.2495370
  H        0.8868390    -0.2195170     1.4869310
  H       -1.4287050     2.1666040     0.1650490
  H       -2.1908800     1.3667930    -1.2308750
  H       -3.0873820     1.5512680     0.2912850
  H        3.3343300     0.8133780     1.0831920
  H        2.7976640     1.4999730    -0.4563300
  H        4.1964720     0.4112550    -0.4090930
  H       -3.3235000    -0.8374140     0.2263080
units angstrom
no_reorient  #important for SAPT in psi4, default
symmetry c1  #important for SAPT in psi4, default
}

set PROPERTIES_ORIGIN ["COM"]
properties('MP2/aug-cc-pvtz', properties = ['dipole'])
--------------------------------------------------------------------------

    Molecular point group: c1
  Charge       = 0
  Multiplicity = 1
  Basis Set: AUG-CC-PVTZ
    Blend: AUG-CC-PVTZ
  Basis Set: (AUG-CC-PVTZ AUX)
    Blend: AUG-CC-PVTZ-JKFIT

    Orbital Energies [Eh]
    ---------------------

    Doubly Occupied:

       1A    -20.555326     2A    -11.284045     3A    -11.229043
       4A    -11.226965     5A    -11.224950     6A    -11.219762
       7A    -11.215599     8A     -1.353990     9A     -1.088681
      10A     -1.032952    11A     -0.970357    12A     -0.875519
      13A     -0.810345    14A     -0.749281    15A     -0.681502
      16A     -0.633165    17A     -0.623632    18A     -0.597965
      19A     -0.586335    20A     -0.543050    21A     -0.538865
      22A     -0.528246    23A     -0.516167    24A     -0.501951
      25A     -0.482094    26A     -0.461657    27A     -0.443728
      28A     -0.350005

  @DF-RHF Final Energy:  -309.14699017386704

   => Energetics <=

    Nuclear Repulsion Energy =            298.6919549685347306
    One-Electron Energy =               -1011.0275310753810345
    Two-Electron Energy =                 403.1885859329792083
    Total Energy =                       -309.1469901738670387
  Basis Set: (AUG-CC-PVTZ AUX)
    Blend: AUG-CC-PVTZ-RI
    Molecular point group: c1

    Geometry (in Angstrom), charge = 0, multiplicity = 1:

       Center              X                  Y                   Z               Mass
    ------------   -----------------  -----------------  -----------------  -----------------
         O           -2.390062480279    -1.013589276738    -0.100921684576    15.994914619570
         C           -1.516569480279     0.046290723262     0.318574315424    12.000000000000
         C           -0.181950480279    -0.248176276738    -0.288398684576    12.000000000000
         C            2.315225519721    -0.550338276738    -0.195048684576    12.000000000000
         C            0.961769519721    -0.318140276738     0.406264315424    12.000000000000
         C           -2.055241480279     1.398396723262    -0.139112684576    12.000000000000
         C            3.250557519721     0.643361723262     0.019101315424    12.000000000000
         H           -1.419385480279     0.045261723262     1.416115315424     1.007825032230
         H           -0.179757380279    -0.400045576738    -1.419209684576     1.007825032230
         H            2.206903519721    -0.752265276738    -1.266855684576     1.007825032230
         H            2.765639519721    -1.446045276738     0.251803315424     1.007825032230
         H            0.930180519721    -0.179401276738     1.489197315424     1.007825032230
         H           -1.385363480279     2.206719723262     0.167315315424     1.007825032230
         H           -2.147538480279     1.406908723262    -1.228608684576     1.007825032230
         H           -3.044040480279     1.591383723262     0.293551315424     1.007825032230
         H            3.377671519721     0.853493723262     1.085458315424     1.007825032230
         H            2.841005519721     1.540088723262    -0.454063684576     1.007825032230
         H            4.239813519721     0.451370723262    -0.406826684576     1.007825032230
         H           -3.280158480279    -0.797298276738     0.228574315424     1.007825032230

  Basis Set: AUG-CC-PVTZ
    Blend: AUG-CC-PVTZ
  Basis Set: (AUG-CC-PVTZ AUX)
    Blend: AUG-CC-PVTZ-JKFIT
	 Reference Energy          =    -309.1469901738670387 [Eh]
	 Singles Energy            =      -0.0000000000000000 [Eh]
	 Same-Spin Energy          =      -0.3165837077004925 [Eh]
	 Opposite-Spin Energy      =      -1.1027991769860925 [Eh]
	 Correlation Energy        =      -1.4193828846865850 [Eh]
	 Total Energy              =    -310.5663730585536086 [Eh]

	 ================> DF-SCS-MP2 Energies <==================
	-----------------------------------------------------------
	 SCS Same-Spin Scale       =       0.3333333333333333 [-]
	 SCS Opposite-Spin Scale   =       1.2000000000000000 [-]
	 SCS Same-Spin Energy      =      -0.1055279025668308 [Eh]
	 SCS Opposite-Spin Energy  =      -1.3233590123833110 [Eh]
	 SCS Correlation Energy    =      -1.4288869149501418 [Eh]
	 SCS Total Energy          =    -310.5758770888172080 [Eh]
	-----------------------------------------------------------

  Dipole Moment: [D]
     X:    -0.0342      Y:     1.4013      Z:     0.8108     Total:     1.6193

*** Psi4 exiting successfully. Buy a developer a beer!
