                               Psi4 1.3.2 release

  ==> Input File <==

--------------------------------------------------------------------------
#psi4
#
memory 32 gb

molecule  {
0 1
  O       -2.3409430    -1.1152500    -0.1201430
  C       -1.5156830    -0.0261920     0.3177710
  C       -0.1702520    -0.2529640    -0.2898400
  C        2.3348890    -0.4444240    -0.1997250
  C        0.9616376    -0.3289298     0.3863990
  C       -2.1103090     1.3065560    -0.1212920
  C        3.2527060     0.7627988     0.0007966
  H       -1.4208040    -0.0402330     1.4151950
  H       -0.1609320    -0.3839550    -1.3725900
  H        2.2351040    -0.6390970    -1.2733090
  H        2.8261900    -1.3231820     0.2368400
  H        0.9367840    -0.1585690     1.4880300
  H       -1.4764410     2.1380570     0.1977940
  H       -2.2008650     1.3268630    -1.2105240
  H       -3.1068830     1.4512670     0.3117270
  H        3.3300870     0.9922950     1.0954650
  H        2.7636150     1.6688370    -0.4368240
  H        4.2103780     0.6456890    -0.3991480
  H       -3.2411570    -0.9446250     0.2124840
units angstrom
no_reorient  #important for SAPT in psi4, default
symmetry c1  #important for SAPT in psi4, default
}

set PROPERTIES_ORIGIN ["COM"]
properties('MP2/aug-cc-pvtz', properties = ['dipole'])
--------------------------------------------------------------------------

    Molecular point group: c1
  Charge       = 0
  Multiplicity = 1
  Basis Set: AUG-CC-PVTZ
    Blend: AUG-CC-PVTZ
  Basis Set: (AUG-CC-PVTZ AUX)
    Blend: AUG-CC-PVTZ-JKFIT

    Orbital Energies [Eh]
    ---------------------

    Doubly Occupied:

       1A    -20.555681     2A    -11.283604     3A    -11.227998
       4A    -11.224569     5A    -11.220002     6A    -11.219414
       7A    -11.216861     8A     -1.354502     9A     -1.091720
      10A     -1.033707    11A     -0.974443    12A     -0.877561
      13A     -0.812085    14A     -0.751830    15A     -0.680550
      16A     -0.633188    17A     -0.625983    18A     -0.601129
      19A     -0.587646    20A     -0.549615    21A     -0.539534
      22A     -0.532660    23A     -0.514967    24A     -0.500600
      25A     -0.473500    26A     -0.462546    27A     -0.443941
      28A     -0.355163

  @DF-RHF Final Energy:  -309.14509821702319

   => Energetics <=

    Nuclear Repulsion Energy =            299.0916051761968220
    One-Electron Energy =               -1011.7834120948117516
    Two-Electron Energy =                 403.5467087015917400
    Total Energy =                       -309.1450982170231896
  Basis Set: (AUG-CC-PVTZ AUX)
    Blend: AUG-CC-PVTZ-RI
    Molecular point group: c1

    Geometry (in Angstrom), charge = 0, multiplicity = 1:

       Center              X                  Y                   Z               Mass
    ------------   -----------------  -----------------  -----------------  -----------------
         O           -2.344185069623    -1.106599653439    -0.114896188975    15.994914619570
         C           -1.518925069623    -0.017541653439     0.323017811025    12.000000000000
         C           -0.173494069623    -0.244313653439    -0.284593188975    12.000000000000
         C            2.331646930377    -0.435773653439    -0.194478188975    12.000000000000
         C            0.958395530377    -0.320279453439     0.391645811025    12.000000000000
         C           -2.113551069623     1.315206346561    -0.116045188975    12.000000000000
         C            3.249463930377     0.771449146561     0.006043411025    12.000000000000
         H           -1.424046069623    -0.031582653439     1.420441811025     1.007825032230
         H           -0.164174069623    -0.375304653439    -1.367343188975     1.007825032230
         H            2.231861930377    -0.630446653439    -1.268062188975     1.007825032230
         H            2.822947930377    -1.314531653439     0.242086811025     1.007825032230
         H            0.933541930377    -0.149918653439     1.493276811025     1.007825032230
         H           -1.479683069623     2.146707346561     0.203040811025     1.007825032230
         H           -2.204107069623     1.335513346561    -1.205277188975     1.007825032230
         H           -3.110125069623     1.459917346561     0.316973811025     1.007825032230
         H            3.326844930377     1.000945346561     1.100711811025     1.007825032230
         H            2.760372930377     1.677487346561    -0.431577188975     1.007825032230
         H            4.207135930377     0.654339346561    -0.393901188975     1.007825032230
         H           -3.244399069623    -0.935974653439     0.217730811025     1.007825032230

  Basis Set: AUG-CC-PVTZ
    Blend: AUG-CC-PVTZ
  Basis Set: (AUG-CC-PVTZ AUX)
    Blend: AUG-CC-PVTZ-JKFIT
	 Reference Energy          =    -309.1450982170231896 [Eh]
	 Singles Energy            =      -0.0000000000000000 [Eh]
	 Same-Spin Energy          =      -0.3164359242587311 [Eh]
	 Opposite-Spin Energy      =      -1.1021907531369517 [Eh]
	 Correlation Energy        =      -1.4186266773956828 [Eh]
	 Total Energy              =    -310.5637248944188968 [Eh]

	 ================> DF-SCS-MP2 Energies <==================
	-----------------------------------------------------------
	 SCS Same-Spin Scale       =       0.3333333333333333 [-]
	 SCS Opposite-Spin Scale   =       1.2000000000000000 [-]
	 SCS Same-Spin Energy      =      -0.1054786414195770 [Eh]
	 SCS Opposite-Spin Energy  =      -1.3226289037643419 [Eh]
	 SCS Correlation Energy    =      -1.4281075451839189 [Eh]
	 SCS Total Energy          =    -310.5732057622071238 [Eh]
	-----------------------------------------------------------

  Dipole Moment: [D]
     X:    -0.1069      Y:     1.4253      Z:     0.7814     Total:     1.6290

*** Psi4 exiting successfully. Buy a developer a beer!
