                               Psi4 1.3.2 release

  ==> Input File <==

--------------------------------------------------------------------------
#psi4
#
memory 32 gb

molecule  {
0 1
  O       -2.3409430    -1.1152500    -0.1201430
  C       -1.4960438    -0.0367941     0.3064110
  C       -0.1702520    -0.2529640    -0.2898400
  C        2.3348890    -0.4444240    -0.1997250
  C        0.9740050    -0.2811540     0.4036300
  C       -2.1103090     1.3065560    -0.1212920
  C        3.2132980     0.7871720     0.0273270
  H       -1.4208040    -0.0402330     1.4151950
  H       -0.1609320    -0.3839550    -1.3725900
  H        2.2351040    -0.6390970    -1.2733090
  H        2.8261900    -1.3231820     0.2368400
  H        0.9367840    -0.1585690     1.4880300
  H       -1.4764410     2.1380570     0.1977940
  H       -2.2008650     1.3268630    -1.2105240
  H       -3.1068830     1.4512670     0.3117270
  H        3.3300870     0.9922950     1.0954650
  H        2.7636150     1.6688370    -0.4368240
  H        4.2103780     0.6456890    -0.3991480
  H       -3.2464215    -0.9590770     0.2052144
units angstrom
no_reorient  #important for SAPT in psi4, default
symmetry c1  #important for SAPT in psi4, default
}

set PROPERTIES_ORIGIN ["COM"]
properties('MP2/aug-cc-pvtz', properties = ['dipole'])
--------------------------------------------------------------------------

    Molecular point group: c1
  Charge       = 0
  Multiplicity = 1
  Basis Set: AUG-CC-PVTZ
    Blend: AUG-CC-PVTZ
  Basis Set: (AUG-CC-PVTZ AUX)
    Blend: AUG-CC-PVTZ-JKFIT

    Orbital Energies [Eh]
    ---------------------

    Doubly Occupied:

       1A    -20.553819     2A    -11.283010     3A    -11.228942
       4A    -11.225047     5A    -11.220224     6A    -11.219113
       7A    -11.215670     8A     -1.352383     9A     -1.092111
      10A     -1.033915    11A     -0.969919    12A     -0.878099
      13A     -0.810840    14A     -0.755198    15A     -0.681328
      16A     -0.636139    17A     -0.623609    18A     -0.598164
      19A     -0.588463    20A     -0.542498    21A     -0.539379
      22A     -0.531066    23A     -0.516908    24A     -0.500238
      25A     -0.482482    26A     -0.466487    27A     -0.439950
      28A     -0.350020

  @DF-RHF Final Energy:  -309.14873757167902

   => Energetics <=

    Nuclear Repulsion Energy =            299.3617676467571300
    One-Electron Energy =               -1012.3509686556189990
    Two-Electron Energy =                 403.8404634371828479
    Total Energy =                       -309.1487375716790211
  Basis Set: (AUG-CC-PVTZ AUX)
    Blend: AUG-CC-PVTZ-RI
    Molecular point group: c1

    Geometry (in Angstrom), charge = 0, multiplicity = 1:

       Center              X                  Y                   Z               Mass
    ------------   -----------------  -----------------  -----------------  -----------------
         O           -2.343244679881    -1.113833206086    -0.118707706926    15.994914619570
         C           -1.498345479881    -0.035377306086     0.307846293074    12.000000000000
         C           -0.172553679881    -0.251547206086    -0.288404706926    12.000000000000
         C            2.332587320119    -0.443007206086    -0.198289706926    12.000000000000
         C            0.971703320119    -0.279737206086     0.405065293074    12.000000000000
         C           -2.112610679881     1.307972793914    -0.119856706926    12.000000000000
         C            3.210996320119     0.788588793914     0.028762293074    12.000000000000
         H           -1.423105679881    -0.038816206086     1.416630293074     1.007825032230
         H           -0.163233679881    -0.382538206086    -1.371154706926     1.007825032230
         H            2.232802320119    -0.637680206086    -1.271873706926     1.007825032230
         H            2.823888320119    -1.321765206086     0.238275293074     1.007825032230
         H            0.934482320119    -0.157152206086     1.489465293074     1.007825032230
         H           -1.478742679881     2.139473793914     0.199229293074     1.007825032230
         H           -2.203166679881     1.328279793914    -1.209088706926     1.007825032230
         H           -3.109184679881     1.452683793914     0.313162293074     1.007825032230
         H            3.327785320119     0.993711793914     1.096900293074     1.007825032230
         H            2.761313320119     1.670253793914    -0.435388706926     1.007825032230
         H            4.208076320119     0.647105793914    -0.397712706926     1.007825032230
         H           -3.248723179881    -0.957660206086     0.206649693074     1.007825032230

  Basis Set: AUG-CC-PVTZ
    Blend: AUG-CC-PVTZ
  Basis Set: (AUG-CC-PVTZ AUX)
    Blend: AUG-CC-PVTZ-JKFIT
	 Reference Energy          =    -309.1487375716790211 [Eh]
	 Singles Energy            =      -0.0000000000000000 [Eh]
	 Same-Spin Energy          =      -0.3165944411431379 [Eh]
	 Opposite-Spin Energy      =      -1.1023420558171468 [Eh]
	 Correlation Energy        =      -1.4189364969602847 [Eh]
	 Total Energy              =    -310.5676740686392918 [Eh]

	 ================> DF-SCS-MP2 Energies <==================
	-----------------------------------------------------------
	 SCS Same-Spin Scale       =       0.3333333333333333 [-]
	 SCS Opposite-Spin Scale   =       1.2000000000000000 [-]
	 SCS Same-Spin Energy      =      -0.1055314803810460 [Eh]
	 SCS Opposite-Spin Energy  =      -1.3228104669805762 [Eh]
	 SCS Correlation Energy    =      -1.4283419473616221 [Eh]
	 SCS Total Energy          =    -310.5770795190406375 [Eh]
	-----------------------------------------------------------

  Dipole Moment: [D]
     X:    -0.0514      Y:     1.3427      Z:     0.8028     Total:     1.5653

*** Psi4 exiting successfully. Buy a developer a beer!
