                               Psi4 1.3.2 release

  ==> Input File <==

--------------------------------------------------------------------------
#psi4
#
memory 32 gb

molecule  {
0 1
  O       -2.3409430    -1.1152500    -0.1201430
  C       -1.5156830    -0.0261920     0.3177710
  C       -0.1702520    -0.2529640    -0.2898400
  C        2.3348890    -0.4444240    -0.1997250
  C        1.0648781    -0.2920564     0.3633409
  C       -2.1103090     1.3065560    -0.1212920
  C        3.2132980     0.7871720     0.0273270
  H       -1.4208040    -0.0402330     1.4151950
  H       -0.1609320    -0.3839550    -1.3725900
  H        2.2351040    -0.6390970    -1.2733090
  H        2.8261900    -1.3231820     0.2368400
  H        0.9367840    -0.1585690     1.4880300
  H       -1.4764410     2.1380570     0.1977940
  H       -2.2008650     1.3268630    -1.2105240
  H       -3.1068830     1.4512670     0.3117270
  H        3.3300870     0.9922950     1.0954650
  H        2.7636150     1.6688370    -0.4368240
  H        4.2103780     0.6456890    -0.3991480
  H       -3.2411570    -0.9446250     0.2124840
units angstrom
no_reorient  #important for SAPT in psi4, default
symmetry c1  #important for SAPT in psi4, default
}

set PROPERTIES_ORIGIN ["COM"]
properties('MP2/aug-cc-pvtz', properties = ['dipole'])
--------------------------------------------------------------------------

    Molecular point group: c1
  Charge       = 0
  Multiplicity = 1
  Basis Set: AUG-CC-PVTZ
    Blend: AUG-CC-PVTZ
  Basis Set: (AUG-CC-PVTZ AUX)
    Blend: AUG-CC-PVTZ-JKFIT

    Orbital Energies [Eh]
    ---------------------

    Doubly Occupied:

       1A    -20.555883     2A    -11.285267     3A    -11.236068
       4A    -11.228025     5A    -11.220854     6A    -11.219751
       7A    -11.217469     8A     -1.354601     9A     -1.097837
      10A     -1.038060    11A     -0.964496    12A     -0.885849
      13A     -0.809964    14A     -0.749500    15A     -0.681552
      16A     -0.638220    17A     -0.625723    18A     -0.604114
      19A     -0.589872    20A     -0.545784    21A     -0.540536
      22A     -0.521714    23A     -0.521196    24A     -0.507252
      25A     -0.475865    26A     -0.472149    27A     -0.443756
      28A     -0.333150

  @DF-RHF Final Energy:  -309.13218457397505

   => Energetics <=

    Nuclear Repulsion Energy =            299.1891900087857152
    One-Electron Energy =               -1011.9137350057206959
    Two-Electron Energy =                 403.5923604229599846
    Total Energy =                       -309.1321845739750529
  Basis Set: (AUG-CC-PVTZ AUX)
    Blend: AUG-CC-PVTZ-RI
    Molecular point group: c1

    Geometry (in Angstrom), charge = 0, multiplicity = 1:

       Center              X                  Y                   Z               Mass
    ------------   -----------------  -----------------  -----------------  -----------------
         O           -2.351838172519    -1.113942723691    -0.115312495232    15.994914619570
         C           -1.526578172519    -0.024884723691     0.322601504768    12.000000000000
         C           -0.181147172519    -0.251656723691    -0.285009495232    12.000000000000
         C            2.323993827481    -0.443116723691    -0.194894495232    12.000000000000
         C            1.053982927481    -0.290749123691     0.368171404768    12.000000000000
         C           -2.121204172519     1.307863276309    -0.116461495232    12.000000000000
         C            3.202402827481     0.788479276309     0.032157504768    12.000000000000
         H           -1.431699172519    -0.038925723691     1.420025504768     1.007825032230
         H           -0.171827172519    -0.382647723691    -1.367759495232     1.007825032230
         H            2.224208827481    -0.637789723691    -1.268478495232     1.007825032230
         H            2.815294827481    -1.321874723691     0.241670504768     1.007825032230
         H            0.925888827481    -0.157261723691     1.492860504768     1.007825032230
         H           -1.487336172519     2.139364276309     0.202624504768     1.007825032230
         H           -2.211760172519     1.328170276309    -1.205693495232     1.007825032230
         H           -3.117778172519     1.452574276309     0.316557504768     1.007825032230
         H            3.319191827481     0.993602276309     1.100295504768     1.007825032230
         H            2.752719827481     1.670144276309    -0.431993495232     1.007825032230
         H            4.199482827481     0.646996276309    -0.394317495232     1.007825032230
         H           -3.252052172519    -0.943317723691     0.217314504768     1.007825032230

  Basis Set: AUG-CC-PVTZ
    Blend: AUG-CC-PVTZ
  Basis Set: (AUG-CC-PVTZ AUX)
    Blend: AUG-CC-PVTZ-JKFIT
	 Reference Energy          =    -309.1321845739750529 [Eh]
	 Singles Energy            =      -0.0000000000000000 [Eh]
	 Same-Spin Energy          =      -0.3185764634486526 [Eh]
	 Opposite-Spin Energy      =      -1.1055518923969692 [Eh]
	 Correlation Energy        =      -1.4241283558456219 [Eh]
	 Total Energy              =    -310.5563129298206491 [Eh]

	 ================> DF-SCS-MP2 Energies <==================
	-----------------------------------------------------------
	 SCS Same-Spin Scale       =       0.3333333333333333 [-]
	 SCS Opposite-Spin Scale   =       1.2000000000000000 [-]
	 SCS Same-Spin Energy      =      -0.1061921544828842 [Eh]
	 SCS Opposite-Spin Energy  =      -1.3266622708763629 [Eh]
	 SCS Correlation Energy    =      -1.4328544253592472 [Eh]
	 SCS Total Energy          =    -310.5650389993343197 [Eh]
	-----------------------------------------------------------

  Dipole Moment: [D]
     X:     0.0109      Y:     1.3764      Z:     0.7895     Total:     1.5868

*** Psi4 exiting successfully. Buy a developer a beer!
