                               Psi4 1.3.2 release

  ==> Input File <==

--------------------------------------------------------------------------
#psi4
#
memory 32 gb

molecule  {
0 1
  O       -2.3409430    -1.1152500    -0.1201430
  C       -1.5156830    -0.0261920     0.3177710
  C       -0.1581502    -0.2562344    -0.3095482
  C        2.3348890    -0.4444240    -0.1997250
  C        0.9740050    -0.2811540     0.4036300
  C       -2.1103090     1.3065560    -0.1212920
  C        3.2132980     0.7871720     0.0273270
  H       -1.4208040    -0.0402330     1.4151950
  H       -0.1609320    -0.3839550    -1.3725900
  H        2.2351040    -0.6390970    -1.2733090
  H        2.8261900    -1.3231820     0.2368400
  H        0.9557576    -0.1602265     1.4887012
  H       -1.4764410     2.1380570     0.1977940
  H       -2.2008650     1.3268630    -1.2105240
  H       -3.1068830     1.4512670     0.3117270
  H        3.3300870     0.9922950     1.0954650
  H        2.7636150     1.6688370    -0.4368240
  H        4.2103780     0.6456890    -0.3991480
  H       -3.2411570    -0.9446250     0.2124840
units angstrom
no_reorient  #important for SAPT in psi4, default
symmetry c1  #important for SAPT in psi4, default
}

set PROPERTIES_ORIGIN ["COM"]
properties('MP2/aug-cc-pvtz', properties = ['dipole'])
--------------------------------------------------------------------------

    Molecular point group: c1
  Charge       = 0
  Multiplicity = 1
  Basis Set: AUG-CC-PVTZ
    Blend: AUG-CC-PVTZ
  Basis Set: (AUG-CC-PVTZ AUX)
    Blend: AUG-CC-PVTZ-JKFIT

    Orbital Energies [Eh]
    ---------------------

    Doubly Occupied:

       1A    -20.554964     2A    -11.283498     3A    -11.227769
       4A    -11.223376     5A    -11.220547     6A    -11.218982
       7A    -11.214913     8A     -1.353474     9A     -1.089242
      10A     -1.031758    11A     -0.970917    12A     -0.874166
      13A     -0.809047    14A     -0.758023    15A     -0.681618
      16A     -0.631887    17A     -0.624694    18A     -0.597245
      19A     -0.590622    20A     -0.542587    21A     -0.541865
      22A     -0.533137    23A     -0.515764    24A     -0.501533
      25A     -0.481979    26A     -0.459093    27A     -0.443433
      28A     -0.350041

  @DF-RHF Final Energy:  -309.14902467044783

   => Energetics <=

    Nuclear Repulsion Energy =            299.0253793801933853
    One-Electron Energy =               -1011.6964595644450355
    Two-Electron Energy =                 403.5220555138038208
    Total Energy =                       -309.1490246704478295
  Basis Set: (AUG-CC-PVTZ AUX)
    Blend: AUG-CC-PVTZ-RI
    Molecular point group: c1

    Geometry (in Angstrom), charge = 0, multiplicity = 1:

       Center              X                  Y                   Z               Mass
    ------------   -----------------  -----------------  -----------------  -----------------
         O           -2.342585055366    -1.114841061133    -0.117786770226    15.994914619570
         C           -1.517325055366    -0.025783061133     0.320127229774    12.000000000000
         C           -0.159792255366    -0.255825461133    -0.307191970226    12.000000000000
         C            2.333246944634    -0.444015061133    -0.197368770226    12.000000000000
         C            0.972362944634    -0.280745061133     0.405986229774    12.000000000000
         C           -2.111951055366     1.306964938867    -0.118935770226    12.000000000000
         C            3.211655944634     0.787580938867     0.029683229774    12.000000000000
         H           -1.422446055366    -0.039824061133     1.417551229774     1.007825032230
         H           -0.162574055366    -0.383546061133    -1.370233770226     1.007825032230
         H            2.233461944634    -0.638688061133    -1.270952770226     1.007825032230
         H            2.824547944634    -1.322773061133     0.239196229774     1.007825032230
         H            0.954115544634    -0.159817561133     1.491057429774     1.007825032230
         H           -1.478083055366     2.138465938867     0.200150229774     1.007825032230
         H           -2.202507055366     1.327271938867    -1.208167770226     1.007825032230
         H           -3.108525055366     1.451675938867     0.314083229774     1.007825032230
         H            3.328444944634     0.992703938867     1.097821229774     1.007825032230
         H            2.761972944634     1.669245938867    -0.434467770226     1.007825032230
         H            4.208735944634     0.646097938867    -0.396791770226     1.007825032230
         H           -3.242799055366    -0.944216061133     0.214840229774     1.007825032230

  Basis Set: AUG-CC-PVTZ
    Blend: AUG-CC-PVTZ
  Basis Set: (AUG-CC-PVTZ AUX)
    Blend: AUG-CC-PVTZ-JKFIT
	 Reference Energy          =    -309.1490246704478295 [Eh]
	 Singles Energy            =      -0.0000000000000000 [Eh]
	 Same-Spin Energy          =      -0.3163403600934758 [Eh]
	 Opposite-Spin Energy      =      -1.1022149923924507 [Eh]
	 Correlation Energy        =      -1.4185553524859265 [Eh]
	 Total Energy              =    -310.5675800229337824 [Eh]

	 ================> DF-SCS-MP2 Energies <==================
	-----------------------------------------------------------
	 SCS Same-Spin Scale       =       0.3333333333333333 [-]
	 SCS Opposite-Spin Scale   =       1.2000000000000000 [-]
	 SCS Same-Spin Energy      =      -0.1054467866978253 [Eh]
	 SCS Opposite-Spin Energy  =      -1.3226579908709408 [Eh]
	 SCS Correlation Energy    =      -1.4281047775687661 [Eh]
	 SCS Total Energy          =    -310.5771294480165921 [Eh]
	-----------------------------------------------------------

  Dipole Moment: [D]
     X:    -0.0992      Y:     1.3733      Z:     0.8120     Total:     1.5985

*** Psi4 exiting successfully. Buy a developer a beer!
