                               Psi4 1.3.2 release

  ==> Input File <==

--------------------------------------------------------------------------
#psi4
#
memory 32 gb

molecule  {
0 1
  O       -2.3409430    -1.1152500    -0.1201430
  C       -1.4930067    -0.0231640     0.3646165
  C       -0.1702520    -0.2529640    -0.2898400
  C        2.3348890    -0.4444240    -0.1997250
  C        0.9740050    -0.2811540     0.4036300
  C       -2.1103090     1.3065560    -0.1212920
  C        3.2132980     0.7871720     0.0273270
  H       -1.4208040    -0.0402330     1.4151950
  H       -0.1231177    -0.3880998    -1.3710938
  H        2.2351040    -0.6390970    -1.2733090
  H        2.8261900    -1.3231820     0.2368400
  H        0.9367840    -0.1585690     1.4880300
  H       -1.4764410     2.1380570     0.1977940
  H       -2.2008650     1.3268630    -1.2105240
  H       -3.1068830     1.4512670     0.3117270
  H        3.3300870     0.9922950     1.0954650
  H        2.7636150     1.6688370    -0.4368240
  H        4.2103780     0.6456890    -0.3991480
  H       -3.2411570    -0.9446250     0.2124840
units angstrom
no_reorient  #important for SAPT in psi4, default
symmetry c1  #important for SAPT in psi4, default
}

set PROPERTIES_ORIGIN ["COM"]
properties('MP2/aug-cc-pvtz', properties = ['dipole'])
--------------------------------------------------------------------------

    Molecular point group: c1
  Charge       = 0
  Multiplicity = 1
  Basis Set: AUG-CC-PVTZ
    Blend: AUG-CC-PVTZ
  Basis Set: (AUG-CC-PVTZ AUX)
    Blend: AUG-CC-PVTZ-JKFIT

    Orbital Energies [Eh]
    ---------------------

    Doubly Occupied:

       1A    -20.551771     2A    -11.282538     3A    -11.226945
       4A    -11.224522     5A    -11.221432     6A    -11.220212
       7A    -11.215437     8A     -1.342162     9A     -1.091045
      10A     -1.032769    11A     -0.969770    12A     -0.875774
      13A     -0.812461    14A     -0.758799    15A     -0.680096
      16A     -0.630082    17A     -0.618712    18A     -0.596627
      19A     -0.588906    20A     -0.543465    21A     -0.537907
      22A     -0.530702    23A     -0.515178    24A     -0.501859
      25A     -0.482056    26A     -0.466822    27A     -0.446180
      28A     -0.349433

  @DF-RHF Final Energy:  -309.14589413328821

   => Energetics <=

    Nuclear Repulsion Energy =            298.8747863613984350
    One-Electron Energy =               -1011.4140379378272883
    Two-Electron Energy =                 403.3933574431405873
    Total Energy =                       -309.1458941332882091
  Basis Set: (AUG-CC-PVTZ AUX)
    Blend: AUG-CC-PVTZ-RI
    Molecular point group: c1

    Geometry (in Angstrom), charge = 0, multiplicity = 1:

       Center              X                  Y                   Z               Mass
    ------------   -----------------  -----------------  -----------------  -----------------
         O           -2.344042582154    -1.115571153069    -0.125774434538    15.994914619570
         C           -1.496106282154    -0.023485153069     0.358985065462    12.000000000000
         C           -0.173351582154    -0.253285153069    -0.295471434538    12.000000000000
         C            2.331789417846    -0.444745153069    -0.205356434538    12.000000000000
         C            0.970905417846    -0.281475153069     0.397998565462    12.000000000000
         C           -2.113408582154     1.306234846931    -0.126923434538    12.000000000000
         C            3.210198417846     0.786850846931     0.021695565462    12.000000000000
         H           -1.423903582154    -0.040554153069     1.409563565462     1.007825032230
         H           -0.126217282154    -0.388420953069    -1.376725234538     1.007825032230
         H            2.232004417846    -0.639418153069    -1.278940434538     1.007825032230
         H            2.823090417846    -1.323503153069     0.231208565462     1.007825032230
         H            0.933684417846    -0.158890153069     1.482398565462     1.007825032230
         H           -1.479540582154     2.137735846931     0.192162565462     1.007825032230
         H           -2.203964582154     1.326541846931    -1.216155434538     1.007825032230
         H           -3.109982582154     1.450945846931     0.306095565462     1.007825032230
         H            3.326987417846     0.991973846931     1.089833565462     1.007825032230
         H            2.760515417846     1.668515846931    -0.442455434538     1.007825032230
         H            4.207278417846     0.645367846931    -0.404779434538     1.007825032230
         H           -3.244256582154    -0.944946153069     0.206852565462     1.007825032230

  Basis Set: AUG-CC-PVTZ
    Blend: AUG-CC-PVTZ
  Basis Set: (AUG-CC-PVTZ AUX)
    Blend: AUG-CC-PVTZ-JKFIT
	 Reference Energy          =    -309.1458941332882091 [Eh]
	 Singles Energy            =      -0.0000000000000000 [Eh]
	 Same-Spin Energy          =      -0.3165264956393854 [Eh]
	 Opposite-Spin Energy      =      -1.1027942083027173 [Eh]
	 Correlation Energy        =      -1.4193207039421027 [Eh]
	 Total Energy              =    -310.5652148372303145 [Eh]

	 ================> DF-SCS-MP2 Energies <==================
	-----------------------------------------------------------
	 SCS Same-Spin Scale       =       0.3333333333333333 [-]
	 SCS Opposite-Spin Scale   =       1.2000000000000000 [-]
	 SCS Same-Spin Energy      =      -0.1055088318797951 [Eh]
	 SCS Opposite-Spin Energy  =      -1.3233530499632609 [Eh]
	 SCS Correlation Energy    =      -1.4288618818430561 [Eh]
	 SCS Total Energy          =    -310.5747560151312427 [Eh]
	-----------------------------------------------------------

  Dipole Moment: [D]
     X:    -0.0078      Y:     1.4174      Z:     0.8804     Total:     1.6686

*** Psi4 exiting successfully. Buy a developer a beer!
