                               Psi4 1.3.2 release

  ==> Input File <==

--------------------------------------------------------------------------
#psi4
#
memory 32 gb

molecule  {
0 1
  O       -2.3409430    -1.1152500    -0.1201430
  C       -1.5467640    -0.0325877     0.2463039
  C       -0.1702520    -0.2529640    -0.2898400
  C        2.3348890    -0.4444240    -0.1997250
  C        1.0080003    -0.2929745     0.3435163
  C       -2.1103090     1.3065560    -0.1212920
  C        3.2132980     0.7871720     0.0273270
  H       -1.4208040    -0.0402330     1.4151950
  H       -0.1609320    -0.3839550    -1.3725900
  H        2.2351040    -0.6390970    -1.2733090
  H        2.8261900    -1.3231820     0.2368400
  H        0.9367840    -0.1585690     1.4880300
  H       -1.4764410     2.1380570     0.1977940
  H       -2.2008650     1.3268630    -1.2105240
  H       -3.1068830     1.4512670     0.3117270
  H        3.3300870     0.9922950     1.0954650
  H        2.7636150     1.6688370    -0.4368240
  H        4.2103780     0.6456890    -0.3991480
  H       -3.2411570    -0.9446250     0.2124840
units angstrom
no_reorient  #important for SAPT in psi4, default
symmetry c1  #important for SAPT in psi4, default
}

set PROPERTIES_ORIGIN ["COM"]
properties('MP2/aug-cc-pvtz', properties = ['dipole'])
--------------------------------------------------------------------------

    Molecular point group: c1
  Charge       = 0
  Multiplicity = 1
  Basis Set: AUG-CC-PVTZ
    Blend: AUG-CC-PVTZ
  Basis Set: (AUG-CC-PVTZ AUX)
    Blend: AUG-CC-PVTZ-JKFIT

    Orbital Energies [Eh]
    ---------------------

    Doubly Occupied:

       1A    -20.561624     2A    -11.288101     3A    -11.231468
       4A    -11.222930     5A    -11.220257     6A    -11.219571
       7A    -11.216742     8A     -1.373691     9A     -1.095186
      10A     -1.038725    11A     -0.973708    12A     -0.882236
      13A     -0.813733    14A     -0.741668    15A     -0.684783
      16A     -0.642831    17A     -0.633806    18A     -0.606941
      19A     -0.589317    20A     -0.544836    21A     -0.541936
      22A     -0.526000    23A     -0.522450    24A     -0.507098
      25A     -0.478699    26A     -0.461959    27A     -0.427800
      28A     -0.348759

  @DF-RHF Final Energy:  -309.13637768506544

   => Energetics <=

    Nuclear Repulsion Energy =            300.0413517367142617
    One-Electron Energy =               -1013.5617476428055852
    Two-Electron Energy =                 404.3840182210259400
    Total Energy =                       -309.1363776850654403
  Basis Set: (AUG-CC-PVTZ AUX)
    Blend: AUG-CC-PVTZ-RI
    Molecular point group: c1

    Geometry (in Angstrom), charge = 0, multiplicity = 1:

       Center              X                  Y                   Z               Mass
    ------------   -----------------  -----------------  -----------------  -----------------
         O           -2.341292482674    -1.113065846490    -0.104367212286    15.994914619570
         C           -1.547113482674    -0.030403546490     0.262079687714    12.000000000000
         C           -0.170601482674    -0.250779846490    -0.274064212286    12.000000000000
         C            2.334539517326    -0.442239846490    -0.183949212286    12.000000000000
         C            1.007650817326    -0.290790346490     0.359292087714    12.000000000000
         C           -2.110658482674     1.308740153510    -0.105516212286    12.000000000000
         C            3.212948517326     0.789356153510     0.043102787714    12.000000000000
         H           -1.421153482674    -0.038048846490     1.430970787714     1.007825032230
         H           -0.161281482674    -0.381770846490    -1.356814212286     1.007825032230
         H            2.234754517326    -0.636912846490    -1.257533212286     1.007825032230
         H            2.825840517326    -1.320997846490     0.252615787714     1.007825032230
         H            0.936434517326    -0.156384846490     1.503805787714     1.007825032230
         H           -1.476790482674     2.140241153510     0.213569787714     1.007825032230
         H           -2.201214482674     1.329047153510    -1.194748212286     1.007825032230
         H           -3.107232482674     1.453451153510     0.327502787714     1.007825032230
         H            3.329737517326     0.994479153510     1.111240787714     1.007825032230
         H            2.763265517326     1.671021153510    -0.421048212286     1.007825032230
         H            4.210028517326     0.647873153510    -0.383372212286     1.007825032230
         H           -3.241506482674    -0.942440846490     0.228259787714     1.007825032230

  Basis Set: AUG-CC-PVTZ
    Blend: AUG-CC-PVTZ
  Basis Set: (AUG-CC-PVTZ AUX)
    Blend: AUG-CC-PVTZ-JKFIT
	 Reference Energy          =    -309.1363776850654403 [Eh]
	 Singles Energy            =      -0.0000000000000000 [Eh]
	 Same-Spin Energy          =      -0.3175505724137169 [Eh]
	 Opposite-Spin Energy      =      -1.1033765311645580 [Eh]
	 Correlation Energy        =      -1.4209271035782749 [Eh]
	 Total Energy              =    -310.5573047886437053 [Eh]

	 ================> DF-SCS-MP2 Energies <==================
	-----------------------------------------------------------
	 SCS Same-Spin Scale       =       0.3333333333333333 [-]
	 SCS Opposite-Spin Scale   =       1.2000000000000000 [-]
	 SCS Same-Spin Energy      =      -0.1058501908045723 [Eh]
	 SCS Opposite-Spin Energy  =      -1.3240518373974697 [Eh]
	 SCS Correlation Energy    =      -1.4299020282020420 [Eh]
	 SCS Total Energy          =    -310.5662797132674768 [Eh]
	-----------------------------------------------------------

  Dipole Moment: [D]
     X:    -0.1742      Y:     1.3220      Z:     0.6484     Total:     1.4827

*** Psi4 exiting successfully. Buy a developer a beer!
