                               Psi4 1.3.2 release

  ==> Input File <==

--------------------------------------------------------------------------
#psi4
#
memory 32 gb

molecule  {
0 1
  O       -2.3409430    -1.1152500    -0.1201430
  C       -1.5156830    -0.0261920     0.3177710
  C       -0.1702520    -0.2529640    -0.2898400
  C        2.3239290    -0.4462632    -0.2233818
  C        0.9740050    -0.2811540     0.4036300
  C       -2.1103090     1.3065560    -0.1212920
  C        3.2132980     0.7871720     0.0273270
  H       -1.4208040    -0.0402330     1.4151950
  H       -0.1609320    -0.3839550    -1.3725900
  H        2.2351040    -0.6390970    -1.2733090
  H        2.8261900    -1.3231820     0.2368400
  H        0.9177910    -0.1573279     1.4870703
  H       -1.4764410     2.1380570     0.1977940
  H       -2.2008650     1.3268630    -1.2105240
  H       -3.1068830     1.4512670     0.3117270
  H        3.3300870     0.9922950     1.0954650
  H        2.7636150     1.6688370    -0.4368240
  H        4.2103780     0.6456890    -0.3991480
  H       -3.2411570    -0.9446250     0.2124840
units angstrom
no_reorient  #important for SAPT in psi4, default
symmetry c1  #important for SAPT in psi4, default
}

set PROPERTIES_ORIGIN ["COM"]
properties('MP2/aug-cc-pvtz', properties = ['dipole'])
--------------------------------------------------------------------------

    Molecular point group: c1
  Charge       = 0
  Multiplicity = 1
  Basis Set: AUG-CC-PVTZ
    Blend: AUG-CC-PVTZ
  Basis Set: (AUG-CC-PVTZ AUX)
    Blend: AUG-CC-PVTZ-JKFIT

    Orbital Energies [Eh]
    ---------------------

    Doubly Occupied:

       1A    -20.555176     2A    -11.282605     3A    -11.227546
       4A    -11.224492     5A    -11.220028     6A    -11.219219
       7A    -11.215644     8A     -1.353949     9A     -1.089924
      10A     -1.032594    11A     -0.970453    12A     -0.875641
      13A     -0.811006    14A     -0.755743    15A     -0.681643
      16A     -0.632599    17A     -0.624832    18A     -0.596599
      19A     -0.590659    20A     -0.542796    21A     -0.539861
      22A     -0.529552    23A     -0.513587    24A     -0.501481
      25A     -0.487944    26A     -0.462545    27A     -0.443615
      28A     -0.348767

  @DF-RHF Final Energy:  -309.14874681003442

   => Energetics <=

    Nuclear Repulsion Energy =            299.2130221465605473
    One-Electron Energy =               -1012.0625439600446498
    Two-Electron Energy =                 403.7007750034496780
    Total Energy =                       -309.1487468100344245
  Basis Set: (AUG-CC-PVTZ AUX)
    Blend: AUG-CC-PVTZ-RI
    Molecular point group: c1

    Geometry (in Angstrom), charge = 0, multiplicity = 1:

       Center              X                  Y                   Z               Mass
    ------------   -----------------  -----------------  -----------------  -----------------
         O           -2.339437797705    -1.115041839628    -0.117296936654    15.994914619570
         C           -1.514177797705    -0.025983839628     0.320617063346    12.000000000000
         C           -0.168746797705    -0.252755839628    -0.286993936654    12.000000000000
         C            2.325434202295    -0.446055039628    -0.220535736654    12.000000000000
         C            0.975510202295    -0.280945839628     0.406476063346    12.000000000000
         C           -2.108803797705     1.306764160372    -0.118445936654    12.000000000000
         C            3.214803202295     0.787380160372     0.030173063346    12.000000000000
         H           -1.419298797705    -0.040024839628     1.418041063346     1.007825032230
         H           -0.159426797705    -0.383746839628    -1.369743936654     1.007825032230
         H            2.236609202295    -0.638888839628    -1.270462936654     1.007825032230
         H            2.827695202295    -1.322973839628     0.239686063346     1.007825032230
         H            0.919296202295    -0.157119739628     1.489916363346     1.007825032230
         H           -1.474935797705     2.138265160372     0.200640063346     1.007825032230
         H           -2.199359797705     1.327071160372    -1.207677936654     1.007825032230
         H           -3.105377797705     1.451475160372     0.314573063346     1.007825032230
         H            3.331592202295     0.992503160372     1.098311063346     1.007825032230
         H            2.765120202295     1.669045160372    -0.433977936654     1.007825032230
         H            4.211883202295     0.645897160372    -0.396301936654     1.007825032230
         H           -3.239651797705    -0.944416839628     0.215330063346     1.007825032230

  Basis Set: AUG-CC-PVTZ
    Blend: AUG-CC-PVTZ
  Basis Set: (AUG-CC-PVTZ AUX)
    Blend: AUG-CC-PVTZ-JKFIT
	 Reference Energy          =    -309.1487468100344245 [Eh]
	 Singles Energy            =      -0.0000000000000000 [Eh]
	 Same-Spin Energy          =      -0.3165142564228309 [Eh]
	 Opposite-Spin Energy      =      -1.1023314207836543 [Eh]
	 Correlation Energy        =      -1.4188456772064852 [Eh]
	 Total Energy              =    -310.5675924872409155 [Eh]

	 ================> DF-SCS-MP2 Energies <==================
	-----------------------------------------------------------
	 SCS Same-Spin Scale       =       0.3333333333333333 [-]
	 SCS Opposite-Spin Scale   =       1.2000000000000000 [-]
	 SCS Same-Spin Energy      =      -0.1055047521409436 [Eh]
	 SCS Opposite-Spin Energy  =      -1.3227977049403852 [Eh]
	 SCS Correlation Energy    =      -1.4283024570813287 [Eh]
	 SCS Total Energy          =    -310.5770492671157399 [Eh]
	-----------------------------------------------------------

  Dipole Moment: [D]
     X:    -0.0943      Y:     1.3780      Z:     0.8027     Total:     1.5976

*** Psi4 exiting successfully. Buy a developer a beer!
