                               Psi4 1.3.2 release

  ==> Input File <==

--------------------------------------------------------------------------
#psi4
#
memory 32 gb

molecule  {
0 1
  O       -2.3409430    -1.1152500    -0.1201430
  C       -1.5045480    -0.0246432     0.3412899
  C       -0.1702520    -0.2529640    -0.2898400
  C        2.3348890    -0.4444240    -0.1997250
  C        0.9740050    -0.2811540     0.4036300
  C       -2.1103090     1.3065560    -0.1212920
  C        3.2132980     0.7871720     0.0273270
  H       -1.4208040    -0.0402330     1.4151950
  H       -0.1420206    -0.3860477    -1.3720067
  H        2.2351040    -0.6390970    -1.2733090
  H        2.8261900    -1.3231820     0.2368400
  H        0.9367840    -0.1585690     1.4880300
  H       -1.4764410     2.1380570     0.1977940
  H       -2.2008650     1.3268630    -1.2105240
  H       -3.1068830     1.4512670     0.3117270
  H        3.3300870     0.9922950     1.0954650
  H        2.7636150     1.6688370    -0.4368240
  H        4.2103780     0.6456890    -0.3991480
  H       -3.2411570    -0.9446250     0.2124840
units angstrom
no_reorient  #important for SAPT in psi4, default
symmetry c1  #important for SAPT in psi4, default
}

set PROPERTIES_ORIGIN ["COM"]
properties('MP2/aug-cc-pvtz', properties = ['dipole'])
--------------------------------------------------------------------------

    Molecular point group: c1
  Charge       = 0
  Multiplicity = 1
  Basis Set: AUG-CC-PVTZ
    Blend: AUG-CC-PVTZ
  Basis Set: (AUG-CC-PVTZ AUX)
    Blend: AUG-CC-PVTZ-JKFIT

    Orbital Energies [Eh]
    ---------------------

    Doubly Occupied:

       1A    -20.553522     2A    -11.282575     3A    -11.227285
       4A    -11.224482     5A    -11.221100     6A    -11.219711
       7A    -11.215332     8A     -1.348072     9A     -1.090493
      10A     -1.033115    11A     -0.970455    12A     -0.875740
      13A     -0.811183    14A     -0.756958    15A     -0.680738
      16A     -0.631711    17A     -0.621655    18A     -0.597411
      19A     -0.589133    20A     -0.543195    21A     -0.538822
      22A     -0.530871    23A     -0.515821    24A     -0.501787
      25A     -0.481986    26A     -0.464600    27A     -0.445754
      28A     -0.349636

  @DF-RHF Final Energy:  -309.14855699248318

   => Energetics <=

    Nuclear Repulsion Energy =            299.0436429983404309
    One-Electron Energy =               -1011.7381140646792801
    Two-Electron Energy =                 403.5459140738556130
    Total Energy =                       -309.1485569924831793
  Basis Set: (AUG-CC-PVTZ AUX)
    Blend: AUG-CC-PVTZ-RI
    Molecular point group: c1

    Geometry (in Angstrom), charge = 0, multiplicity = 1:

       Center              X                  Y                   Z               Mass
    ------------   -----------------  -----------------  -----------------  -----------------
         O           -2.342468516003    -1.115414469805    -0.122968534164    15.994914619570
         C           -1.506073516003    -0.024807669805     0.338464365836    12.000000000000
         C           -0.171777516003    -0.253128469805    -0.292665534164    12.000000000000
         C            2.333363483997    -0.444588469805    -0.202550534164    12.000000000000
         C            0.972479483997    -0.281318469805     0.400804465836    12.000000000000
         C           -2.111834516003     1.306391530195    -0.124117534164    12.000000000000
         C            3.211772483997     0.787007530195     0.024501465836    12.000000000000
         H           -1.422329516003    -0.040397469805     1.412369465836     1.007825032230
         H           -0.143546116003    -0.386212169805    -1.374832234164     1.007825032230
         H            2.233578483997    -0.639261469805    -1.276134534164     1.007825032230
         H            2.824664483997    -1.323346469805     0.234014465836     1.007825032230
         H            0.935258483997    -0.158733469805     1.485204465836     1.007825032230
         H           -1.477966516003     2.137892530195     0.194968465836     1.007825032230
         H           -2.202390516003     1.326698530195    -1.213349534164     1.007825032230
         H           -3.108408516003     1.451102530195     0.308901465836     1.007825032230
         H            3.328561483997     0.992130530195     1.092639465836     1.007825032230
         H            2.762089483997     1.668672530195    -0.439649534164     1.007825032230
         H            4.208852483997     0.645524530195    -0.401973534164     1.007825032230
         H           -3.242682516003    -0.944789469805     0.209658465836     1.007825032230

  Basis Set: AUG-CC-PVTZ
    Blend: AUG-CC-PVTZ
  Basis Set: (AUG-CC-PVTZ AUX)
    Blend: AUG-CC-PVTZ-JKFIT
	 Reference Energy          =    -309.1485569924831793 [Eh]
	 Singles Energy            =      -0.0000000000000000 [Eh]
	 Same-Spin Energy          =      -0.3165078972302966 [Eh]
	 Opposite-Spin Energy      =      -1.1025266427088318 [Eh]
	 Correlation Energy        =      -1.4190345399391284 [Eh]
	 Total Energy              =    -310.5675915324222842 [Eh]

	 ================> DF-SCS-MP2 Energies <==================
	-----------------------------------------------------------
	 SCS Same-Spin Scale       =       0.3333333333333333 [-]
	 SCS Opposite-Spin Scale   =       1.2000000000000000 [-]
	 SCS Same-Spin Energy      =      -0.1055026324100989 [Eh]
	 SCS Opposite-Spin Energy  =      -1.3230319712505982 [Eh]
	 SCS Correlation Energy    =      -1.4285346036606972 [Eh]
	 SCS Total Energy          =    -310.5770915961438732 [Eh]
	-----------------------------------------------------------

  Dipole Moment: [D]
     X:    -0.0520      Y:     1.3986      Z:     0.8489     Total:     1.6369

*** Psi4 exiting successfully. Buy a developer a beer!
