                               Psi4 1.4a3.dev225

  ==> Input File <==

--------------------------------------------------------------------------
#psi4
#
memory 32 gb

molecule  {
0 1
  O       -2.4334040    -1.0537050    -0.1031880
  C       -1.5599110     0.0061750     0.3163080
  C       -0.2252920    -0.2882920    -0.2906650
  C        2.2718840    -0.5904540    -0.1973150
  C        0.9354987    -0.3593003     0.4143663
  C       -2.0985830     1.3582810    -0.1413790
  C        3.2072160     0.6032460     0.0168350
  H       -1.4627270     0.0051460     1.4138490
  H       -0.2231950    -0.4335060    -1.3719210
  H        2.1635620    -0.7923810    -1.2691220
  H        2.7222980    -1.4861610     0.2495370
  H        0.8868390    -0.2195170     1.4869310
  H       -1.4287050     2.1666040     0.1650490
  H       -2.1908800     1.3667930    -1.2308750
  H       -3.0873820     1.5512680     0.2912850
  H        3.3343300     0.8133780     1.0831920
  H        2.7976640     1.4999730    -0.4563300
  H        4.1964720     0.4112550    -0.4090930
  H       -3.3235000    -0.8374140     0.2263080
units angstrom
no_reorient  #important for SAPT in psi4, default
symmetry c1  #important for SAPT in psi4, default
}

set PROPERTIES_ORIGIN ["COM"]
properties('MP2/aug-cc-pvtz', properties = ['dipole'])
--------------------------------------------------------------------------

    Molecular point group: c1
  Charge       = 0
  Multiplicity = 1
  Basis Set: AUG-CC-PVTZ
    Blend: AUG-CC-PVTZ
  Basis Set: (AUG-CC-PVTZ AUX)
    Blend: AUG-CC-PVTZ-JKFIT

    Orbital Energies [Eh]
    ---------------------

    Doubly Occupied:

       1A    -20.555212     2A    -11.283460     3A    -11.229887
       4A    -11.224577     5A    -11.224196     6A    -11.219658
       7A    -11.215624     8A     -1.353869     9A     -1.088329
      10A     -1.033584    11A     -0.968608    12A     -0.876847
      13A     -0.809290    14A     -0.756363    15A     -0.681807
      16A     -0.633019    17A     -0.624306    18A     -0.597781
      19A     -0.589710    20A     -0.542913    21A     -0.540125
      22A     -0.530241    23A     -0.516343    24A     -0.502104
      25A     -0.483033    26A     -0.465115    27A     -0.443549
      28A     -0.344578

  @DF-RHF Final Energy:  -309.14772470344951

   => Energetics <=

    Nuclear Repulsion Energy =            298.7551770417201169
    One-Electron Energy =               -1011.1375437492415585
    Two-Electron Energy =                 403.2346420040719295
    Total Energy =                       -309.1477247034495122
  Basis Set: (AUG-CC-PVTZ AUX)
    Blend: AUG-CC-PVTZ-RI
    Molecular point group: c1

    Geometry (in Angstrom), charge = 0, multiplicity = 1:

       Center              X                  Y                   Z               Mass
    ------------   -----------------  -----------------  -----------------  -----------------
         O           -2.392108178872    -1.013531086199    -0.102663761045    15.994914619570
         C           -1.518615178872     0.046348913801     0.316832238955    12.000000000000
         C           -0.183996178872    -0.248118086199    -0.290140761045    12.000000000000
         C            2.313179821128    -0.550280086199    -0.196790761045    12.000000000000
         C            0.976794521128    -0.319126386199     0.414890538955    12.000000000000
         C           -2.057287178872     1.398454913801    -0.140854761045    12.000000000000
         C            3.248511821128     0.643419913801     0.017359238955    12.000000000000
         H           -1.421431178872     0.045319913801     1.414373238955     1.007825032230
         H           -0.181899178872    -0.393332086199    -1.371396761045     1.007825032230
         H            2.204857821128    -0.752207086199    -1.268597761045     1.007825032230
         H            2.763593821128    -1.445987086199     0.250061238955     1.007825032230
         H            0.928134821128    -0.179343086199     1.487455238955     1.007825032230
         H           -1.387409178872     2.206777913801     0.165573238955     1.007825032230
         H           -2.149584178872     1.406966913801    -1.230350761045     1.007825032230
         H           -3.046086178872     1.591441913801     0.291809238955     1.007825032230
         H            3.375625821128     0.853551913801     1.083716238955     1.007825032230
         H            2.838959821128     1.540146913801    -0.455805761045     1.007825032230
         H            4.237767821128     0.451428913801    -0.408568761045     1.007825032230
         H           -3.282204178872    -0.797240086199     0.226832238955     1.007825032230

  Basis Set: AUG-CC-PVTZ
    Blend: AUG-CC-PVTZ
  Basis Set: (AUG-CC-PVTZ AUX)
    Blend: AUG-CC-PVTZ-JKFIT
	 Reference Energy          =    -309.1477247034495122 [Eh]
	 Singles Energy            =      -0.0000000000000000 [Eh]
	 Same-Spin Energy          =      -0.3167714374985643 [Eh]
	 Opposite-Spin Energy      =      -1.1030049796921260 [Eh]
	 Correlation Energy        =      -1.4197764171906901 [Eh]
	 Total Energy              =    -310.5675011206402019 [Eh]

	 ================> DF-SCS-MP2 Energies <==================
	-----------------------------------------------------------
	 SCS Same-Spin Scale       =       0.3333333333333333 [-]
	 SCS Opposite-Spin Scale   =       1.2000000000000000 [-]
	 SCS Same-Spin Energy      =      -0.1055904791661881 [Eh]
	 SCS Opposite-Spin Energy  =      -1.3236059756305512 [Eh]
	 SCS Correlation Energy    =      -1.4291964547967393 [Eh]
	 SCS Total Energy          =    -310.5769211582462503 [Eh]
	-----------------------------------------------------------

  Dipole Moment: [D]
     X:    -0.0166      Y:     1.3963      Z:     0.7958     Total:     1.6072

*** Psi4 exiting successfully. Buy a developer a beer!
