                               Psi4 1.3.2 release

  ==> Input File <==

--------------------------------------------------------------------------
#psi4
#
memory 32 gb

molecule  {
0 1
  O       -2.3409430    -1.1152500    -0.1201430
  C       -1.5101665    -0.0254089     0.3295540
  C       -0.1702520    -0.2529640    -0.2898400
  C        2.3348890    -0.4444240    -0.1997250
  C        0.9740050    -0.2811540     0.4036300
  C       -2.1103090     1.3065560    -0.1212920
  C        3.2132980     0.7871720     0.0273270
  H       -1.4208040    -0.0402330     1.4151950
  H       -0.1514756    -0.3850064    -1.3723396
  H        2.2351040    -0.6390970    -1.2733090
  H        2.8261900    -1.3231820     0.2368400
  H        0.9367840    -0.1585690     1.4880300
  H       -1.4764410     2.1380570     0.1977940
  H       -2.2008650     1.3268630    -1.2105240
  H       -3.1068830     1.4512670     0.3117270
  H        3.3300870     0.9922950     1.0954650
  H        2.7636150     1.6688370    -0.4368240
  H        4.2103780     0.6456890    -0.3991480
  H       -3.2411570    -0.9446250     0.2124840
units angstrom
no_reorient  #important for SAPT in psi4, default
symmetry c1  #important for SAPT in psi4, default
}

set PROPERTIES_ORIGIN ["COM"]
properties('MP2/aug-cc-pvtz', properties = ['dipole'])
--------------------------------------------------------------------------

    Molecular point group: c1
  Charge       = 0
  Multiplicity = 1
  Basis Set: AUG-CC-PVTZ
    Blend: AUG-CC-PVTZ
  Basis Set: (AUG-CC-PVTZ AUX)
    Blend: AUG-CC-PVTZ-JKFIT

    Orbital Energies [Eh]
    ---------------------

    Doubly Occupied:

       1A    -20.554405     2A    -11.282674     3A    -11.227476
       4A    -11.224471     5A    -11.220976     6A    -11.219503
       7A    -11.215287     8A     -1.351063     9A     -1.090250
      10A     -1.033333    11A     -0.970804    12A     -0.875788
      13A     -0.810735    14A     -0.756009    15A     -0.681146
      16A     -0.632602    17A     -0.623145    18A     -0.597837
      19A     -0.589197    20A     -0.543125    21A     -0.539307
      22A     -0.531015    23A     -0.516152    24A     -0.501801
      25A     -0.481964    26A     -0.463565    27A     -0.444963
      28A     -0.349732

  @DF-RHF Final Energy:  -309.14921488713105

   => Energetics <=

    Nuclear Repulsion Energy =            299.1282211011232448
    One-Electron Energy =               -1011.8982264887562224
    Two-Electron Energy =                 403.6207905005019256
    Total Energy =                       -309.1492148871310519
  Basis Set: (AUG-CC-PVTZ AUX)
    Blend: AUG-CC-PVTZ-RI
    Molecular point group: c1

    Geometry (in Angstrom), charge = 0, multiplicity = 1:

       Center              X                  Y                   Z               Mass
    ------------   -----------------  -----------------  -----------------  -----------------
         O           -2.341699688980    -1.115333152509    -0.121558123771    15.994914619570
         C           -1.510923188980    -0.025492052509     0.328138876229    12.000000000000
         C           -0.171008688980    -0.253047152509    -0.291255123771    12.000000000000
         C            2.334132311020    -0.444507152509    -0.201140123771    12.000000000000
         C            0.973248311020    -0.281237152509     0.402214876229    12.000000000000
         C           -2.111065688980     1.306472847491    -0.122707123771    12.000000000000
         C            3.212541311020     0.787088847491     0.025911876229    12.000000000000
         H           -1.421560688980    -0.040316152509     1.413779876229     1.007825032230
         H           -0.152232288980    -0.385089552509    -1.373754723771     1.007825032230
         H            2.234347311020    -0.639180152509    -1.274724123771     1.007825032230
         H            2.825433311020    -1.323265152509     0.235424876229     1.007825032230
         H            0.936027311020    -0.158652152509     1.486614876229     1.007825032230
         H           -1.477197688980     2.137973847491     0.196378876229     1.007825032230
         H           -2.201621688980     1.326779847491    -1.211939123771     1.007825032230
         H           -3.107639688980     1.451183847491     0.310311876229     1.007825032230
         H            3.329330311020     0.992211847491     1.094049876229     1.007825032230
         H            2.762858311020     1.668753847491    -0.438239123771     1.007825032230
         H            4.209621311020     0.645605847491    -0.400563123771     1.007825032230
         H           -3.241913688980    -0.944708152509     0.211068876229     1.007825032230

  Basis Set: AUG-CC-PVTZ
    Blend: AUG-CC-PVTZ
  Basis Set: (AUG-CC-PVTZ AUX)
    Blend: AUG-CC-PVTZ-JKFIT
	 Reference Energy          =    -309.1492148871310519 [Eh]
	 Singles Energy            =      -0.0000000000000000 [Eh]
	 Same-Spin Energy          =      -0.3165144171152392 [Eh]
	 Opposite-Spin Energy      =      -1.1024349631119121 [Eh]
	 Correlation Energy        =      -1.4189493802271513 [Eh]
	 Total Energy              =    -310.5681642673582132 [Eh]

	 ================> DF-SCS-MP2 Energies <==================
	-----------------------------------------------------------
	 SCS Same-Spin Scale       =       0.3333333333333333 [-]
	 SCS Opposite-Spin Scale   =       1.2000000000000000 [-]
	 SCS Same-Spin Energy      =      -0.1055048057050797 [Eh]
	 SCS Opposite-Spin Energy  =      -1.3229219557342946 [Eh]
	 SCS Correlation Energy    =      -1.4284267614393744 [Eh]
	 SCS Total Energy          =    -310.5776416485704203 [Eh]
	-----------------------------------------------------------

  Dipole Moment: [D]
     X:    -0.0737      Y:     1.3890      Z:     0.8319     Total:     1.6208

*** Psi4 exiting successfully. Buy a developer a beer!
