                               Psi4 1.3.2 release

  ==> Input File <==

--------------------------------------------------------------------------
#psi4
#
memory 32 gb

molecule  {
0 1
  O       -2.3329900    -1.1233374    -0.1148388
  C       -1.5156830    -0.0261920     0.3177710
  C       -0.1702520    -0.2529640    -0.2898400
  C        2.3348890    -0.4444240    -0.1997250
  C        0.9740050    -0.2811540     0.4036300
  C       -2.1001686     1.3129215    -0.1155018
  C        3.2132980     0.7871720     0.0273270
  H       -1.4208040    -0.0402330     1.4151950
  H       -0.1609320    -0.3839550    -1.3725900
  H        2.2351040    -0.6390970    -1.2733090
  H        2.8261900    -1.3231820     0.2368400
  H        0.9367840    -0.1585690     1.4880300
  H       -1.4764410     2.1380570     0.1977940
  H       -2.2008650     1.3268630    -1.2105240
  H       -3.1068830     1.4512670     0.3117270
  H        3.3300870     0.9922950     1.0954650
  H        2.7636150     1.6688370    -0.4368240
  H        4.2103780     0.6456890    -0.3991480
  H       -3.2411570    -0.9446250     0.2124840
units angstrom
no_reorient  #important for SAPT in psi4, default
symmetry c1  #important for SAPT in psi4, default
}

set PROPERTIES_ORIGIN ["COM"]
properties('MP2/aug-cc-pvtz', properties = ['dipole'])
--------------------------------------------------------------------------

    Molecular point group: c1
  Charge       = 0
  Multiplicity = 1
  Basis Set: AUG-CC-PVTZ
    Blend: AUG-CC-PVTZ
  Basis Set: (AUG-CC-PVTZ AUX)
    Blend: AUG-CC-PVTZ-JKFIT

    Orbital Energies [Eh]
    ---------------------

    Doubly Occupied:

       1A    -20.556773     2A    -11.282754     3A    -11.227306
       4A    -11.224260     5A    -11.220595     6A    -11.219919
       7A    -11.215118     8A     -1.353128     9A     -1.089813
      10A     -1.033607    11A     -0.971158    12A     -0.875589
      13A     -0.809977    14A     -0.754886    15A     -0.680216
      16A     -0.633311    17A     -0.625567    18A     -0.598510
      19A     -0.589152    20A     -0.542657    21A     -0.538148
      22A     -0.531237    23A     -0.517056    24A     -0.503147
      25A     -0.481795    26A     -0.462134    27A     -0.443850
      28A     -0.349491

  @DF-RHF Final Energy:  -309.14857275870520

   => Energetics <=

    Nuclear Repulsion Energy =            299.1983745487713122
    One-Electron Energy =               -1012.0315854607937354
    Two-Electron Energy =                 403.6846381533172234
    Total Energy =                       -309.1485727587051997
  Basis Set: (AUG-CC-PVTZ AUX)
    Blend: AUG-CC-PVTZ-RI
    Molecular point group: c1

    Geometry (in Angstrom), charge = 0, multiplicity = 1:

       Center              X                  Y                   Z               Mass
    ------------   -----------------  -----------------  -----------------  -----------------
         O           -2.335476791983    -1.122808008088    -0.116380553971    15.994914619570
         C           -1.518169791983    -0.025662608088     0.316229246029    12.000000000000
         C           -0.172738791983    -0.252434608088    -0.291381753971    12.000000000000
         C            2.332402208017    -0.443894608088    -0.201266753971    12.000000000000
         C            0.971518208017    -0.280624608088     0.402088246029    12.000000000000
         C           -2.102655391983     1.313450891912    -0.117043553971    12.000000000000
         C            3.210811208017     0.787701391912     0.025785246029    12.000000000000
         H           -1.423290791983    -0.039703608088     1.413653246029     1.007825032230
         H           -0.163418791983    -0.383425608088    -1.374131753971     1.007825032230
         H            2.232617208017    -0.638567608088    -1.274850753971     1.007825032230
         H            2.823703208017    -1.322652608088     0.235298246029     1.007825032230
         H            0.934297208017    -0.158039608088     1.486488246029     1.007825032230
         H           -1.478927791983     2.138586391912     0.196252246029     1.007825032230
         H           -2.203351791983     1.327392391912    -1.212065753971     1.007825032230
         H           -3.109369791983     1.451796391912     0.310185246029     1.007825032230
         H            3.327600208017     0.992824391912     1.093923246029     1.007825032230
         H            2.761128208017     1.669366391912    -0.438365753971     1.007825032230
         H            4.207891208017     0.646218391912    -0.400689753971     1.007825032230
         H           -3.243643791983    -0.944095608088     0.210942246029     1.007825032230

  Basis Set: AUG-CC-PVTZ
    Blend: AUG-CC-PVTZ
  Basis Set: (AUG-CC-PVTZ AUX)
    Blend: AUG-CC-PVTZ-JKFIT
	 Reference Energy          =    -309.1485727587051997 [Eh]
	 Singles Energy            =      -0.0000000000000000 [Eh]
	 Same-Spin Energy          =      -0.3166532765729385 [Eh]
	 Opposite-Spin Energy      =      -1.1026698405089055 [Eh]
	 Correlation Energy        =      -1.4193231170818441 [Eh]
	 Total Energy              =    -310.5678958757870305 [Eh]

	 ================> DF-SCS-MP2 Energies <==================
	-----------------------------------------------------------
	 SCS Same-Spin Scale       =       0.3333333333333333 [-]
	 SCS Opposite-Spin Scale   =       1.2000000000000000 [-]
	 SCS Same-Spin Energy      =      -0.1055510921909795 [Eh]
	 SCS Opposite-Spin Energy  =      -1.3232038086106865 [Eh]
	 SCS Correlation Energy    =      -1.4287549008016660 [Eh]
	 SCS Total Energy          =    -310.5773276595068637 [Eh]
	-----------------------------------------------------------

  Dipole Moment: [D]
     X:    -0.1169      Y:     1.3978      Z:     0.7998     Total:     1.6147

*** Psi4 exiting successfully. Buy a developer a beer!
