                               Psi4 1.3.2 release

  ==> Input File <==

--------------------------------------------------------------------------
#psi4
#
memory 32 gb

molecule  {
0 1
  O       -2.3409430    -1.1152500    -0.1201430
  C       -1.5156830    -0.0261920     0.3177710
  C       -0.1702520    -0.2529640    -0.2898400
  C        2.3348890    -0.4444240    -0.1997250
  C        0.8030021    -0.2769412     0.2999947
  C       -2.1103090     1.3065560    -0.1212920
  C        3.2132980     0.7871720     0.0273270
  H       -1.4208040    -0.0402330     1.4151950
  H       -0.1609320    -0.3839550    -1.3725900
  H        2.2351040    -0.6390970    -1.2733090
  H        2.8261900    -1.3231820     0.2368400
  H        0.9367840    -0.1585690     1.4880300
  H       -1.4764410     2.1380570     0.1977940
  H       -2.2008650     1.3268630    -1.2105240
  H       -3.1068830     1.4512670     0.3117270
  H        3.3300870     0.9922950     1.0954650
  H        2.7636150     1.6688370    -0.4368240
  H        4.2103780     0.6456890    -0.3991480
  H       -3.2411570    -0.9446250     0.2124840
units angstrom
no_reorient  #important for SAPT in psi4, default
symmetry c1  #important for SAPT in psi4, default
}

set PROPERTIES_ORIGIN ["COM"]
properties('MP2/aug-cc-pvtz', properties = ['dipole'])
--------------------------------------------------------------------------

    Molecular point group: c1
  Charge       = 0
  Multiplicity = 1
  Basis Set: AUG-CC-PVTZ
    Blend: AUG-CC-PVTZ
  Basis Set: (AUG-CC-PVTZ AUX)
    Blend: AUG-CC-PVTZ-JKFIT

    Orbital Energies [Eh]
    ---------------------

    Doubly Occupied:

       1A    -20.555660     2A    -11.282398     3A    -11.229552
       4A    -11.219896     5A    -11.215754     6A    -11.211538
       7A    -11.189240     8A     -1.354613     9A     -1.120404
      10A     -1.026265    11A     -0.991475    12A     -0.865123
      13A     -0.820813    14A     -0.741281    15A     -0.672740
      16A     -0.636721    17A     -0.626623    18A     -0.601447
      19A     -0.589430    20A     -0.544464    21A     -0.539493
      22A     -0.537004    23A     -0.513689    24A     -0.502481
      25A     -0.482107    26A     -0.446948    27A     -0.411360
      28A     -0.405361

  @DF-RHF Final Energy:  -309.07733404956815

   => Energetics <=

    Nuclear Repulsion Energy =            301.3891157595776917
    One-Electron Energy =               -1016.2651385302024210
    Two-Electron Energy =                 405.7986887210566351
    Total Energy =                       -309.0773340495681509
  Basis Set: (AUG-CC-PVTZ AUX)
    Blend: AUG-CC-PVTZ-RI
    Molecular point group: c1

    Geometry (in Angstrom), charge = 0, multiplicity = 1:

       Center              X                  Y                   Z               Mass
    ------------   -----------------  -----------------  -----------------  -----------------
         O           -2.320440937975    -1.115754938173    -0.107717696553    15.994914619570
         C           -1.495180937975    -0.026696938173     0.330196303447    12.000000000000
         C           -0.149749937975    -0.253468938173    -0.277414696553    12.000000000000
         C            2.355391062025    -0.444928938173    -0.187299696553    12.000000000000
         C            0.823504162025    -0.277446138173     0.312420003447    12.000000000000
         C           -2.089806937975     1.306051061827    -0.108866696553    12.000000000000
         C            3.233800062025     0.786667061827     0.039752303447    12.000000000000
         H           -1.400301937975    -0.040737938173     1.427620303447     1.007825032230
         H           -0.140429937975    -0.384459938173    -1.360164696553     1.007825032230
         H            2.255606062025    -0.639601938173    -1.260883696553     1.007825032230
         H            2.846692062025    -1.323686938173     0.249265303447     1.007825032230
         H            0.957286062025    -0.159073938173     1.500455303447     1.007825032230
         H           -1.455938937975     2.137552061827     0.210219303447     1.007825032230
         H           -2.180362937975     1.326358061827    -1.198098696553     1.007825032230
         H           -3.086380937975     1.450762061827     0.324152303447     1.007825032230
         H            3.350589062025     0.991790061827     1.107890303447     1.007825032230
         H            2.784117062025     1.668332061827    -0.424398696553     1.007825032230
         H            4.230880062025     0.645184061827    -0.386722696553     1.007825032230
         H           -3.220654937975    -0.945129938173     0.224909303447     1.007825032230

  Basis Set: AUG-CC-PVTZ
    Blend: AUG-CC-PVTZ
  Basis Set: (AUG-CC-PVTZ AUX)
    Blend: AUG-CC-PVTZ-JKFIT
	 Reference Energy          =    -309.0773340495681509 [Eh]
	 Singles Energy            =      -0.0000000000000000 [Eh]
	 Same-Spin Energy          =      -0.3156661328839809 [Eh]
	 Opposite-Spin Energy      =      -1.0998713942525584 [Eh]
	 Correlation Energy        =      -1.4155375271365394 [Eh]
	 Total Energy              =    -310.4928715767047152 [Eh]

	 ================> DF-SCS-MP2 Energies <==================
	-----------------------------------------------------------
	 SCS Same-Spin Scale       =       0.3333333333333333 [-]
	 SCS Opposite-Spin Scale   =       1.2000000000000000 [-]
	 SCS Same-Spin Energy      =      -0.1052220442946603 [Eh]
	 SCS Opposite-Spin Energy  =      -1.3198456731030701 [Eh]
	 SCS Correlation Energy    =      -1.4250677173977304 [Eh]
	 SCS Total Energy          =    -310.5024017669658747 [Eh]
	-----------------------------------------------------------

  Dipole Moment: [D]
     X:    -0.2132      Y:     1.3994      Z:     0.7155     Total:     1.5861

*** Psi4 exiting successfully. Buy a developer a beer!
