                               Psi4 1.3.2 release

  ==> Input File <==

--------------------------------------------------------------------------
#psi4
#
memory 32 gb

molecule  {
0 1
  O       -2.3409430    -1.1152500    -0.1201430
  C       -1.5156830    -0.0261920     0.3177710
  C       -0.1702520    -0.2529640    -0.2898400
  C        2.3348890    -0.4444240    -0.1997250
  C        1.1557513    -0.3029587     0.3230518
  C       -2.1103090     1.3065560    -0.1212920
  C        3.2132980     0.7871720     0.0273270
  H       -1.4208040    -0.0402330     1.4151950
  H       -0.1609320    -0.3839550    -1.3725900
  H        2.2351040    -0.6390970    -1.2733090
  H        2.8261900    -1.3231820     0.2368400
  H        0.9367840    -0.1585690     1.4880300
  H       -1.4764410     2.1380570     0.1977940
  H       -2.2008650     1.3268630    -1.2105240
  H       -3.1068830     1.4512670     0.3117270
  H        3.3300870     0.9922950     1.0954650
  H        2.7636150     1.6688370    -0.4368240
  H        4.2103780     0.6456890    -0.3991480
  H       -3.2411570    -0.9446250     0.2124840
units angstrom
no_reorient  #important for SAPT in psi4, default
symmetry c1  #important for SAPT in psi4, default
}

set PROPERTIES_ORIGIN ["COM"]
properties('MP2/aug-cc-pvtz', properties = ['dipole'])
--------------------------------------------------------------------------

    Molecular point group: c1
  Charge       = 0
  Multiplicity = 1
  Basis Set: AUG-CC-PVTZ
    Blend: AUG-CC-PVTZ
  Basis Set: (AUG-CC-PVTZ AUX)
    Blend: AUG-CC-PVTZ-JKFIT

    Orbital Energies [Eh]
    ---------------------

    Doubly Occupied:

       1A    -20.555977     2A    -11.287180     3A    -11.245136
       4A    -11.234348     5A    -11.221065     6A    -11.219720
       7A    -11.216602     8A     -1.354654     9A     -1.117961
      10A     -1.039266    11A     -0.957773    12A     -0.896498
      13A     -0.807577    14A     -0.744503    15A     -0.683249
      16A     -0.645969    17A     -0.627729    18A     -0.609629
      19A     -0.588960    20A     -0.553547    21A     -0.541396
      22A     -0.525846    23A     -0.520104    24A     -0.513837
      25A     -0.481519    26A     -0.451207    27A     -0.442577
      28A     -0.315762

  @DF-RHF Final Energy:  -309.08373868738482

   => Energetics <=

    Nuclear Repulsion Energy =            299.3613779537540154
    One-Electron Energy =               -1012.0910548557704942
    Two-Electron Energy =                 403.6459382146317125
    Total Energy =                       -309.0837386873848232
  Basis Set: (AUG-CC-PVTZ AUX)
    Blend: AUG-CC-PVTZ-RI
    Molecular point group: c1

    Geometry (in Angstrom), charge = 0, multiplicity = 1:

       Center              X                  Y                   Z               Mass
    ------------   -----------------  -----------------  -----------------  -----------------
         O           -2.362733280029    -1.112635608605    -0.110482093354    15.994914619570
         C           -1.537473280029    -0.023577608605     0.327431906646    12.000000000000
         C           -0.192042280029    -0.250349608605    -0.280179093354    12.000000000000
         C            2.313098719971    -0.441809608605    -0.190064093354    12.000000000000
         C            1.133961019971    -0.300344308605     0.332712706646    12.000000000000
         C           -2.132099280029     1.309170391395    -0.111631093354    12.000000000000
         C            3.191507719971     0.789786391395     0.036987906646    12.000000000000
         H           -1.442594280029    -0.037618608605     1.424855906646     1.007825032230
         H           -0.182722280029    -0.381340608605    -1.362929093354     1.007825032230
         H            2.213313719971    -0.636482608605    -1.263648093354     1.007825032230
         H            2.804399719971    -1.320567608605     0.246500906646     1.007825032230
         H            0.914993719971    -0.155954608605     1.497690906646     1.007825032230
         H           -1.498231280029     2.140671391395     0.207454906646     1.007825032230
         H           -2.222655280029     1.329477391395    -1.200863093354     1.007825032230
         H           -3.128673280029     1.453881391395     0.321387906646     1.007825032230
         H            3.308296719971     0.994909391395     1.105125906646     1.007825032230
         H            2.741824719971     1.671451391395    -0.427163093354     1.007825032230
         H            4.188587719971     0.648303391395    -0.389487093354     1.007825032230
         H           -3.262947280029    -0.942010608605     0.222144906646     1.007825032230

  Basis Set: AUG-CC-PVTZ
    Blend: AUG-CC-PVTZ
  Basis Set: (AUG-CC-PVTZ AUX)
    Blend: AUG-CC-PVTZ-JKFIT
	 Reference Energy          =    -309.0837386873848232 [Eh]
	 Singles Energy            =      -0.0000000000000000 [Eh]
	 Same-Spin Energy          =      -0.3218016406962080 [Eh]
	 Opposite-Spin Energy      =      -1.1106235107326157 [Eh]
	 Correlation Energy        =      -1.4324251514288235 [Eh]
	 Total Energy              =    -310.5161638388136680 [Eh]

	 ================> DF-SCS-MP2 Energies <==================
	-----------------------------------------------------------
	 SCS Same-Spin Scale       =       0.3333333333333333 [-]
	 SCS Opposite-Spin Scale   =       1.2000000000000000 [-]
	 SCS Same-Spin Energy      =      -0.1072672135654027 [Eh]
	 SCS Opposite-Spin Energy  =      -1.3327482128791388 [Eh]
	 SCS Correlation Energy    =      -1.4400154264445415 [Eh]
	 SCS Total Energy          =    -310.5237541138293409 [Eh]
	-----------------------------------------------------------

  Dipole Moment: [D]
     X:     0.1675      Y:     1.3709      Z:     0.7510     Total:     1.5720

*** Psi4 exiting successfully. Buy a developer a beer!
