                               Psi4 1.3.2 release

  ==> Input File <==

--------------------------------------------------------------------------
#psi4
#
memory 32 gb

molecule  {
0 1
  O       -2.3409430    -1.1152500    -0.1201430
  C       -1.5156830    -0.0261920     0.3177710
  C       -0.1702520    -0.2529640    -0.2898400
  C        2.3348890    -0.4444240    -0.1997250
  C        0.9676131    -0.3050206     0.3951051
  C       -2.1103090     1.3065560    -0.1212920
  C        3.2331388     0.7751711     0.0140943
  H       -1.4208040    -0.0402330     1.4151950
  H       -0.1609320    -0.3839550    -1.3725900
  H        2.2351040    -0.6390970    -1.2733090
  H        2.8261900    -1.3231820     0.2368400
  H        0.9367840    -0.1585690     1.4880300
  H       -1.4764410     2.1380570     0.1977940
  H       -2.2008650     1.3268630    -1.2105240
  H       -3.1068830     1.4512670     0.3117270
  H        3.3300870     0.9922950     1.0954650
  H        2.7636150     1.6688370    -0.4368240
  H        4.2103780     0.6456890    -0.3991480
  H       -3.2411570    -0.9446250     0.2124840
units angstrom
no_reorient  #important for SAPT in psi4, default
symmetry c1  #important for SAPT in psi4, default
}

set PROPERTIES_ORIGIN ["COM"]
properties('MP2/aug-cc-pvtz', properties = ['dipole'])
--------------------------------------------------------------------------

    Molecular point group: c1
  Charge       = 0
  Multiplicity = 1
  Basis Set: AUG-CC-PVTZ
    Blend: AUG-CC-PVTZ
  Basis Set: (AUG-CC-PVTZ AUX)
    Blend: AUG-CC-PVTZ-JKFIT

    Orbital Energies [Eh]
    ---------------------

    Doubly Occupied:

       1A    -20.555454     2A    -11.283178     3A    -11.227723
       4A    -11.224446     5A    -11.220016     6A    -11.219637
       7A    -11.215915     8A     -1.354255     9A     -1.090824
      10A     -1.033590    11A     -0.972780    12A     -0.876618
      13A     -0.811138    14A     -0.753425    15A     -0.681095
      16A     -0.633295    17A     -0.625243    18A     -0.599262
      19A     -0.588670    20A     -0.545507    21A     -0.539160
      22A     -0.532875    23A     -0.515480    24A     -0.501888
      25A     -0.477730    26A     -0.463062    27A     -0.443801
      28A     -0.352558

  @DF-RHF Final Energy:  -309.14859998649536

   => Energetics <=

    Nuclear Repulsion Energy =            299.1546441453266425
    One-Electron Energy =               -1011.9292350521144499
    Two-Electron Energy =                 403.6259909202924518
    Total Energy =                       -309.1485999864953556
  Basis Set: (AUG-CC-PVTZ AUX)
    Blend: AUG-CC-PVTZ-RI
    Molecular point group: c1

    Geometry (in Angstrom), charge = 0, multiplicity = 1:

       Center              X                  Y                   Z               Mass
    ------------   -----------------  -----------------  -----------------  -----------------
         O           -2.342555512914    -1.110949570061    -0.117534301934    15.994914619570
         C           -1.517295512914    -0.021891570061     0.320379698066    12.000000000000
         C           -0.171864512914    -0.248663570061    -0.287231301934    12.000000000000
         C            2.333276487086    -0.440123570061    -0.197116301934    12.000000000000
         C            0.966000587086    -0.300720170061     0.397713798066    12.000000000000
         C           -2.111921512914     1.310856429939    -0.118683301934    12.000000000000
         C            3.231526287086     0.779471529939     0.016702998066    12.000000000000
         H           -1.422416512914    -0.035932570061     1.417803698066     1.007825032230
         H           -0.162544512914    -0.379654570061    -1.369981301934     1.007825032230
         H            2.233491487086    -0.634796570061    -1.270700301934     1.007825032230
         H            2.824577487086    -1.318881570061     0.239448698066     1.007825032230
         H            0.935171487086    -0.154268570061     1.490638698066     1.007825032230
         H           -1.478053512914     2.142357429939     0.200402698066     1.007825032230
         H           -2.202477512914     1.331163429939    -1.207915301934     1.007825032230
         H           -3.108495512914     1.455567429939     0.314335698066     1.007825032230
         H            3.328474487086     0.996595429939     1.098073698066     1.007825032230
         H            2.762002487086     1.673137429939    -0.434215301934     1.007825032230
         H            4.208765487086     0.649989429939    -0.396539301934     1.007825032230
         H           -3.242769512914    -0.940324570061     0.215092698066     1.007825032230

  Basis Set: AUG-CC-PVTZ
    Blend: AUG-CC-PVTZ
  Basis Set: (AUG-CC-PVTZ AUX)
    Blend: AUG-CC-PVTZ-JKFIT
	 Reference Energy          =    -309.1485999864953556 [Eh]
	 Singles Energy            =      -0.0000000000000000 [Eh]
	 Same-Spin Energy          =      -0.3164483672269883 [Eh]
	 Opposite-Spin Energy      =      -1.1021889028330387 [Eh]
	 Correlation Energy        =      -1.4186372700600272 [Eh]
	 Total Energy              =    -310.5672372565553587 [Eh]

	 ================> DF-SCS-MP2 Energies <==================
	-----------------------------------------------------------
	 SCS Same-Spin Scale       =       0.3333333333333333 [-]
	 SCS Opposite-Spin Scale   =       1.2000000000000000 [-]
	 SCS Same-Spin Energy      =      -0.1054827890756628 [Eh]
	 SCS Opposite-Spin Energy  =      -1.3226266833996465 [Eh]
	 SCS Correlation Energy    =      -1.4281094724753092 [Eh]
	 SCS Total Energy          =    -310.5767094589706403 [Eh]
	-----------------------------------------------------------

  Dipole Moment: [D]
     X:    -0.0978      Y:     1.4031      Z:     0.7986     Total:     1.6174

*** Psi4 exiting successfully. Buy a developer a beer!
