                               Psi4 1.3.2 release

  ==> Input File <==

--------------------------------------------------------------------------
#psi4
#
memory 32 gb

molecule  {
0 1
  O       -2.3409430    -1.1152500    -0.1201430
  C       -1.5156830    -0.0261920     0.3177710
  C       -0.1702520    -0.2529640    -0.2898400
  C        2.3348890    -0.4444240    -0.1997250
  C        0.9702109    -0.2599843     0.3887776
  C       -2.1103090     1.3065560    -0.1212920
  C        3.2132980     0.7871720     0.0273270
  H       -1.4208040    -0.0402330     1.4151950
  H       -0.1609320    -0.3839550    -1.3725900
  H        2.2351040    -0.6390970    -1.2733090
  H        2.8415411    -1.3198311     0.2258892
  H        0.9367840    -0.1585690     1.4880300
  H       -1.4764410     2.1380570     0.1977940
  H       -2.2008650     1.3268630    -1.2105240
  H       -3.1068830     1.4512670     0.3117270
  H        3.3300870     0.9922950     1.0954650
  H        2.7636150     1.6688370    -0.4368240
  H        4.2103780     0.6456890    -0.3991480
  H       -3.2411570    -0.9446250     0.2124840
units angstrom
no_reorient  #important for SAPT in psi4, default
symmetry c1  #important for SAPT in psi4, default
}

set PROPERTIES_ORIGIN ["COM"]
properties('MP2/aug-cc-pvtz', properties = ['dipole'])
--------------------------------------------------------------------------

    Molecular point group: c1
  Charge       = 0
  Multiplicity = 1
  Basis Set: AUG-CC-PVTZ
    Blend: AUG-CC-PVTZ
  Basis Set: (AUG-CC-PVTZ AUX)
    Blend: AUG-CC-PVTZ-JKFIT

    Orbital Energies [Eh]
    ---------------------

    Doubly Occupied:

       1A    -20.555572     2A    -11.283135     3A    -11.227240
       4A    -11.224468     5A    -11.219621     6A    -11.219433
       7A    -11.214808     8A     -1.354342     9A     -1.091410
      10A     -1.033810    11A     -0.972372    12A     -0.875244
      13A     -0.811379    14A     -0.753559    15A     -0.681357
      16A     -0.634427    17A     -0.624817    18A     -0.599482
      19A     -0.588847    20A     -0.543191    21A     -0.539123
      22A     -0.530651    23A     -0.515947    24A     -0.502480
      25A     -0.480497    26A     -0.462160    27A     -0.444086
      28A     -0.352602

  @DF-RHF Final Energy:  -309.14929078995351

   => Energetics <=

    Nuclear Repulsion Energy =            299.3795888863358527
    One-Electron Energy =               -1012.3856465158702349
    Two-Electron Energy =                 403.8567668395808141
    Total Energy =                       -309.1492907899535112
  Basis Set: (AUG-CC-PVTZ AUX)
    Blend: AUG-CC-PVTZ-RI
    Molecular point group: c1

    Geometry (in Angstrom), charge = 0, multiplicity = 1:

       Center              X                  Y                   Z               Mass
    ------------   -----------------  -----------------  -----------------  -----------------
         O           -2.340642763951    -1.117821701785    -0.118251923675    15.994914619570
         C           -1.515382763951    -0.028763701785     0.319662076325    12.000000000000
         C           -0.169951763951    -0.255535701785    -0.287948923675    12.000000000000
         C            2.335189236049    -0.446995701785    -0.197833923675    12.000000000000
         C            0.970511136049    -0.262556001785     0.390668676325    12.000000000000
         C           -2.110008763951     1.303984298215    -0.119400923675    12.000000000000
         C            3.213598236049     0.784600298215     0.029218076325    12.000000000000
         H           -1.420503763951    -0.042804701785     1.417086076325     1.007825032230
         H           -0.160631763951    -0.386526701785    -1.370698923675     1.007825032230
         H            2.235404236049    -0.641668701785    -1.271417923675     1.007825032230
         H            2.841841336049    -1.322402801785     0.227780276325     1.007825032230
         H            0.937084236049    -0.161140701785     1.489921076325     1.007825032230
         H           -1.476140763951     2.135485298215     0.199685076325     1.007825032230
         H           -2.200564763951     1.324291298215    -1.208632923675     1.007825032230
         H           -3.106582763951     1.448695298215     0.313618076325     1.007825032230
         H            3.330387236049     0.989723298215     1.097356076325     1.007825032230
         H            2.763915236049     1.666265298215    -0.434932923675     1.007825032230
         H            4.210678236049     0.643117298215    -0.397256923675     1.007825032230
         H           -3.240856763951    -0.947196701785     0.214375076325     1.007825032230

  Basis Set: AUG-CC-PVTZ
    Blend: AUG-CC-PVTZ
  Basis Set: (AUG-CC-PVTZ AUX)
    Blend: AUG-CC-PVTZ-JKFIT
	 Reference Energy          =    -309.1492907899535112 [Eh]
	 Singles Energy            =      -0.0000000000000000 [Eh]
	 Same-Spin Energy          =      -0.3164650348306834 [Eh]
	 Opposite-Spin Energy      =      -1.1021801435310181 [Eh]
	 Correlation Energy        =      -1.4186451783617016 [Eh]
	 Total Energy              =    -310.5679359683152256 [Eh]

	 ================> DF-SCS-MP2 Energies <==================
	-----------------------------------------------------------
	 SCS Same-Spin Scale       =       0.3333333333333333 [-]
	 SCS Opposite-Spin Scale   =       1.2000000000000000 [-]
	 SCS Same-Spin Energy      =      -0.1054883449435611 [Eh]
	 SCS Opposite-Spin Energy  =      -1.3226161722372216 [Eh]
	 SCS Correlation Energy    =      -1.4281045171807827 [Eh]
	 SCS Total Energy          =    -310.5773953071342817 [Eh]
	-----------------------------------------------------------

  Dipole Moment: [D]
     X:    -0.1092      Y:     1.3546      Z:     0.8058     Total:     1.5800

*** Psi4 exiting successfully. Buy a developer a beer!
