                               Psi4 1.3.2 release

  ==> Input File <==

--------------------------------------------------------------------------
#psi4
#
memory 32 gb

molecule  {
0 1
  O       -2.3409430    -1.1152500    -0.1201430
  C       -1.5156830    -0.0261920     0.3177710
  C       -0.1702520    -0.2529640    -0.2898400
  C        2.3348890    -0.4444240    -0.1997250
  C        0.9740050    -0.2811540     0.4036300
  C       -2.1103090     1.3065560    -0.1212920
  C        3.2132980     0.7871720     0.0273270
  H       -1.4208040    -0.0402330     1.4151950
  H       -0.1609320    -0.3839550    -1.3725900
  H        2.2351040    -0.6390970    -1.2733090
  H        2.8261900    -1.3231820     0.2368400
  H        0.9401927    -0.1697953     1.3887206
  H       -1.4764410     2.1380570     0.1977940
  H       -2.2008650     1.3268630    -1.2105240
  H       -3.1068830     1.4512670     0.3117270
  H        3.3300870     0.9922950     1.0954650
  H        2.7636150     1.6688370    -0.4368240
  H        4.2103780     0.6456890    -0.3991480
  H       -3.2411570    -0.9446250     0.2124840
units angstrom
no_reorient  #important for SAPT in psi4, default
symmetry c1  #important for SAPT in psi4, default
}

set PROPERTIES_ORIGIN ["COM"]
properties('MP2/aug-cc-pvtz', properties = ['dipole'])
--------------------------------------------------------------------------

    Molecular point group: c1
  Charge       = 0
  Multiplicity = 1
  Basis Set: AUG-CC-PVTZ
    Blend: AUG-CC-PVTZ
  Basis Set: (AUG-CC-PVTZ AUX)
    Blend: AUG-CC-PVTZ-JKFIT

    Orbital Energies [Eh]
    ---------------------

    Doubly Occupied:

       1A    -20.555338     2A    -11.282860     3A    -11.223254
       4A    -11.220307     5A    -11.219365     6A    -11.215080
       7A    -11.214949     8A     -1.354091     9A     -1.092512
      10A     -1.033391    11A     -0.972434    12A     -0.876994
      13A     -0.811409    14A     -0.766906    15A     -0.685759
      16A     -0.634934    17A     -0.624744    18A     -0.597866
      19A     -0.590753    20A     -0.544145    21A     -0.542966
      22A     -0.533118    23A     -0.516106    24A     -0.501780
      25A     -0.483849    26A     -0.463322    27A     -0.443774
      28A     -0.349137

  @DF-RHF Final Energy:  -309.14359601215301

   => Energetics <=

    Nuclear Repulsion Energy =            299.7000098994035397
    One-Electron Energy =               -1012.9849273992261942
    Two-Electron Energy =                 404.1413214876696429
    Total Energy =                       -309.1435960121530115
  Basis Set: (AUG-CC-PVTZ AUX)
    Blend: AUG-CC-PVTZ-RI
    Molecular point group: c1

    Geometry (in Angstrom), charge = 0, multiplicity = 1:

       Center              X                  Y                   Z               Mass
    ------------   -----------------  -----------------  -----------------  -----------------
         O           -2.340977400247    -1.115136809702    -0.119142920247    15.994914619570
         C           -1.515717400247    -0.026078809702     0.318771079753    12.000000000000
         C           -0.170286400247    -0.252850809702    -0.288839920247    12.000000000000
         C            2.334854599753    -0.444310809702    -0.198724920247    12.000000000000
         C            0.973970599753    -0.281040809702     0.404630079753    12.000000000000
         C           -2.110343400247     1.306669190298    -0.120291920247    12.000000000000
         C            3.213263599753     0.787285190298     0.028327079753    12.000000000000
         H           -1.420838400247    -0.040119809702     1.416195079753     1.007825032230
         H           -0.160966400247    -0.383841809702    -1.371589920247     1.007825032230
         H            2.235069599753    -0.638983809702    -1.272308920247     1.007825032230
         H            2.826155599753    -1.323068809702     0.237840079753     1.007825032230
         H            0.940158299753    -0.169682109702     1.389720679753     1.007825032230
         H           -1.476475400247     2.138170190298     0.198794079753     1.007825032230
         H           -2.200899400247     1.326976190298    -1.209523920247     1.007825032230
         H           -3.106917400247     1.451380190298     0.312727079753     1.007825032230
         H            3.330052599753     0.992408190298     1.096465079753     1.007825032230
         H            2.763580599753     1.668950190298    -0.435823920247     1.007825032230
         H            4.210343599753     0.645802190298    -0.398147920247     1.007825032230
         H           -3.241191400247    -0.944511809702     0.213484079753     1.007825032230

  Basis Set: AUG-CC-PVTZ
    Blend: AUG-CC-PVTZ
  Basis Set: (AUG-CC-PVTZ AUX)
    Blend: AUG-CC-PVTZ-JKFIT
	 Reference Energy          =    -309.1435960121530115 [Eh]
	 Singles Energy            =      -0.0000000000000000 [Eh]
	 Same-Spin Energy          =      -0.3163851268954841 [Eh]
	 Opposite-Spin Energy      =      -1.1018780648340476 [Eh]
	 Correlation Energy        =      -1.4182631917295316 [Eh]
	 Total Energy              =    -310.5618592038825341 [Eh]

	 ================> DF-SCS-MP2 Energies <==================
	-----------------------------------------------------------
	 SCS Same-Spin Scale       =       0.3333333333333333 [-]
	 SCS Opposite-Spin Scale   =       1.2000000000000000 [-]
	 SCS Same-Spin Energy      =      -0.1054617089651614 [Eh]
	 SCS Opposite-Spin Energy  =      -1.3222536778008571 [Eh]
	 SCS Correlation Energy    =      -1.4277153867660184 [Eh]
	 SCS Total Energy          =    -310.5713113989190219 [Eh]
	-----------------------------------------------------------

  Dipole Moment: [D]
     X:    -0.1091      Y:     1.3841      Z:     0.8584     Total:     1.6323

*** Psi4 exiting successfully. Buy a developer a beer!
