                               Psi4 1.4a3.dev225

  ==> Input File <==

--------------------------------------------------------------------------
#psi4
#
memory 32 gb

molecule  {
0 1
  O       -2.4334040    -1.0537050    -0.1031880
  C       -1.5599110     0.0061750     0.3163080
  C       -0.2252920    -0.2882920    -0.2906650
  C        2.2718840    -0.5904540    -0.1973150
  C        0.9184280    -0.3582560     0.4039980
  C       -2.0985830     1.3582810    -0.1413790
  C        3.2072160     0.6032460     0.0168350
  H       -1.4644910     0.0051647     1.3939270
  H       -0.2231950    -0.4335060    -1.3719210
  H        2.1635620    -0.7923810    -1.2691220
  H        2.7222980    -1.4861610     0.2495370
  H        0.8868390    -0.2195170     1.4869310
  H       -1.4287050     2.1666040     0.1650490
  H       -2.1908800     1.3667930    -1.2308750
  H       -3.0873820     1.5512680     0.2912850
  H        3.3343300     0.8133780     1.0831920
  H        2.7976640     1.4999730    -0.4563300
  H        4.1964720     0.4112550    -0.4090930
  H       -3.3235000    -0.8374140     0.2263080
units angstrom
no_reorient  #important for SAPT in psi4, default
symmetry c1  #important for SAPT in psi4, default
}

set PROPERTIES_ORIGIN ["COM"]
properties('MP2/aug-cc-pvtz', properties = ['dipole'])
--------------------------------------------------------------------------

    Molecular point group: c1
  Charge       = 0
  Multiplicity = 1
  Basis Set: AUG-CC-PVTZ
    Blend: AUG-CC-PVTZ
  Basis Set: (AUG-CC-PVTZ AUX)
    Blend: AUG-CC-PVTZ-JKFIT

    Orbital Energies [Eh]
    ---------------------

    Doubly Occupied:

       1A    -20.554866     2A    -11.280829     3A    -11.228223
       4A    -11.224932     5A    -11.221355     6A    -11.219490
       7A    -11.215584     8A     -1.353704     9A     -1.089438
      10A     -1.033429    11A     -0.970783    12A     -0.875989
      13A     -0.811205    14A     -0.756245    15A     -0.682476
      16A     -0.632930    17A     -0.624466    18A     -0.597926
      19A     -0.589333    20A     -0.542944    21A     -0.539722
      22A     -0.531054    23A     -0.516237    24A     -0.502363
      25A     -0.482085    26A     -0.462671    27A     -0.444676
      28A     -0.349578

  @DF-RHF Final Energy:  -309.14952737148781

   => Energetics <=

    Nuclear Repulsion Energy =            299.0211528515549730
    One-Electron Energy =               -1011.6722950781664849
    Two-Electron Energy =                 403.5016148551236483
    Total Energy =                       -309.1495273714878067
  Basis Set: (AUG-CC-PVTZ AUX)
    Blend: AUG-CC-PVTZ-RI
    Molecular point group: c1

    Geometry (in Angstrom), charge = 0, multiplicity = 1:

       Center              X                  Y                   Z               Mass
    ------------   -----------------  -----------------  -----------------  -----------------
         O           -2.390043750361    -1.013656479295    -0.101220068358    15.994914619570
         C           -1.516550750361     0.046223520705     0.318275931642    12.000000000000
         C           -0.181931750361    -0.248243479295    -0.288697068358    12.000000000000
         C            2.315244249639    -0.550405479295    -0.195347068358    12.000000000000
         C            0.961788249639    -0.318207479295     0.405965931642    12.000000000000
         C           -2.055222750361     1.398329520705    -0.139411068358    12.000000000000
         C            3.250576249639     0.643294520705     0.018802931642    12.000000000000
         H           -1.421130750361     0.045213220705     1.395894931642     1.007825032230
         H           -0.179834750361    -0.393457479295    -1.369953068358     1.007825032230
         H            2.206922249639    -0.752332479295    -1.267154068358     1.007825032230
         H            2.765658249639    -1.446112479295     0.251504931642     1.007825032230
         H            0.930199249639    -0.179468479295     1.488898931642     1.007825032230
         H           -1.385344750361     2.206652520705     0.167016931642     1.007825032230
         H           -2.147519750361     1.406841520705    -1.228907068358     1.007825032230
         H           -3.044021750361     1.591316520705     0.293252931642     1.007825032230
         H            3.377690249639     0.853426520705     1.085159931642     1.007825032230
         H            2.841024249639     1.540021520705    -0.454362068358     1.007825032230
         H            4.239832249639     0.451303520705    -0.407125068358     1.007825032230
         H           -3.280139750361    -0.797365479295     0.228275931642     1.007825032230

  Basis Set: AUG-CC-PVTZ
    Blend: AUG-CC-PVTZ
  Basis Set: (AUG-CC-PVTZ AUX)
    Blend: AUG-CC-PVTZ-JKFIT
	 Reference Energy          =    -309.1495273714878067 [Eh]
	 Singles Energy            =      -0.0000000000000000 [Eh]
	 Same-Spin Energy          =      -0.3164272028734098 [Eh]
	 Opposite-Spin Energy      =      -1.1022284621297165 [Eh]
	 Correlation Energy        =      -1.4186556650031261 [Eh]
	 Total Energy              =    -310.5681830364909501 [Eh]

	 ================> DF-SCS-MP2 Energies <==================
	-----------------------------------------------------------
	 SCS Same-Spin Scale       =       0.3333333333333333 [-]
	 SCS Opposite-Spin Scale   =       1.2000000000000000 [-]
	 SCS Same-Spin Energy      =      -0.1054757342911366 [Eh]
	 SCS Opposite-Spin Energy  =      -1.3226741545556597 [Eh]
	 SCS Correlation Energy    =      -1.4281498888467963 [Eh]
	 SCS Total Energy          =    -310.5776772603346103 [Eh]
	-----------------------------------------------------------

  Dipole Moment: [D]
     X:    -0.0257      Y:     1.4019      Z:     0.8068     Total:     1.6177

*** Psi4 exiting successfully. Buy a developer a beer!
