                               Psi4 1.4a3.dev225

  ==> Input File <==

--------------------------------------------------------------------------
#psi4
#
memory 32 gb

molecule  {
0 1
  O       -2.4334040    -1.0537050    -0.1031880
  C       -1.5599110     0.0061750     0.3163080
  C       -0.2252920    -0.2882920    -0.2906650
  C        2.2718840    -0.5904540    -0.1973150
  C        0.9013573    -0.3572117     0.3936297
  C       -2.0985830     1.3582810    -0.1413790
  C        3.2072160     0.6032460     0.0168350
  H       -1.4627270     0.0051460     1.4138490
  H       -0.2231950    -0.4335060    -1.3719210
  H        2.1635620    -0.7923810    -1.2691220
  H        2.7222980    -1.4861610     0.2495370
  H        0.8868390    -0.2195170     1.4869310
  H       -1.4287050     2.1666040     0.1650490
  H       -2.1908800     1.3667930    -1.2308750
  H       -3.0873820     1.5512680     0.2912850
  H        3.3343300     0.8133780     1.0831920
  H        2.7976640     1.4999730    -0.4563300
  H        4.1964720     0.4112550    -0.4090930
  H       -3.3235000    -0.8374140     0.2263080
units angstrom
no_reorient  #important for SAPT in psi4, default
symmetry c1  #important for SAPT in psi4, default
}

set PROPERTIES_ORIGIN ["COM"]
properties('MP2/aug-cc-pvtz', properties = ['dipole'])
--------------------------------------------------------------------------

    Molecular point group: c1
  Charge       = 0
  Multiplicity = 1
  Basis Set: AUG-CC-PVTZ
    Blend: AUG-CC-PVTZ
  Basis Set: (AUG-CC-PVTZ AUX)
    Blend: AUG-CC-PVTZ-JKFIT

    Orbital Energies [Eh]
    ---------------------

    Doubly Occupied:

       1A    -20.555254     2A    -11.283236     3A    -11.226686
       4A    -11.225323     5A    -11.219736     6A    -11.218673
       7A    -11.215596     8A     -1.353927     9A     -1.090661
      10A     -1.032454    11A     -0.973021    12A     -0.874575
      13A     -0.811429    14A     -0.753377    15A     -0.680906
      16A     -0.633122    17A     -0.624642    18A     -0.598241
      19A     -0.588563    20A     -0.543010    21A     -0.539510
      22A     -0.531943    23A     -0.515986    24A     -0.501842
      25A     -0.481534    26A     -0.459347    27A     -0.443792
      28A     -0.354764

  @DF-RHF Final Energy:  -309.14972497520688

   => Energetics <=

    Nuclear Repulsion Energy =            299.0978612119436661
    One-Electron Energy =               -1011.8328689407583170
    Two-Electron Energy =                 403.5852827536078280
    Total Energy =                       -309.1497249752068797
  Basis Set: (AUG-CC-PVTZ AUX)
    Blend: AUG-CC-PVTZ-RI
    Molecular point group: c1

    Geometry (in Angstrom), charge = 0, multiplicity = 1:

       Center              X                  Y                   Z               Mass
    ------------   -----------------  -----------------  -----------------  -----------------
         O           -2.388014846366    -1.013781495798    -0.100177577150    15.994914619570
         C           -1.514521846366     0.046098504202     0.319318422850    12.000000000000
         C           -0.179902846366    -0.248368495798    -0.287654577150    12.000000000000
         C            2.317273153634    -0.550530495798    -0.194304577150    12.000000000000
         C            0.946746453634    -0.317288195798     0.396640122850    12.000000000000
         C           -2.053193846366     1.398204504202    -0.138368577150    12.000000000000
         C            3.252605153634     0.643169504202     0.019845422850    12.000000000000
         H           -1.417337846366     0.045069504202     1.416859422850     1.007825032230
         H           -0.177805846366    -0.393582495798    -1.368910577150     1.007825032230
         H            2.208951153634    -0.752457495798    -1.266111577150     1.007825032230
         H            2.767687153634    -1.446237495798     0.252547422850     1.007825032230
         H            0.932228153634    -0.179593495798     1.489941422850     1.007825032230
         H           -1.383315846366     2.206527504202     0.168059422850     1.007825032230
         H           -2.145490846366     1.406716504202    -1.227864577150     1.007825032230
         H           -3.041992846366     1.591191504202     0.294295422850     1.007825032230
         H            3.379719153634     0.853301504202     1.086202422850     1.007825032230
         H            2.843053153634     1.539896504202    -0.453319577150     1.007825032230
         H            4.241861153634     0.451178504202    -0.406082577150     1.007825032230
         H           -3.278110846366    -0.797490495798     0.229318422850     1.007825032230

  Basis Set: AUG-CC-PVTZ
    Blend: AUG-CC-PVTZ
  Basis Set: (AUG-CC-PVTZ AUX)
    Blend: AUG-CC-PVTZ-JKFIT
	 Reference Energy          =    -309.1497249752068797 [Eh]
	 Singles Energy            =      -0.0000000000000000 [Eh]
	 Same-Spin Energy          =      -0.3161974422865887 [Eh]
	 Opposite-Spin Energy      =      -1.1018664071266895 [Eh]
	 Correlation Energy        =      -1.4180638494132782 [Eh]
	 Total Energy              =    -310.5677888246201519 [Eh]

	 ================> DF-SCS-MP2 Energies <==================
	-----------------------------------------------------------
	 SCS Same-Spin Scale       =       0.3333333333333333 [-]
	 SCS Opposite-Spin Scale   =       1.2000000000000000 [-]
	 SCS Same-Spin Energy      =      -0.1053991474288629 [Eh]
	 SCS Opposite-Spin Energy  =      -1.3222396885520273 [Eh]
	 SCS Correlation Energy    =      -1.4276388359808903 [Eh]
	 SCS Total Energy          =    -310.5773638111877517 [Eh]
	-----------------------------------------------------------

  Dipole Moment: [D]
     X:    -0.0403      Y:     1.4016      Z:     0.7854     Total:     1.6072

*** Psi4 exiting successfully. Buy a developer a beer!
