                               Psi4 1.3.2 release

  ==> Input File <==

--------------------------------------------------------------------------
#psi4
#
memory 32 gb

molecule  {
0 1
  O       -2.3409430    -1.1152500    -0.1201430
  C       -1.5156830    -0.0261920     0.3177710
  C       -0.1329157    -0.2627971    -0.3483068
  C        2.3348890    -0.4444240    -0.1997250
  C        0.9740050    -0.2811540     0.4036300
  C       -2.1103090     1.3065560    -0.1212920
  C        3.2132980     0.7871720     0.0273270
  H       -1.4208040    -0.0402330     1.4151950
  H       -0.1609320    -0.3839550    -1.3725900
  H        2.2351040    -0.6390970    -1.2733090
  H        2.8261900    -1.3231820     0.2368400
  H        0.9937158    -0.1636516     1.4890518
  H       -1.4764410     2.1380570     0.1977940
  H       -2.2008650     1.3268630    -1.2105240
  H       -3.1068830     1.4512670     0.3117270
  H        3.3300870     0.9922950     1.0954650
  H        2.7636150     1.6688370    -0.4368240
  H        4.2103780     0.6456890    -0.3991480
  H       -3.2411570    -0.9446250     0.2124840
units angstrom
no_reorient  #important for SAPT in psi4, default
symmetry c1  #important for SAPT in psi4, default
}

set PROPERTIES_ORIGIN ["COM"]
properties('MP2/aug-cc-pvtz', properties = ['dipole'])
--------------------------------------------------------------------------

    Molecular point group: c1
  Charge       = 0
  Multiplicity = 1
  Basis Set: AUG-CC-PVTZ
    Blend: AUG-CC-PVTZ
  Basis Set: (AUG-CC-PVTZ AUX)
    Blend: AUG-CC-PVTZ-JKFIT

    Orbital Energies [Eh]
    ---------------------

    Doubly Occupied:

       1A    -20.554316     2A    -11.284757     3A    -11.228367
       4A    -11.221315     5A    -11.220239     6A    -11.218323
       7A    -11.214331     8A     -1.352285     9A     -1.088208
      10A     -1.028265    11A     -0.970597    12A     -0.871175
      13A     -0.806721    14A     -0.764245    15A     -0.681589
      16A     -0.629010    17A     -0.625600    18A     -0.595467
      19A     -0.593829    20A     -0.549228    21A     -0.541073
      22A     -0.533327    23A     -0.514507    24A     -0.500793
      25A     -0.481884    26A     -0.450374    27A     -0.442649
      28A     -0.350666

  @DF-RHF Final Energy:  -309.14386297125719

   => Energetics <=

    Nuclear Repulsion Energy =            298.6604372941881707
    One-Electron Energy =               -1010.9823164588299278
    Two-Electron Energy =                 403.1780161933846216
    Total Energy =                       -309.1438629712571924
  Basis Set: (AUG-CC-PVTZ AUX)
    Blend: AUG-CC-PVTZ-RI
    Molecular point group: c1

    Geometry (in Angstrom), charge = 0, multiplicity = 1:

       Center              X                  Y                   Z               Mass
    ------------   -----------------  -----------------  -----------------  -----------------
         O           -2.345992721089    -1.114019747567    -0.113143395674    15.994914619570
         C           -1.520732721089    -0.024961747567     0.324770604326    12.000000000000
         C           -0.137965421089    -0.261566847567    -0.341307195674    12.000000000000
         C            2.329839278911    -0.443193747567    -0.192725395674    12.000000000000
         C            0.968955278911    -0.279923747567     0.410629604326    12.000000000000
         C           -2.115358721089     1.307786252433    -0.114292395674    12.000000000000
         C            3.208248278911     0.788402252433     0.034326604326    12.000000000000
         H           -1.425853721089    -0.039002747567     1.422194604326     1.007825032230
         H           -0.165981721089    -0.382724747567    -1.365590395674     1.007825032230
         H            2.230054278911    -0.637866747567    -1.266309395674     1.007825032230
         H            2.821140278911    -1.321951747567     0.243839604326     1.007825032230
         H            0.988666078911    -0.162421347567     1.496051404326     1.007825032230
         H           -1.481490721089     2.139287252433     0.204793604326     1.007825032230
         H           -2.205914721089     1.328093252433    -1.203524395674     1.007825032230
         H           -3.111932721089     1.452497252433     0.318726604326     1.007825032230
         H            3.325037278911     0.993525252433     1.102464604326     1.007825032230
         H            2.758565278911     1.670067252433    -0.429824395674     1.007825032230
         H            4.205328278911     0.646919252433    -0.392148395674     1.007825032230
         H           -3.246206721089    -0.943394747567     0.219483604326     1.007825032230

  Basis Set: AUG-CC-PVTZ
    Blend: AUG-CC-PVTZ
  Basis Set: (AUG-CC-PVTZ AUX)
    Blend: AUG-CC-PVTZ-JKFIT
	 Reference Energy          =    -309.1438629712571924 [Eh]
	 Singles Energy            =      -0.0000000000000000 [Eh]
	 Same-Spin Energy          =      -0.3160968788576917 [Eh]
	 Opposite-Spin Energy      =      -1.1022127635468055 [Eh]
	 Correlation Energy        =      -1.4183096424044972 [Eh]
	 Total Energy              =    -310.5621726136616871 [Eh]

	 ================> DF-SCS-MP2 Energies <==================
	-----------------------------------------------------------
	 SCS Same-Spin Scale       =       0.3333333333333333 [-]
	 SCS Opposite-Spin Scale   =       1.2000000000000000 [-]
	 SCS Same-Spin Energy      =      -0.1053656262858972 [Eh]
	 SCS Opposite-Spin Energy  =      -1.3226553162561665 [Eh]
	 SCS Correlation Energy    =      -1.4280209425420638 [Eh]
	 SCS Total Energy          =    -310.5718839137992404 [Eh]
	-----------------------------------------------------------

  Dipole Moment: [D]
     X:    -0.1017      Y:     1.3618      Z:     0.8115     Total:     1.5886

*** Psi4 exiting successfully. Buy a developer a beer!
