                               Psi4 1.3.2 release

  ==> Input File <==

--------------------------------------------------------------------------
#psi4
#
memory 32 gb

molecule  {
0 1
  O       -2.3378394    -1.1077833    -0.1438447
  C       -1.5156830    -0.0261920     0.3177710
  C       -0.1702520    -0.2529640    -0.2898400
  C        2.3348890    -0.4444240    -0.1997250
  C        0.9740050    -0.2811540     0.4036300
  C       -2.1103090     1.3065560    -0.1212920
  C        3.2132980     0.7871720     0.0273270
  H       -1.4096491    -0.0246012     1.4142622
  H       -0.1609320    -0.3839550    -1.3725900
  H        2.2351040    -0.6390970    -1.2733090
  H        2.8261900    -1.3231820     0.2368400
  H        0.9367840    -0.1585690     1.4880300
  H       -1.4764410     2.1380570     0.1977940
  H       -2.2008650     1.3268630    -1.2105240
  H       -3.1068830     1.4512670     0.3117270
  H        3.3300870     0.9922950     1.0954650
  H        2.7636150     1.6688370    -0.4368240
  H        4.2103780     0.6456890    -0.3991480
  H       -3.2411570    -0.9446250     0.2124840
units angstrom
no_reorient  #important for SAPT in psi4, default
symmetry c1  #important for SAPT in psi4, default
}

set PROPERTIES_ORIGIN ["COM"]
properties('MP2/aug-cc-pvtz', properties = ['dipole'])
--------------------------------------------------------------------------

    Molecular point group: c1
  Charge       = 0
  Multiplicity = 1
  Basis Set: AUG-CC-PVTZ
    Blend: AUG-CC-PVTZ
  Basis Set: (AUG-CC-PVTZ AUX)
    Blend: AUG-CC-PVTZ-JKFIT

    Orbital Energies [Eh]
    ---------------------

    Doubly Occupied:

       1A    -20.557349     2A    -11.282869     3A    -11.227391
       4A    -11.224321     5A    -11.220593     6A    -11.218719
       7A    -11.215137     8A     -1.353022     9A     -1.089798
      10A     -1.033256    11A     -0.970946    12A     -0.875478
      13A     -0.809574    14A     -0.755150    15A     -0.681687
      16A     -0.632951    17A     -0.622905    18A     -0.598175
      19A     -0.589023    20A     -0.543091    21A     -0.539435
      22A     -0.531046    23A     -0.516558    24A     -0.502214
      25A     -0.481819    26A     -0.462389    27A     -0.444093
      28A     -0.349527

  @DF-RHF Final Energy:  -309.14824610826957

   => Energetics <=

    Nuclear Repulsion Energy =            299.2667881729436772
    One-Electron Energy =               -1012.1730344150716974
    Two-Electron Energy =                 403.7580001338583884
    Total Energy =                       -309.1482461082695750
  Basis Set: (AUG-CC-PVTZ AUX)
    Blend: AUG-CC-PVTZ-RI
    Molecular point group: c1

    Geometry (in Angstrom), charge = 0, multiplicity = 1:

       Center              X                  Y                   Z               Mass
    ------------   -----------------  -----------------  -----------------  -----------------
         O           -2.338447776782    -1.109133784684    -0.140047501831    15.994914619570
         C           -1.516291376782    -0.027542484684     0.321568198169    12.000000000000
         C           -0.170860376782    -0.254314484684    -0.286042801831    12.000000000000
         C            2.334280623218    -0.445774484684    -0.195927801831    12.000000000000
         C            0.973396623218    -0.282504484684     0.407427198169    12.000000000000
         C           -2.110917376782     1.305205515316    -0.117494801831    12.000000000000
         C            3.212689623218     0.785821515316     0.031124198169    12.000000000000
         H           -1.410257476782    -0.025951684684     1.418059398169     1.007825032230
         H           -0.161540376782    -0.385305484684    -1.368792801831     1.007825032230
         H            2.234495623218    -0.640447484684    -1.269511801831     1.007825032230
         H            2.825581623218    -1.324532484684     0.240637198169     1.007825032230
         H            0.936175623218    -0.159919484684     1.491827198169     1.007825032230
         H           -1.477049376782     2.136706515316     0.201591198169     1.007825032230
         H           -2.201473376782     1.325512515316    -1.206726801831     1.007825032230
         H           -3.107491376782     1.449916515316     0.315524198169     1.007825032230
         H            3.329478623218     0.990944515316     1.099262198169     1.007825032230
         H            2.763006623218     1.667486515316    -0.433026801831     1.007825032230
         H            4.209769623218     0.644338515316    -0.395350801831     1.007825032230
         H           -3.241765376782    -0.945975484684     0.216281198169     1.007825032230

  Basis Set: AUG-CC-PVTZ
    Blend: AUG-CC-PVTZ
  Basis Set: (AUG-CC-PVTZ AUX)
    Blend: AUG-CC-PVTZ-JKFIT
	 Reference Energy          =    -309.1482461082695750 [Eh]
	 Singles Energy            =      -0.0000000000000000 [Eh]
	 Same-Spin Energy          =      -0.3167419686431525 [Eh]
	 Opposite-Spin Energy      =      -1.1028295970258692 [Eh]
	 Correlation Energy        =      -1.4195715656690218 [Eh]
	 Total Energy              =    -310.5678176739385776 [Eh]

	 ================> DF-SCS-MP2 Energies <==================
	-----------------------------------------------------------
	 SCS Same-Spin Scale       =       0.3333333333333333 [-]
	 SCS Opposite-Spin Scale   =       1.2000000000000000 [-]
	 SCS Same-Spin Energy      =      -0.1055806562143842 [Eh]
	 SCS Opposite-Spin Energy  =      -1.3233955164310431 [Eh]
	 SCS Correlation Energy    =      -1.4289761726454273 [Eh]
	 SCS Total Energy          =    -310.5772222809150094 [Eh]
	-----------------------------------------------------------

  Dipole Moment: [D]
     X:    -0.1056      Y:     1.3464      Z:     0.8586     Total:     1.6003

*** Psi4 exiting successfully. Buy a developer a beer!
