                               Psi4 1.3.2 release

  ==> Input File <==

--------------------------------------------------------------------------
#psi4
#
memory 32 gb

molecule  {
0 1
  O       -2.3087602    -1.1470959    -0.0987300
  C       -1.5156830    -0.0261920     0.3177710
  C       -0.1702520    -0.2529640    -0.2898400
  C        2.3348890    -0.4444240    -0.1997250
  C        0.9740050    -0.2811540     0.4036300
  C       -2.0694835     1.3314041    -0.0979350
  C        3.2132980     0.7871720     0.0273270
  H       -1.4208040    -0.0402330     1.4151950
  H       -0.1609320    -0.3839550    -1.3725900
  H        2.2351040    -0.6390970    -1.2733090
  H        2.8261900    -1.3231820     0.2368400
  H        0.9367840    -0.1585690     1.4880300
  H       -1.4764410     2.1380570     0.1977940
  H       -2.2008650     1.3268630    -1.2105240
  H       -3.1068830     1.4512670     0.3117270
  H        3.3300870     0.9922950     1.0954650
  H        2.7636150     1.6688370    -0.4368240
  H        4.2103780     0.6456890    -0.3991480
  H       -3.2411570    -0.9446250     0.2124840
units angstrom
no_reorient  #important for SAPT in psi4, default
symmetry c1  #important for SAPT in psi4, default
}

set PROPERTIES_ORIGIN ["COM"]
properties('MP2/aug-cc-pvtz', properties = ['dipole'])
--------------------------------------------------------------------------

    Molecular point group: c1
  Charge       = 0
  Multiplicity = 1
  Basis Set: AUG-CC-PVTZ
    Blend: AUG-CC-PVTZ
  Basis Set: (AUG-CC-PVTZ AUX)
    Blend: AUG-CC-PVTZ-JKFIT

    Orbital Energies [Eh]
    ---------------------

    Doubly Occupied:

       1A    -20.561347     2A    -11.282735     3A    -11.226214
       4A    -11.223664     5A    -11.222097     6A    -11.219794
       7A    -11.214741     8A     -1.350528     9A     -1.089223
      10A     -1.033828    11A     -0.971292    12A     -0.874862
      13A     -0.808887    14A     -0.754474    15A     -0.676206
      16A     -0.634938    17A     -0.627369    18A     -0.599234
      19A     -0.588814    20A     -0.541871    21A     -0.533174
      22A     -0.531513    23A     -0.518889    24A     -0.505395
      25A     -0.481307    26A     -0.460402    27A     -0.443507
      28A     -0.348486

  @DF-RHF Final Energy:  -309.14236516172127

   => Energetics <=

    Nuclear Repulsion Energy =            299.1716740946025084
    One-Electron Energy =               -1011.9785013692307984
    Two-Electron Energy =                 403.6644621129070174
    Total Energy =                       -309.1423651617212727
  Basis Set: (AUG-CC-PVTZ AUX)
    Blend: AUG-CC-PVTZ-RI
    Molecular point group: c1

    Geometry (in Angstrom), charge = 0, multiplicity = 1:

       Center              X                  Y                   Z               Mass
    ------------   -----------------  -----------------  -----------------  -----------------
         O           -2.318798033347    -1.144985672318    -0.104952201838    15.994914619570
         C           -1.525720833347    -0.024081772318     0.311548798162    12.000000000000
         C           -0.180289833347    -0.250853772318    -0.296062201838    12.000000000000
         C            2.324851166653    -0.442313772318    -0.205947201838    12.000000000000
         C            0.963967166653    -0.279043772318     0.397407798162    12.000000000000
         C           -2.079521333347     1.333514327682    -0.104157201838    12.000000000000
         C            3.203260166653     0.789282227682     0.021104798162    12.000000000000
         H           -1.430841833347    -0.038122772318     1.408972798162     1.007825032230
         H           -0.170969833347    -0.381844772318    -1.378812201838     1.007825032230
         H            2.225066166653    -0.636986772318    -1.279531201838     1.007825032230
         H            2.816152166653    -1.321071772318     0.230617798162     1.007825032230
         H            0.926746166653    -0.156458772318     1.481807798162     1.007825032230
         H           -1.486478833347     2.140167227682     0.191571798162     1.007825032230
         H           -2.210902833347     1.328973227682    -1.216746201838     1.007825032230
         H           -3.116920833347     1.453377227682     0.305504798162     1.007825032230
         H            3.320049166653     0.994405227682     1.089242798162     1.007825032230
         H            2.753577166653     1.670947227682    -0.443046201838     1.007825032230
         H            4.200340166653     0.647799227682    -0.405370201838     1.007825032230
         H           -3.251194833347    -0.942514772318     0.206261798162     1.007825032230

  Basis Set: AUG-CC-PVTZ
    Blend: AUG-CC-PVTZ
  Basis Set: (AUG-CC-PVTZ AUX)
    Blend: AUG-CC-PVTZ-JKFIT
	 Reference Energy          =    -309.1423651617212727 [Eh]
	 Singles Energy            =      -0.0000000000000000 [Eh]
	 Same-Spin Energy          =      -0.3170919844597080 [Eh]
	 Opposite-Spin Energy      =      -1.1037659067062999 [Eh]
	 Correlation Energy        =      -1.4208578911660079 [Eh]
	 Total Energy              =    -310.5632230528872810 [Eh]

	 ================> DF-SCS-MP2 Energies <==================
	-----------------------------------------------------------
	 SCS Same-Spin Scale       =       0.3333333333333333 [-]
	 SCS Opposite-Spin Scale   =       1.2000000000000000 [-]
	 SCS Same-Spin Energy      =      -0.1056973281532360 [Eh]
	 SCS Opposite-Spin Energy  =      -1.3245190880475599 [Eh]
	 SCS Correlation Energy    =      -1.4302164162007960 [Eh]
	 SCS Total Energy          =    -310.5725815779220511 [Eh]
	-----------------------------------------------------------

  Dipole Moment: [D]
     X:    -0.1809      Y:     1.4436      Z:     0.7568     Total:     1.6399

*** Psi4 exiting successfully. Buy a developer a beer!
