                               Psi4 1.3.2 release

  ==> Input File <==

--------------------------------------------------------------------------
#psi4
#
memory 32 gb

molecule  {
0 1
  O       -2.3394226    -1.1115580    -0.1320110
  C       -1.5156830    -0.0261920     0.3177710
  C       -0.1702520    -0.2529640    -0.2898400
  C        2.3348890    -0.4444240    -0.1997250
  C        0.9740050    -0.2811540     0.4036300
  C       -2.1103090     1.3065560    -0.1212920
  C        3.2132980     0.7871720     0.0273270
  H       -1.4152227    -0.0324173     1.4147704
  H       -0.1609320    -0.3839550    -1.3725900
  H        2.2351040    -0.6390970    -1.2733090
  H        2.8261900    -1.3231820     0.2368400
  H        0.9367840    -0.1585690     1.4880300
  H       -1.4764410     2.1380570     0.1977940
  H       -2.2008650     1.3268630    -1.2105240
  H       -3.1068830     1.4512670     0.3117270
  H        3.3300870     0.9922950     1.0954650
  H        2.7636150     1.6688370    -0.4368240
  H        4.2103780     0.6456890    -0.3991480
  H       -3.2411570    -0.9446250     0.2124840
units angstrom
no_reorient  #important for SAPT in psi4, default
symmetry c1  #important for SAPT in psi4, default
}

set PROPERTIES_ORIGIN ["COM"]
properties('MP2/aug-cc-pvtz', properties = ['dipole'])
--------------------------------------------------------------------------

    Molecular point group: c1
  Charge       = 0
  Multiplicity = 1
  Basis Set: AUG-CC-PVTZ
    Blend: AUG-CC-PVTZ
  Basis Set: (AUG-CC-PVTZ AUX)
    Blend: AUG-CC-PVTZ-JKFIT

    Orbital Energies [Eh]
    ---------------------

    Doubly Occupied:

       1A    -20.556315     2A    -11.282852     3A    -11.227536
       4A    -11.224393     5A    -11.220738     6A    -11.219022
       7A    -11.215191     8A     -1.353550     9A     -1.089914
      10A     -1.033420    11A     -0.971051    12A     -0.875678
      13A     -0.809989    14A     -0.755099    15A     -0.681668
      16A     -0.633206    17A     -0.623818    18A     -0.598220
      19A     -0.589139    20A     -0.543096    21A     -0.539617
      22A     -0.531114    23A     -0.516517    24A     -0.502049
      25A     -0.481885    26A     -0.462527    27A     -0.443927
      28A     -0.349678

  @DF-RHF Final Energy:  -309.14891315137760

   => Energetics <=

    Nuclear Repulsion Energy =            299.2395011792814898
    One-Electron Energy =               -1012.1144088674100203
    Two-Electron Energy =                 403.7259945367509886
    Total Energy =                       -309.1489131513775988
  Basis Set: (AUG-CC-PVTZ AUX)
    Blend: AUG-CC-PVTZ-RI
    Molecular point group: c1

    Geometry (in Angstrom), charge = 0, multiplicity = 1:

       Center              X                  Y                   Z               Mass
    ------------   -----------------  -----------------  -----------------  -----------------
         O           -2.339721847711    -1.112226557683    -0.130110029674    15.994914619570
         C           -1.515982247711    -0.026860557683     0.319671970326    12.000000000000
         C           -0.170551247711    -0.253632557683    -0.287939029674    12.000000000000
         C            2.334589752289    -0.445092557683    -0.197824029674    12.000000000000
         C            0.973705752289    -0.281822557683     0.405530970326    12.000000000000
         C           -2.110608247711     1.305887442317    -0.119391029674    12.000000000000
         C            3.212998752289     0.786503442317     0.029227970326    12.000000000000
         H           -1.415521947711    -0.033085857683     1.416671370326     1.007825032230
         H           -0.161231247711    -0.384623557683    -1.370689029674     1.007825032230
         H            2.234804752289    -0.639765557683    -1.271408029674     1.007825032230
         H            2.825890752289    -1.323850557683     0.238740970326     1.007825032230
         H            0.936484752289    -0.159237557683     1.489930970326     1.007825032230
         H           -1.476740247711     2.137388442317     0.199694970326     1.007825032230
         H           -2.201164247711     1.326194442317    -1.208623029674     1.007825032230
         H           -3.107182247711     1.450598442317     0.313627970326     1.007825032230
         H            3.329787752289     0.991626442317     1.097365970326     1.007825032230
         H            2.763315752289     1.668168442317    -0.434923029674     1.007825032230
         H            4.210078752289     0.645020442317    -0.397247029674     1.007825032230
         H           -3.241456247711    -0.945293557683     0.214384970326     1.007825032230

  Basis Set: AUG-CC-PVTZ
    Blend: AUG-CC-PVTZ
  Basis Set: (AUG-CC-PVTZ AUX)
    Blend: AUG-CC-PVTZ-JKFIT
	 Reference Energy          =    -309.1489131513775988 [Eh]
	 Singles Energy            =      -0.0000000000000000 [Eh]
	 Same-Spin Energy          =      -0.3166334804503266 [Eh]
	 Opposite-Spin Energy      =      -1.1025932115364920 [Eh]
	 Correlation Energy        =      -1.4192266919868186 [Eh]
	 Total Energy              =    -310.5681398433644063 [Eh]

	 ================> DF-SCS-MP2 Energies <==================
	-----------------------------------------------------------
	 SCS Same-Spin Scale       =       0.3333333333333333 [-]
	 SCS Opposite-Spin Scale   =       1.2000000000000000 [-]
	 SCS Same-Spin Energy      =      -0.1055444934834422 [Eh]
	 SCS Opposite-Spin Energy  =      -1.3231118538437905 [Eh]
	 SCS Correlation Energy    =      -1.4286563473272327 [Eh]
	 SCS Total Energy          =    -310.5775694987048041 [Eh]
	-----------------------------------------------------------

  Dipole Moment: [D]
     X:    -0.1004      Y:     1.3630      Z:     0.8365     Total:     1.6023

*** Psi4 exiting successfully. Buy a developer a beer!
