                               Psi4 1.4a3.dev225

  ==> Input File <==

--------------------------------------------------------------------------
#psi4
#
memory 32 gb

molecule  {
0 1
  O       -2.4334040    -1.0537050    -0.1031880
  C       -1.5599110     0.0061750     0.3163080
  C       -0.2252920    -0.2882920    -0.2906650
  C        2.2718840    -0.5904540    -0.1973150
  C        0.9003712    -0.3551582     0.4120203
  C       -2.0985830     1.3582810    -0.1413790
  C        3.2072160     0.6032460     0.0168350
  H       -1.4627270     0.0051460     1.4138490
  H       -0.2231950    -0.4335060    -1.3719210
  H        2.1635620    -0.7923810    -1.2691220
  H        2.7222980    -1.4861610     0.2495370
  H        0.8868390    -0.2195170     1.4869310
  H       -1.4287050     2.1666040     0.1650490
  H       -2.1908800     1.3667930    -1.2308750
  H       -3.0873820     1.5512680     0.2912850
  H        3.3343300     0.8133780     1.0831920
  H        2.7976640     1.4999730    -0.4563300
  H        4.1964720     0.4112550    -0.4090930
  H       -3.3235000    -0.8374140     0.2263080
units angstrom
no_reorient  #important for SAPT in psi4, default
symmetry c1  #important for SAPT in psi4, default
}

set PROPERTIES_ORIGIN ["COM"]
properties('MP2/aug-cc-pvtz', properties = ['dipole'])
--------------------------------------------------------------------------

    Molecular point group: c1
  Charge       = 0
  Multiplicity = 1
  Basis Set: AUG-CC-PVTZ
    Blend: AUG-CC-PVTZ
  Basis Set: (AUG-CC-PVTZ AUX)
    Blend: AUG-CC-PVTZ-JKFIT

    Orbital Energies [Eh]
    ---------------------

    Doubly Occupied:

       1A    -20.555092     2A    -11.282844     3A    -11.226797
       4A    -11.225490     5A    -11.220075     6A    -11.219588
       7A    -11.215248     8A     -1.353772     9A     -1.089031
      10A     -1.031857    11A     -0.972021    12A     -0.873906
      13A     -0.810246    14A     -0.756063    15A     -0.681629
      16A     -0.632391    17A     -0.624419    18A     -0.597074
      19A     -0.588705    20A     -0.542714    21A     -0.540948
      22A     -0.532630    23A     -0.515195    24A     -0.501188
      25A     -0.482747    26A     -0.458960    27A     -0.443610
      28A     -0.352868

  @DF-RHF Final Energy:  -309.14961848141110

   => Energetics <=

    Nuclear Repulsion Energy =            298.9472066457557844
    One-Electron Energy =               -1011.5394329239913986
    Two-Electron Energy =                 403.4426077968244613
    Total Energy =                       -309.1496184814110961
  Basis Set: (AUG-CC-PVTZ AUX)
    Blend: AUG-CC-PVTZ-RI
    Molecular point group: c1

    Geometry (in Angstrom), charge = 0, multiplicity = 1:

       Center              X                  Y                   Z               Mass
    ------------   -----------------  -----------------  -----------------  -----------------
         O           -2.387896619369    -1.014027697134    -0.102382490855    15.994914619570
         C           -1.514403619369     0.045852302866     0.317113509145    12.000000000000
         C           -0.179784619369    -0.248614697134    -0.289859490855    12.000000000000
         C            2.317391380631    -0.550776697134    -0.196509490855    12.000000000000
         C            0.945878580631    -0.315480897134     0.412825809145    12.000000000000
         C           -2.053075619369     1.397958302866    -0.140573490855    12.000000000000
         C            3.252723380631     0.642923302866     0.017640509145    12.000000000000
         H           -1.417219619369     0.044823302866     1.414654509145     1.007825032230
         H           -0.177687619369    -0.393828697134    -1.371115490855     1.007825032230
         H            2.209069380631    -0.752703697134    -1.268316490855     1.007825032230
         H            2.767805380631    -1.446483697134     0.250342509145     1.007825032230
         H            0.932346380631    -0.179839697134     1.487736509145     1.007825032230
         H           -1.383197619369     2.206281302866     0.165854509145     1.007825032230
         H           -2.145372619369     1.406470302866    -1.230069490855     1.007825032230
         H           -3.041874619369     1.590945302866     0.292090509145     1.007825032230
         H            3.379837380631     0.853055302866     1.083997509145     1.007825032230
         H            2.843171380631     1.539650302866    -0.455524490855     1.007825032230
         H            4.241979380631     0.450932302866    -0.408287490855     1.007825032230
         H           -3.277992619369    -0.797736697134     0.227113509145     1.007825032230

  Basis Set: AUG-CC-PVTZ
    Blend: AUG-CC-PVTZ
  Basis Set: (AUG-CC-PVTZ AUX)
    Blend: AUG-CC-PVTZ-JKFIT
	 Reference Energy          =    -309.1496184814110961 [Eh]
	 Singles Energy            =      -0.0000000000000000 [Eh]
	 Same-Spin Energy          =      -0.3161885623115085 [Eh]
	 Opposite-Spin Energy      =      -1.1019851809581258 [Eh]
	 Correlation Energy        =      -1.4181737432696344 [Eh]
	 Total Energy              =    -310.5677922246807157 [Eh]

	 ================> DF-SCS-MP2 Energies <==================
	-----------------------------------------------------------
	 SCS Same-Spin Scale       =       0.3333333333333333 [-]
	 SCS Opposite-Spin Scale   =       1.2000000000000000 [-]
	 SCS Same-Spin Energy      =      -0.1053961874371695 [Eh]
	 SCS Opposite-Spin Energy  =      -1.3223822171497510 [Eh]
	 SCS Correlation Energy    =      -1.4277784045869206 [Eh]
	 SCS Total Energy          =    -310.5773968859980414 [Eh]
	-----------------------------------------------------------

  Dipole Moment: [D]
     X:    -0.0464      Y:     1.4002      Z:     0.7950     Total:     1.6109

*** Psi4 exiting successfully. Buy a developer a beer!
