                               Psi4 1.3.2 release

  ==> Input File <==

--------------------------------------------------------------------------
#psi4
#
memory 32 gb

molecule  {
0 1
  O       -2.3409430    -1.1152500    -0.1201430
  C       -1.5156830    -0.0261920     0.3177710
  C       -0.1820486    -0.2502096    -0.2698697
  C        2.3453927    -0.4430901    -0.1758285
  C        0.9740050    -0.2811540     0.4036300
  C       -2.1103090     1.3065560    -0.1212920
  C        3.2132980     0.7871720     0.0273270
  H       -1.4208040    -0.0402330     1.4151950
  H       -0.1609320    -0.3839550    -1.3725900
  H        2.2351040    -0.6390970    -1.2733090
  H        2.8261900    -1.3231820     0.2368400
  H        0.9367840    -0.1585690     1.4880300
  H       -1.4764410     2.1380570     0.1977940
  H       -2.2008650     1.3268630    -1.2105240
  H       -3.1068830     1.4512670     0.3117270
  H        3.3300870     0.9922950     1.0954650
  H        2.7636150     1.6688370    -0.4368240
  H        4.2103780     0.6456890    -0.3991480
  H       -3.2411570    -0.9446250     0.2124840
units angstrom
no_reorient  #important for SAPT in psi4, default
symmetry c1  #important for SAPT in psi4, default
}

set PROPERTIES_ORIGIN ["COM"]
properties('MP2/aug-cc-pvtz', properties = ['dipole'])
--------------------------------------------------------------------------

    Molecular point group: c1
  Charge       = 0
  Multiplicity = 1
  Basis Set: AUG-CC-PVTZ
    Blend: AUG-CC-PVTZ
  Basis Set: (AUG-CC-PVTZ AUX)
    Blend: AUG-CC-PVTZ-JKFIT

    Orbital Energies [Eh]
    ---------------------

    Doubly Occupied:

       1A    -20.555756     2A    -11.282379     3A    -11.227975
       4A    -11.225759     5A    -11.222207     6A    -11.219806
       7A    -11.215317     8A     -1.354821     9A     -1.091172
      10A     -1.036467    11A     -0.972108    12A     -0.878059
      13A     -0.811528    14A     -0.751683    15A     -0.681639
      16A     -0.636074    17A     -0.624835    18A     -0.601015
      19A     -0.586682    20A     -0.544405    21A     -0.539147
      22A     -0.529733    23A     -0.519858    24A     -0.502833
      25A     -0.476192    26A     -0.464227    27A     -0.443958
      28A     -0.350676

  @DF-RHF Final Energy:  -309.14751404027692

   => Energetics <=

    Nuclear Repulsion Energy =            299.3999183570578566
    One-Electron Energy =               -1012.4022390719278519
    Two-Electron Energy =                 403.8548066745930214
    Total Energy =                       -309.1475140402769171
  Basis Set: (AUG-CC-PVTZ AUX)
    Blend: AUG-CC-PVTZ-RI
    Molecular point group: c1

    Geometry (in Angstrom), charge = 0, multiplicity = 1:

       Center              X                  Y                   Z               Mass
    ------------   -----------------  -----------------  -----------------  -----------------
         O           -2.340788066671    -1.115740011430    -0.125402242023    15.994914619570
         C           -1.515528066671    -0.026682011430     0.312511757977    12.000000000000
         C           -0.181893666671    -0.250699611430    -0.275128942023    12.000000000000
         C            2.345547633329    -0.443580111430    -0.181087742023    12.000000000000
         C            0.974159933329    -0.281644011430     0.398370757977    12.000000000000
         C           -2.110154066671     1.306065988570    -0.126551242023    12.000000000000
         C            3.213452933329     0.786681988570     0.022067757977    12.000000000000
         H           -1.420649066671    -0.040723011430     1.409935757977     1.007825032230
         H           -0.160777066671    -0.384445011430    -1.377849242023     1.007825032230
         H            2.235258933329    -0.639587011430    -1.278568242023     1.007825032230
         H            2.826344933329    -1.323672011430     0.231580757977     1.007825032230
         H            0.936938933329    -0.159059011430     1.482770757977     1.007825032230
         H           -1.476286066671     2.137566988570     0.192534757977     1.007825032230
         H           -2.200710066671     1.326372988570    -1.215783242023     1.007825032230
         H           -3.106728066671     1.450776988570     0.306467757977     1.007825032230
         H            3.330241933329     0.991804988570     1.090205757977     1.007825032230
         H            2.763769933329     1.668346988570    -0.442083242023     1.007825032230
         H            4.210532933329     0.645198988570    -0.404407242023     1.007825032230
         H           -3.241002066671    -0.945115011430     0.207224757977     1.007825032230

  Basis Set: AUG-CC-PVTZ
    Blend: AUG-CC-PVTZ
  Basis Set: (AUG-CC-PVTZ AUX)
    Blend: AUG-CC-PVTZ-JKFIT
	 Reference Energy          =    -309.1475140402769171 [Eh]
	 Singles Energy            =      -0.0000000000000000 [Eh]
	 Same-Spin Energy          =      -0.3168146155627518 [Eh]
	 Opposite-Spin Energy      =      -1.1027528900056311 [Eh]
	 Correlation Energy        =      -1.4195675055683830 [Eh]
	 Total Energy              =    -310.5670815458453262 [Eh]

	 ================> DF-SCS-MP2 Energies <==================
	-----------------------------------------------------------
	 SCS Same-Spin Scale       =       0.3333333333333333 [-]
	 SCS Opposite-Spin Scale   =       1.2000000000000000 [-]
	 SCS Same-Spin Energy      =      -0.1056048718542506 [Eh]
	 SCS Opposite-Spin Energy  =      -1.3233034680067572 [Eh]
	 SCS Correlation Energy    =      -1.4289083398610078 [Eh]
	 SCS Total Energy          =    -310.5764223801378989 [Eh]
	-----------------------------------------------------------

  Dipole Moment: [D]
     X:    -0.0918      Y:     1.3885      Z:     0.8311     Total:     1.6208

*** Psi4 exiting successfully. Buy a developer a beer!
