                               Psi4 1.4a3.dev225

  ==> Input File <==

--------------------------------------------------------------------------
#psi4
#
memory 32 gb

molecule  {
0 1
  O       -2.4334040    -1.0537050    -0.1031880
  C       -1.5599110     0.0061750     0.3163080
  C       -0.2252920    -0.2882920    -0.2906650
  C        2.2718840    -0.5904540    -0.1973150
  C        0.9184280    -0.3582560     0.4039980
  C       -2.0985830     1.3582810    -0.1413790
  C        3.2072160     0.6032460     0.0168350
  H       -1.4671371     0.0051927     1.3640439
  H       -0.2231950    -0.4335060    -1.3719210
  H        2.1635620    -0.7923810    -1.2691220
  H        2.7222980    -1.4861610     0.2495370
  H        0.8868390    -0.2195170     1.4869310
  H       -1.4287050     2.1666040     0.1650490
  H       -2.1908800     1.3667930    -1.2308750
  H       -3.0873820     1.5512680     0.2912850
  H        3.3343300     0.8133780     1.0831920
  H        2.7976640     1.4999730    -0.4563300
  H        4.1964720     0.4112550    -0.4090930
  H       -3.3235000    -0.8374140     0.2263080
units angstrom
no_reorient  #important for SAPT in psi4, default
symmetry c1  #important for SAPT in psi4, default
}

set PROPERTIES_ORIGIN ["COM"]
properties('MP2/aug-cc-pvtz', properties = ['dipole'])
--------------------------------------------------------------------------

    Molecular point group: c1
  Charge       = 0
  Multiplicity = 1
  Basis Set: AUG-CC-PVTZ
    Blend: AUG-CC-PVTZ
  Basis Set: (AUG-CC-PVTZ AUX)
    Blend: AUG-CC-PVTZ-JKFIT

    Orbital Energies [Eh]
    ---------------------

    Doubly Occupied:

       1A    -20.554351     2A    -11.277010     3A    -11.228164
       4A    -11.224914     5A    -11.221168     6A    -11.219201
       7A    -11.215563     8A     -1.353455     9A     -1.089676
      10A     -1.034082    11A     -0.970776    12A     -0.876493
      13A     -0.812725    14A     -0.758365    15A     -0.684088
      16A     -0.632779    17A     -0.624464    18A     -0.597840
      19A     -0.589742    20A     -0.542951    21A     -0.539632
      22A     -0.531004    23A     -0.516326    24A     -0.503017
      25A     -0.482081    26A     -0.462725    27A     -0.446041
      28A     -0.349542

  @DF-RHF Final Energy:  -309.14880327110797

   => Energetics <=

    Nuclear Repulsion Energy =            299.1730034808173855
    One-Electron Energy =               -1011.9672598112426840
    Two-Electron Energy =                 403.6454530593172763
    Total Energy =                       -309.1488032711079654
  Basis Set: (AUG-CC-PVTZ AUX)
    Blend: AUG-CC-PVTZ-RI
    Molecular point group: c1

    Geometry (in Angstrom), charge = 0, multiplicity = 1:

       Center              X                  Y                   Z               Mass
    ------------   -----------------  -----------------  -----------------  -----------------
         O           -2.390017105967    -1.013656761235    -0.100919166242    15.994914619570
         C           -1.516524105967     0.046223238765     0.318576833758    12.000000000000
         C           -0.181905105967    -0.248243761235    -0.288396166242    12.000000000000
         C            2.315270894033    -0.550405761235    -0.195046166242    12.000000000000
         C            0.961814894033    -0.318207761235     0.406266833758    12.000000000000
         C           -2.055196105967     1.398329238765    -0.139110166242    12.000000000000
         C            3.250602894033     0.643294238765     0.019103833758    12.000000000000
         H           -1.423750205967     0.045240938765     1.366312733758     1.007825032230
         H           -0.179808105967    -0.393457761235    -1.369652166242     1.007825032230
         H            2.206948894033    -0.752332761235    -1.266853166242     1.007825032230
         H            2.765684894033    -1.446112761235     0.251805833758     1.007825032230
         H            0.930225894033    -0.179468761235     1.489199833758     1.007825032230
         H           -1.385318105967     2.206652238765     0.167317833758     1.007825032230
         H           -2.147493105967     1.406841238765    -1.228606166242     1.007825032230
         H           -3.043995105967     1.591316238765     0.293553833758     1.007825032230
         H            3.377716894033     0.853426238765     1.085460833758     1.007825032230
         H            2.841050894033     1.540021238765    -0.454061166242     1.007825032230
         H            4.239858894033     0.451303238765    -0.406824166242     1.007825032230
         H           -3.280113105967    -0.797365761235     0.228576833758     1.007825032230

  Basis Set: AUG-CC-PVTZ
    Blend: AUG-CC-PVTZ
  Basis Set: (AUG-CC-PVTZ AUX)
    Blend: AUG-CC-PVTZ-JKFIT
	 Reference Energy          =    -309.1488032711079654 [Eh]
	 Singles Energy            =      -0.0000000000000000 [Eh]
	 Same-Spin Energy          =      -0.3163743706614057 [Eh]
	 Opposite-Spin Energy      =      -1.1019906625011981 [Eh]
	 Correlation Energy        =      -1.4183650331626039 [Eh]
	 Total Energy              =    -310.5671683042705808 [Eh]

	 ================> DF-SCS-MP2 Energies <==================
	-----------------------------------------------------------
	 SCS Same-Spin Scale       =       0.3333333333333333 [-]
	 SCS Opposite-Spin Scale   =       1.2000000000000000 [-]
	 SCS Same-Spin Energy      =      -0.1054581235538019 [Eh]
	 SCS Opposite-Spin Energy  =      -1.3223887950014377 [Eh]
	 SCS Correlation Energy    =      -1.4278469185552396 [Eh]
	 SCS Total Energy          =    -310.5766501896632121 [Eh]
	-----------------------------------------------------------

  Dipole Moment: [D]
     X:    -0.0212      Y:     1.4063      Z:     0.8286     Total:     1.6324

*** Psi4 exiting successfully. Buy a developer a beer!
