                               Psi4 1.3.2 release

  ==> Input File <==

--------------------------------------------------------------------------
#psi4
#
memory 32 gb

molecule  {
0 1
  O       -2.3409430    -1.1152500    -0.1201430
  C       -1.5156830    -0.0261920     0.3177710
  C       -0.2034774    -0.2475103    -0.3604148
  C        2.3348890    -0.4444240    -0.1997250
  C        0.9740050    -0.2811540     0.4036300
  C       -2.1103090     1.3065560    -0.1212920
  C        3.2132980     0.7871720     0.0273270
  H       -1.4775757    -0.0307020     1.4187097
  H       -0.1609320    -0.3839550    -1.3725900
  H        2.2351040    -0.6390970    -1.2733090
  H        2.8261900    -1.3231820     0.2368400
  H        0.9367840    -0.1585690     1.4880300
  H       -1.4764410     2.1380570     0.1977940
  H       -2.2008650     1.3268630    -1.2105240
  H       -3.1068830     1.4512670     0.3117270
  H        3.3300870     0.9922950     1.0954650
  H        2.7636150     1.6688370    -0.4368240
  H        4.2103780     0.6456890    -0.3991480
  H       -3.2411570    -0.9446250     0.2124840
units angstrom
no_reorient  #important for SAPT in psi4, default
symmetry c1  #important for SAPT in psi4, default
}

set PROPERTIES_ORIGIN ["COM"]
properties('MP2/aug-cc-pvtz', properties = ['dipole'])
--------------------------------------------------------------------------

    Molecular point group: c1
  Charge       = 0
  Multiplicity = 1
  Basis Set: AUG-CC-PVTZ
    Blend: AUG-CC-PVTZ
  Basis Set: (AUG-CC-PVTZ AUX)
    Blend: AUG-CC-PVTZ-JKFIT

    Orbital Energies [Eh]
    ---------------------

    Doubly Occupied:

       1A    -20.553368     2A    -11.282921     3A    -11.237488
       4A    -11.224939     5A    -11.224228     6A    -11.217675
       7A    -11.215088     8A     -1.353529     9A     -1.083188
      10A     -1.033809    11A     -0.964745    12A     -0.875724
      13A     -0.805672    14A     -0.767145    15A     -0.682133
      16A     -0.631230    17A     -0.624322    18A     -0.600013
      19A     -0.590110    20A     -0.543052    21A     -0.540299
      22A     -0.534407    23A     -0.514182    24A     -0.501710
      25A     -0.482396    26A     -0.467126    27A     -0.441418
      28A     -0.335036

  @DF-RHF Final Energy:  -309.13683478934848

   => Energetics <=

    Nuclear Repulsion Energy =            298.6329286109835834
    One-Electron Energy =               -1010.8856235625486306
    Two-Electron Energy =                 403.1158601622165065
    Total Energy =                       -309.1368347893484838
  Basis Set: (AUG-CC-PVTZ AUX)
    Blend: AUG-CC-PVTZ-RI
    Molecular point group: c1

    Geometry (in Angstrom), charge = 0, multiplicity = 1:

       Center              X                  Y                   Z               Mass
    ------------   -----------------  -----------------  -----------------  -----------------
         O           -2.336387915262    -1.115999684605    -0.111716826752    15.994914619570
         C           -1.511127915262    -0.026941684605     0.326197173248    12.000000000000
         C           -0.198922315262    -0.248259984605    -0.351988626752    12.000000000000
         C            2.339444084738    -0.445173684605    -0.191298826752    12.000000000000
         C            0.978560084738    -0.281903684605     0.412056173248    12.000000000000
         C           -2.105753915262     1.305806315395    -0.112865826752    12.000000000000
         C            3.217853084738     0.786422315395     0.035753173248    12.000000000000
         H           -1.473020615262    -0.031451684605     1.427135873248     1.007825032230
         H           -0.156376915262    -0.384704684605    -1.364163826752     1.007825032230
         H            2.239659084738    -0.639846684605    -1.264882826752     1.007825032230
         H            2.830745084738    -1.323931684605     0.245266173248     1.007825032230
         H            0.941339084738    -0.159318684605     1.496456173248     1.007825032230
         H           -1.471885915262     2.137307315395     0.206220173248     1.007825032230
         H           -2.196309915262     1.326113315395    -1.202097826752     1.007825032230
         H           -3.102327915262     1.450517315395     0.320153173248     1.007825032230
         H            3.334642084738     0.991545315395     1.103891173248     1.007825032230
         H            2.768170084738     1.668087315395    -0.428397826752     1.007825032230
         H            4.214933084738     0.644939315395    -0.390721826752     1.007825032230
         H           -3.236601915262    -0.945374684605     0.220910173248     1.007825032230

  Basis Set: AUG-CC-PVTZ
    Blend: AUG-CC-PVTZ
  Basis Set: (AUG-CC-PVTZ AUX)
    Blend: AUG-CC-PVTZ-JKFIT
	 Reference Energy          =    -309.1368347893484838 [Eh]
	 Singles Energy            =      -0.0000000000000000 [Eh]
	 Same-Spin Energy          =      -0.3172849498401262 [Eh]
	 Opposite-Spin Energy      =      -1.1044194326880998 [Eh]
	 Correlation Energy        =      -1.4217043825282261 [Eh]
	 Total Energy              =    -310.5585391718767028 [Eh]

	 ================> DF-SCS-MP2 Energies <==================
	-----------------------------------------------------------
	 SCS Same-Spin Scale       =       0.3333333333333333 [-]
	 SCS Opposite-Spin Scale   =       1.2000000000000000 [-]
	 SCS Same-Spin Energy      =      -0.1057616499467087 [Eh]
	 SCS Opposite-Spin Energy  =      -1.3253033192257198 [Eh]
	 SCS Correlation Energy    =      -1.4310649691724284 [Eh]
	 SCS Total Energy          =    -310.5678997585209231 [Eh]
	-----------------------------------------------------------

  Dipole Moment: [D]
     X:    -0.0806      Y:     1.3610      Z:     0.8119     Total:     1.5868

*** Psi4 exiting successfully. Buy a developer a beer!
