                               Psi4 1.3.2 release

  ==> Input File <==

--------------------------------------------------------------------------
#psi4
#
memory 32 gb

molecule  {
0 1
  O       -2.3409430    -1.1152500    -0.1201430
  C       -1.5156830    -0.0261920     0.3177710
  C       -0.1702520    -0.2529640    -0.2898400
  C        2.3348890    -0.4444240    -0.1997250
  C        0.9740050    -0.2811540     0.4036300
  C       -2.1103090     1.3065560    -0.1212920
  C        3.2132980     0.7871720     0.0273270
  H       -1.4208040    -0.0402330     1.4151950
  H       -0.1609320    -0.3839550    -1.3725900
  H        2.2351040    -0.6390970    -1.2733090
  H        2.8261900    -1.3231820     0.2368400
  H        0.9299666    -0.1361163     1.6866487
  H       -1.4764410     2.1380570     0.1977940
  H       -2.2008650     1.3268630    -1.2105240
  H       -3.1068830     1.4512670     0.3117270
  H        3.3300870     0.9922950     1.0954650
  H        2.7636150     1.6688370    -0.4368240
  H        4.2103780     0.6456890    -0.3991480
  H       -3.2411570    -0.9446250     0.2124840
units angstrom
no_reorient  #important for SAPT in psi4, default
symmetry c1  #important for SAPT in psi4, default
}

set PROPERTIES_ORIGIN ["COM"]
properties('MP2/aug-cc-pvtz', properties = ['dipole'])
--------------------------------------------------------------------------

    Molecular point group: c1
  Charge       = 0
  Multiplicity = 1
  Basis Set: AUG-CC-PVTZ
    Blend: AUG-CC-PVTZ
  Basis Set: (AUG-CC-PVTZ AUX)
    Blend: AUG-CC-PVTZ-JKFIT

    Orbital Energies [Eh]
    ---------------------

    Doubly Occupied:

       1A    -20.555451     2A    -11.283057     3A    -11.250125
       4A    -11.227761     5A    -11.223742     6A    -11.219471
       7A    -11.215691     8A     -1.354303     9A     -1.088317
      10A     -1.034387    11A     -0.970472    12A     -0.875464
      13A     -0.810606    14A     -0.740467    15A     -0.674647
      16A     -0.631144    17A     -0.624584    18A     -0.599415
      19A     -0.587346    20A     -0.543469    21A     -0.537103
      22A     -0.521963    23A     -0.517359    24A     -0.502165
      25A     -0.477036    26A     -0.457160    27A     -0.443495
      28A     -0.352194

  @DF-RHF Final Energy:  -309.12839220301657

   => Energetics <=

    Nuclear Repulsion Energy =            298.3864998024184274
    One-Electron Energy =               -1010.3929897598115986
    Two-Electron Energy =                 402.8780977543765403
    Total Energy =                       -309.1283922030165741
  Basis Set: (AUG-CC-PVTZ AUX)
    Blend: AUG-CC-PVTZ-RI
    Molecular point group: c1

    Geometry (in Angstrom), charge = 0, multiplicity = 1:

       Center              X                  Y                   Z               Mass
    ------------   -----------------  -----------------  -----------------  -----------------
         O           -2.340874430504    -1.115475933901    -0.122142849830    15.994914619570
         C           -1.515614430504    -0.026417933901     0.315771150170    12.000000000000
         C           -0.170183430504    -0.253189933901    -0.291839849830    12.000000000000
         C            2.334957569496    -0.444649933901    -0.201724849830    12.000000000000
         C            0.974073569496    -0.281379933901     0.401630150170    12.000000000000
         C           -2.110240430504     1.306330066099    -0.123291849830    12.000000000000
         C            3.213366569496     0.786946066099     0.025327150170    12.000000000000
         H           -1.420735430504    -0.040458933901     1.413195150170     1.007825032230
         H           -0.160863430504    -0.384180933901    -1.374589849830     1.007825032230
         H            2.235172569496    -0.639322933901    -1.275308849830     1.007825032230
         H            2.826258569496    -1.323407933901     0.234840150170     1.007825032230
         H            0.930035169496    -0.136342233901     1.684648850170     1.007825032230
         H           -1.476372430504     2.137831066099     0.195794150170     1.007825032230
         H           -2.200796430504     1.326637066099    -1.212523849830     1.007825032230
         H           -3.106814430504     1.451041066099     0.309727150170     1.007825032230
         H            3.330155569496     0.992069066099     1.093465150170     1.007825032230
         H            2.763683569496     1.668611066099    -0.438823849830     1.007825032230
         H            4.210446569496     0.645463066099    -0.401147849830     1.007825032230
         H           -3.241088430504    -0.944850933901     0.210484150170     1.007825032230

  Basis Set: AUG-CC-PVTZ
    Blend: AUG-CC-PVTZ
  Basis Set: (AUG-CC-PVTZ AUX)
    Blend: AUG-CC-PVTZ-JKFIT
	 Reference Energy          =    -309.1283922030165741 [Eh]
	 Singles Energy            =      -0.0000000000000000 [Eh]
	 Same-Spin Energy          =      -0.3169716399670058 [Eh]
	 Opposite-Spin Energy      =      -1.1043809670518110 [Eh]
	 Correlation Energy        =      -1.4213526070188167 [Eh]
	 Total Energy              =    -310.5497448100354063 [Eh]

	 ================> DF-SCS-MP2 Energies <==================
	-----------------------------------------------------------
	 SCS Same-Spin Scale       =       0.3333333333333333 [-]
	 SCS Opposite-Spin Scale   =       1.2000000000000000 [-]
	 SCS Same-Spin Energy      =      -0.1056572133223353 [Eh]
	 SCS Opposite-Spin Energy  =      -1.3252571604621732 [Eh]
	 SCS Correlation Energy    =      -1.4309143737845085 [Eh]
	 SCS Total Energy          =    -310.5593065768010774 [Eh]
	-----------------------------------------------------------

  Dipole Moment: [D]
     X:    -0.0734      Y:     1.3677      Z:     0.6796     Total:     1.5290

*** Psi4 exiting successfully. Buy a developer a beer!
