                               Psi4 1.3.2 release

  ==> Input File <==

--------------------------------------------------------------------------
#psi4
#
memory 32 gb

molecule  {
0 1
  O       -2.2923039    -1.1625091    -0.0878315
  C       -1.5156830    -0.0261920     0.3177710
  C       -0.1702520    -0.2529640    -0.2898400
  C        2.3348890    -0.4444240    -0.1997250
  C        0.9740050    -0.2811540     0.4036300
  C       -2.0488146     1.3432097    -0.0860648
  C        3.2132980     0.7871720     0.0273270
  H       -1.4208040    -0.0402330     1.4151950
  H       -0.1609320    -0.3839550    -1.3725900
  H        2.2351040    -0.6390970    -1.2733090
  H        2.8261900    -1.3231820     0.2368400
  H        0.9367840    -0.1585690     1.4880300
  H       -1.4764410     2.1380570     0.1977940
  H       -2.2008650     1.3268630    -1.2105240
  H       -3.1068830     1.4512670     0.3117270
  H        3.3300870     0.9922950     1.0954650
  H        2.7636150     1.6688370    -0.4368240
  H        4.2103780     0.6456890    -0.3991480
  H       -3.2411570    -0.9446250     0.2124840
units angstrom
no_reorient  #important for SAPT in psi4, default
symmetry c1  #important for SAPT in psi4, default
}

set PROPERTIES_ORIGIN ["COM"]
properties('MP2/aug-cc-pvtz', properties = ['dipole'])
--------------------------------------------------------------------------

    Molecular point group: c1
  Charge       = 0
  Multiplicity = 1
  Basis Set: AUG-CC-PVTZ
    Blend: AUG-CC-PVTZ
  Basis Set: (AUG-CC-PVTZ AUX)
    Blend: AUG-CC-PVTZ-JKFIT

    Orbital Energies [Eh]
    ---------------------

    Doubly Occupied:

       1A    -20.564494     2A    -11.282904     3A    -11.225517
       4A    -11.223866     5A    -11.223282     6A    -11.219307
       7A    -11.214497     8A     -1.349000     9A     -1.088883
      10A     -1.034099    11A     -0.971491    12A     -0.874514
      13A     -0.808363    14A     -0.754290    15A     -0.673709
      16A     -0.638548    17A     -0.627066    18A     -0.599512
      19A     -0.588610    20A     -0.541744    21A     -0.532536
      22A     -0.530022    23A     -0.519239    24A     -0.505751
      25A     -0.480974    26A     -0.459106    27A     -0.442752
      28A     -0.347817

  @DF-RHF Final Energy:  -309.13508716371410

   => Energetics <=

    Nuclear Repulsion Energy =            299.1680231256665365
    One-Electron Energy =               -1011.9624329204665401
    Two-Electron Energy =                 403.6593226310858995
    Total Energy =                       -309.1350871637141040
  Basis Set: (AUG-CC-PVTZ AUX)
    Blend: AUG-CC-PVTZ-RI
    Molecular point group: c1

    Geometry (in Angstrom), charge = 0, multiplicity = 1:

       Center              X                  Y                   Z               Mass
    ------------   -----------------  -----------------  -----------------  -----------------
         O           -2.307449635898    -1.159351146675    -0.097218520773    15.994914619570
         C           -1.530828735898    -0.023034046675     0.308383979227    12.000000000000
         C           -0.185397735898    -0.249806046675    -0.299227020773    12.000000000000
         C            2.319743264102    -0.441266046675    -0.209112020773    12.000000000000
         C            0.958859264102    -0.277996046675     0.394242979227    12.000000000000
         C           -2.063960335898     1.346367653325    -0.095451820773    12.000000000000
         C            3.198152264102     0.790329953325     0.017939979227    12.000000000000
         H           -1.435949735898    -0.037075046675     1.405807979227     1.007825032230
         H           -0.176077735898    -0.380797046675    -1.381977020773     1.007825032230
         H            2.219958264102    -0.635939046675    -1.282696020773     1.007825032230
         H            2.811044264102    -1.320024046675     0.227452979227     1.007825032230
         H            0.921638264102    -0.155411046675     1.478642979227     1.007825032230
         H           -1.491586735898     2.141214953325     0.188406979227     1.007825032230
         H           -2.216010735898     1.330020953325    -1.219911020773     1.007825032230
         H           -3.122028735898     1.454424953325     0.302339979227     1.007825032230
         H            3.314941264102     0.995452953325     1.086077979227     1.007825032230
         H            2.748469264102     1.671994953325    -0.446211020773     1.007825032230
         H            4.195232264102     0.648846953325    -0.408535020773     1.007825032230
         H           -3.256302735898    -0.941467046675     0.203096979227     1.007825032230

  Basis Set: AUG-CC-PVTZ
    Blend: AUG-CC-PVTZ
  Basis Set: (AUG-CC-PVTZ AUX)
    Blend: AUG-CC-PVTZ-JKFIT
	 Reference Energy          =    -309.1350871637141040 [Eh]
	 Singles Energy            =      -0.0000000000000000 [Eh]
	 Same-Spin Energy          =      -0.3174448798320572 [Eh]
	 Opposite-Spin Energy      =      -1.1046656669186978 [Eh]
	 Correlation Energy        =      -1.4221105467507549 [Eh]
	 Total Energy              =    -310.5571977104648340 [Eh]

	 ================> DF-SCS-MP2 Energies <==================
	-----------------------------------------------------------
	 SCS Same-Spin Scale       =       0.3333333333333333 [-]
	 SCS Opposite-Spin Scale   =       1.2000000000000000 [-]
	 SCS Same-Spin Energy      =      -0.1058149599440190 [Eh]
	 SCS Opposite-Spin Energy  =      -1.3255988003024373 [Eh]
	 SCS Correlation Energy    =      -1.4314137602464563 [Eh]
	 SCS Total Energy          =    -310.5665009239605752 [Eh]
	-----------------------------------------------------------

  Dipole Moment: [D]
     X:    -0.2223      Y:     1.4665      Z:     0.7283     Total:     1.6524

*** Psi4 exiting successfully. Buy a developer a beer!
