                               Psi4 1.3.2 release

  ==> Input File <==

--------------------------------------------------------------------------
#psi4
#
memory 32 gb

molecule  {
0 1
  O       -2.3409430    -1.1152500    -0.1201430
  C       -1.5156830    -0.0261920     0.3177710
  C       -0.1650706    -0.2538129    -0.2779103
  C        2.3348890    -0.4444240    -0.1997250
  C        0.9740050    -0.2811540     0.4036300
  C       -2.1103090     1.3065560    -0.1212920
  C        3.2132980     0.7871720     0.0273270
  H       -1.4113631    -0.0418185     1.4143164
  H       -0.1609320    -0.3839550    -1.3725900
  H        2.2351040    -0.6390970    -1.2733090
  H        2.8261900    -1.3231820     0.2368400
  H        0.9367840    -0.1585690     1.4880300
  H       -1.4764410     2.1380570     0.1977940
  H       -2.2008650     1.3268630    -1.2105240
  H       -3.1068830     1.4512670     0.3117270
  H        3.3300870     0.9922950     1.0954650
  H        2.7636150     1.6688370    -0.4368240
  H        4.2103780     0.6456890    -0.3991480
  H       -3.2411570    -0.9446250     0.2124840
units angstrom
no_reorient  #important for SAPT in psi4, default
symmetry c1  #important for SAPT in psi4, default
}

set PROPERTIES_ORIGIN ["COM"]
properties('MP2/aug-cc-pvtz', properties = ['dipole'])
--------------------------------------------------------------------------

    Molecular point group: c1
  Charge       = 0
  Multiplicity = 1
  Basis Set: AUG-CC-PVTZ
    Blend: AUG-CC-PVTZ
  Basis Set: (AUG-CC-PVTZ AUX)
    Blend: AUG-CC-PVTZ-JKFIT

    Orbital Energies [Eh]
    ---------------------

    Doubly Occupied:

       1A    -20.555640     2A    -11.282929     3A    -11.226141
       4A    -11.224515     5A    -11.220263     6A    -11.219624
       7A    -11.215295     8A     -1.354202     9A     -1.091371
      10A     -1.033596    11A     -0.972321    12A     -0.875999
      13A     -0.811418    14A     -0.753016    15A     -0.681581
      16A     -0.634065    17A     -0.624731    18A     -0.598756
      19A     -0.588578    20A     -0.543551    21A     -0.539680
      22A     -0.530420    23A     -0.516786    24A     -0.501952
      25A     -0.482021    26A     -0.461277    27A     -0.443781
      28A     -0.352394

  @DF-RHF Final Energy:  -309.14958869388772

   => Energetics <=

    Nuclear Repulsion Energy =            299.3140391635121773
    One-Electron Energy =               -1012.2554464474133056
    Two-Electron Energy =                 403.7918185900133494
    Total Energy =                       -309.1495886938877220
  Basis Set: (AUG-CC-PVTZ AUX)
    Blend: AUG-CC-PVTZ-RI
    Molecular point group: c1

    Geometry (in Angstrom), charge = 0, multiplicity = 1:

       Center              X                  Y                   Z               Mass
    ------------   -----------------  -----------------  -----------------  -----------------
         O           -2.341659356589    -1.115132108273    -0.121564343902    15.994914619570
         C           -1.516399356589    -0.026074108273     0.316349656098    12.000000000000
         C           -0.165786956589    -0.253695008273    -0.279331643902    12.000000000000
         C            2.334172643411    -0.444306108273    -0.201146343902    12.000000000000
         C            0.973288643411    -0.281036108273     0.402208656098    12.000000000000
         C           -2.111025356589     1.306673891727    -0.122713343902    12.000000000000
         C            3.212581643411     0.787289891727     0.025905656098    12.000000000000
         H           -1.412079456589    -0.041700608273     1.412895056098     1.007825032230
         H           -0.161648356589    -0.383837108273    -1.374011343902     1.007825032230
         H            2.234387643411    -0.638979108273    -1.274730343902     1.007825032230
         H            2.825473643411    -1.323064108273     0.235418656098     1.007825032230
         H            0.936067643411    -0.158451108273     1.486608656098     1.007825032230
         H           -1.477157356589     2.138174891727     0.196372656098     1.007825032230
         H           -2.201581356589     1.326980891727    -1.211945343902     1.007825032230
         H           -3.107599356589     1.451384891727     0.310305656098     1.007825032230
         H            3.329370643411     0.992412891727     1.094043656098     1.007825032230
         H            2.762898643411     1.668954891727    -0.438245343902     1.007825032230
         H            4.209661643411     0.645806891727    -0.400569343902     1.007825032230
         H           -3.241873356589    -0.944507108273     0.211062656098     1.007825032230

  Basis Set: AUG-CC-PVTZ
    Blend: AUG-CC-PVTZ
  Basis Set: (AUG-CC-PVTZ AUX)
    Blend: AUG-CC-PVTZ-JKFIT
	 Reference Energy          =    -309.1495886938877220 [Eh]
	 Singles Energy            =      -0.0000000000000000 [Eh]
	 Same-Spin Energy          =      -0.3164585828508595 [Eh]
	 Opposite-Spin Energy      =      -1.1021527257104298 [Eh]
	 Correlation Energy        =      -1.4186113085612893 [Eh]
	 Total Energy              =    -310.5682000024490321 [Eh]

	 ================> DF-SCS-MP2 Energies <==================
	-----------------------------------------------------------
	 SCS Same-Spin Scale       =       0.3333333333333333 [-]
	 SCS Opposite-Spin Scale   =       1.2000000000000000 [-]
	 SCS Same-Spin Energy      =      -0.1054861942836198 [Eh]
	 SCS Opposite-Spin Energy  =      -1.3225832708525156 [Eh]
	 SCS Correlation Energy    =      -1.4280694651361354 [Eh]
	 SCS Total Energy          =    -310.5776581590238834 [Eh]
	-----------------------------------------------------------

  Dipole Moment: [D]
     X:    -0.0980      Y:     1.3828      Z:     0.8167     Total:     1.6089

*** Psi4 exiting successfully. Buy a developer a beer!
