                               Psi4 1.3.2 release

  ==> Input File <==

--------------------------------------------------------------------------
#psi4
#
memory 32 gb

molecule  {
0 1
  O       -2.3409430    -1.1152500    -0.1201430
  C       -1.4810623    -0.0217547     0.3877438
  C       -0.1702520    -0.2529640    -0.2898400
  C        2.3348890    -0.4444240    -0.1997250
  C        0.9740050    -0.2811540     0.4036300
  C       -2.1103090     1.3065560    -0.1212920
  C        3.2132980     0.7871720     0.0273270
  H       -1.4208040    -0.0402330     1.4151950
  H       -0.1042293    -0.3901108    -1.3698515
  H        2.2351040    -0.6390970    -1.2733090
  H        2.8261900    -1.3231820     0.2368400
  H        0.9367840    -0.1585690     1.4880300
  H       -1.4764410     2.1380570     0.1977940
  H       -2.2008650     1.3268630    -1.2105240
  H       -3.1068830     1.4512670     0.3117270
  H        3.3300870     0.9922950     1.0954650
  H        2.7636150     1.6688370    -0.4368240
  H        4.2103780     0.6456890    -0.3991480
  H       -3.2411570    -0.9446250     0.2124840
units angstrom
no_reorient  #important for SAPT in psi4, default
symmetry c1  #important for SAPT in psi4, default
}

set PROPERTIES_ORIGIN ["COM"]
properties('MP2/aug-cc-pvtz', properties = ['dipole'])
--------------------------------------------------------------------------

    Molecular point group: c1
  Charge       = 0
  Multiplicity = 1
  Basis Set: AUG-CC-PVTZ
    Blend: AUG-CC-PVTZ
  Basis Set: (AUG-CC-PVTZ AUX)
    Blend: AUG-CC-PVTZ-JKFIT

    Orbital Energies [Eh]
    ---------------------

    Doubly Occupied:

       1A    -20.550029     2A    -11.282711     3A    -11.226664
       4A    -11.224583     5A    -11.221874     6A    -11.220822
       7A    -11.215562     8A     -1.336348     9A     -1.091685
      10A     -1.032544    11A     -0.969107    12A     -0.875987
      13A     -0.814280    14A     -0.760498    15A     -0.679711
      16A     -0.628673    17A     -0.615835    18A     -0.596054
      19A     -0.588414    20A     -0.543886    21A     -0.537121
      22A     -0.530712    23A     -0.514610    24A     -0.501875
      25A     -0.482156    26A     -0.468828    27A     -0.445523
      28A     -0.349215

  @DF-RHF Final Energy:  -309.14136742517582

   => Energetics <=

    Nuclear Repulsion Energy =            298.7069674716424856
    One-Electron Energy =               -1011.0860553888963977
    Two-Electron Energy =                 403.2377204920780400
    Total Energy =                       -309.1413674251758152
  Basis Set: (AUG-CC-PVTZ AUX)
    Blend: AUG-CC-PVTZ-RI
    Molecular point group: c1

    Geometry (in Angstrom), charge = 0, multiplicity = 1:

       Center              X                  Y                   Z               Mass
    ------------   -----------------  -----------------  -----------------  -----------------
         O           -2.345664831377    -1.115719869625    -0.128559756964    15.994914619570
         C           -1.485784131377    -0.022224569625     0.379327043036    12.000000000000
         C           -0.174973831377    -0.253433869625    -0.298256756964    12.000000000000
         C            2.330167168623    -0.444893869625    -0.208141756964    12.000000000000
         C            0.969283168623    -0.281623869625     0.395213243036    12.000000000000
         C           -2.115030831377     1.306086130375    -0.129708756964    12.000000000000
         C            3.208576168623     0.786702130375     0.018910243036    12.000000000000
         H           -1.425525831377    -0.040702869625     1.406778243036     1.007825032230
         H           -0.108951131377    -0.390580669625    -1.378268256964     1.007825032230
         H            2.230382168623    -0.639566869625    -1.281725756964     1.007825032230
         H            2.821468168623    -1.323651869625     0.228423243036     1.007825032230
         H            0.932062168623    -0.159038869625     1.479613243036     1.007825032230
         H           -1.481162831377     2.137587130375     0.189377243036     1.007825032230
         H           -2.205586831377     1.326393130375    -1.218940756964     1.007825032230
         H           -3.111604831377     1.450797130375     0.303310243036     1.007825032230
         H            3.325365168623     0.991825130375     1.087048243036     1.007825032230
         H            2.758893168623     1.668367130375    -0.445240756964     1.007825032230
         H            4.205656168623     0.645219130375    -0.407564756964     1.007825032230
         H           -3.245878831377    -0.945094869625     0.204067243036     1.007825032230

  Basis Set: AUG-CC-PVTZ
    Blend: AUG-CC-PVTZ
  Basis Set: (AUG-CC-PVTZ AUX)
    Blend: AUG-CC-PVTZ-JKFIT
	 Reference Energy          =    -309.1413674251758152 [Eh]
	 Singles Energy            =      -0.0000000000000000 [Eh]
	 Same-Spin Energy          =      -0.3165879693324901 [Eh]
	 Opposite-Spin Energy      =      -1.1031764550767076 [Eh]
	 Correlation Energy        =      -1.4197644244091976 [Eh]
	 Total Energy              =    -310.5611318495850242 [Eh]

	 ================> DF-SCS-MP2 Energies <==================
	-----------------------------------------------------------
	 SCS Same-Spin Scale       =       0.3333333333333333 [-]
	 SCS Opposite-Spin Scale   =       1.2000000000000000 [-]
	 SCS Same-Spin Energy      =      -0.1055293231108300 [Eh]
	 SCS Opposite-Spin Energy  =      -1.3238117460920491 [Eh]
	 SCS Correlation Energy    =      -1.4293410692028792 [Eh]
	 SCS Total Energy          =    -310.5707084943787208 [Eh]
	-----------------------------------------------------------

  Dipole Moment: [D]
     X:     0.0373      Y:     1.4357      Z:     0.9088     Total:     1.6996

*** Psi4 exiting successfully. Buy a developer a beer!
