                               Psi4 1.3.2 release

  ==> Input File <==

--------------------------------------------------------------------------
#psi4
#
memory 32 gb

molecule  {
0 1
  O       -2.3409430    -1.1152500    -0.1201430
  C       -1.5156830    -0.0261920     0.3177710
  C       -0.1581068    -0.2557270    -0.3095991
  C        2.3239708    -0.4457082    -0.2234377
  C        0.9740050    -0.2811540     0.4036300
  C       -2.1103090     1.3065560    -0.1212920
  C        3.2132980     0.7871720     0.0273270
  H       -1.4208040    -0.0402330     1.4151950
  H       -0.1609320    -0.3839550    -1.3725900
  H        2.2351040    -0.6390970    -1.2733090
  H        2.8261900    -1.3231820     0.2368400
  H        0.9367840    -0.1585690     1.4880300
  H       -1.4764410     2.1380570     0.1977940
  H       -2.2008650     1.3268630    -1.2105240
  H       -3.1068830     1.4512670     0.3117270
  H        3.3300870     0.9922950     1.0954650
  H        2.7636150     1.6688370    -0.4368240
  H        4.2103780     0.6456890    -0.3991480
  H       -3.2411570    -0.9446250     0.2124840
units angstrom
no_reorient  #important for SAPT in psi4, default
symmetry c1  #important for SAPT in psi4, default
}

set PROPERTIES_ORIGIN ["COM"]
properties('MP2/aug-cc-pvtz', properties = ['dipole'])
--------------------------------------------------------------------------

    Molecular point group: c1
  Charge       = 0
  Multiplicity = 1
  Basis Set: AUG-CC-PVTZ
    Blend: AUG-CC-PVTZ
  Basis Set: (AUG-CC-PVTZ AUX)
    Blend: AUG-CC-PVTZ-JKFIT

    Orbital Energies [Eh]
    ---------------------

    Doubly Occupied:

       1A    -20.554847     2A    -11.283261     3A    -11.227637
       4A    -11.223428     5A    -11.219697     6A    -11.218864
       7A    -11.215289     8A     -1.353343     9A     -1.089143
      10A     -1.030822    11A     -0.970212    12A     -0.873905
      13A     -0.809541    14A     -0.758807    15A     -0.681634
      16A     -0.630887    17A     -0.624883    18A     -0.595756
      19A     -0.591723    20A     -0.542679    21A     -0.541606
      22A     -0.531509    23A     -0.513096    24A     -0.501026
      25A     -0.488232    26A     -0.458750    27A     -0.443354
      28A     -0.348973

  @DF-RHF Final Energy:  -309.14844393822739

   => Energetics <=

    Nuclear Repulsion Energy =            299.0292795018254992
    One-Electron Energy =               -1011.7096336267836705
    Two-Electron Energy =                 403.5319101867307836
    Total Energy =                       -309.1484439382273877
  Basis Set: (AUG-CC-PVTZ AUX)
    Blend: AUG-CC-PVTZ-RI
    Molecular point group: c1

    Geometry (in Angstrom), charge = 0, multiplicity = 1:

       Center              X                  Y                   Z               Mass
    ------------   -----------------  -----------------  -----------------  -----------------
         O           -2.341090186344    -1.114764617726    -0.114930910137    15.994914619570
         C           -1.515830186344    -0.025706617726     0.322983089863    12.000000000000
         C           -0.158253986344    -0.255241617726    -0.304387010137    12.000000000000
         C            2.323823613656    -0.445222817726    -0.218225610137    12.000000000000
         C            0.973857813656    -0.280668617726     0.408842089863    12.000000000000
         C           -2.110456186344     1.307041382274    -0.116079910137    12.000000000000
         C            3.213150813656     0.787657382274     0.032539089863    12.000000000000
         H           -1.420951186344    -0.039747617726     1.420407089863     1.007825032230
         H           -0.161079186344    -0.383469617726    -1.367377910137     1.007825032230
         H            2.234956813656    -0.638611617726    -1.268096910137     1.007825032230
         H            2.826042813656    -1.322696617726     0.242052089863     1.007825032230
         H            0.936636813656    -0.158083617726     1.493242089863     1.007825032230
         H           -1.476588186344     2.138542382274     0.203006089863     1.007825032230
         H           -2.201012186344     1.327348382274    -1.205311910137     1.007825032230
         H           -3.107030186344     1.451752382274     0.316939089863     1.007825032230
         H            3.329939813656     0.992780382274     1.100677089863     1.007825032230
         H            2.763467813656     1.669322382274    -0.431611910137     1.007825032230
         H            4.210230813656     0.646174382274    -0.393935910137     1.007825032230
         H           -3.241304186344    -0.944139617726     0.217696089863     1.007825032230

  Basis Set: AUG-CC-PVTZ
    Blend: AUG-CC-PVTZ
  Basis Set: (AUG-CC-PVTZ AUX)
    Blend: AUG-CC-PVTZ-JKFIT
	 Reference Energy          =    -309.1484439382273877 [Eh]
	 Singles Energy            =      -0.0000000000000000 [Eh]
	 Same-Spin Energy          =      -0.3163204861829437 [Eh]
	 Opposite-Spin Energy      =      -1.1021696178224052 [Eh]
	 Correlation Energy        =      -1.4184901040053490 [Eh]
	 Total Energy              =    -310.5669340422327309 [Eh]

	 ================> DF-SCS-MP2 Energies <==================
	-----------------------------------------------------------
	 SCS Same-Spin Scale       =       0.3333333333333333 [-]
	 SCS Opposite-Spin Scale   =       1.2000000000000000 [-]
	 SCS Same-Spin Energy      =      -0.1054401620609812 [Eh]
	 SCS Opposite-Spin Energy  =      -1.3226035413868862 [Eh]
	 SCS Correlation Energy    =      -1.4280437034478675 [Eh]
	 SCS Total Energy          =    -310.5764876416752713 [Eh]
	-----------------------------------------------------------

  Dipole Moment: [D]
     X:    -0.0982      Y:     1.3720      Z:     0.8008     Total:     1.5917

*** Psi4 exiting successfully. Buy a developer a beer!
