                               Psi4 1.4a3.dev225

  ==> Input File <==

--------------------------------------------------------------------------
#psi4
#
memory 32 gb

molecule  {
0 1
  O       -2.4334040    -1.0537050    -0.1031880
  C       -1.5903235    -0.0307270     0.3017024
  C       -0.2252920    -0.2882920    -0.2906650
  C        2.2718840    -0.5904540    -0.1973150
  C        0.9184280    -0.3582560     0.4039980
  C       -2.0985830     1.3582810    -0.1413790
  C        3.2072160     0.6032460     0.0168350
  H       -1.4627270     0.0051460     1.4138490
  H       -0.2231950    -0.4335060    -1.3719210
  H        2.1635620    -0.7923810    -1.2691220
  H        2.7222980    -1.4861610     0.2495370
  H        0.8868390    -0.2195170     1.4869310
  H       -1.4287050     2.1666040     0.1650490
  H       -2.1908800     1.3667930    -1.2308750
  H       -3.0873820     1.5512680     0.2912850
  H        3.3343300     0.8133780     1.0831920
  H        2.7976640     1.4999730    -0.4563300
  H        4.1964720     0.4112550    -0.4090930
  H       -3.3235000    -0.8374140     0.2263080
units angstrom
no_reorient  #important for SAPT in psi4, default
symmetry c1  #important for SAPT in psi4, default
}

set PROPERTIES_ORIGIN ["COM"]
properties('MP2/aug-cc-pvtz', properties = ['dipole'])
--------------------------------------------------------------------------

    Molecular point group: c1
  Charge       = 0
  Multiplicity = 1
  Basis Set: AUG-CC-PVTZ
    Blend: AUG-CC-PVTZ
  Basis Set: (AUG-CC-PVTZ AUX)
    Blend: AUG-CC-PVTZ-JKFIT

    Orbital Energies [Eh]
    ---------------------

    Doubly Occupied:

       1A    -20.561596     2A    -11.284348     3A    -11.226978
       4A    -11.224211     5A    -11.220819     6A    -11.218708
       7A    -11.214748     8A     -1.375487     9A     -1.086482
      10A     -1.028721    11A     -0.967872    12A     -0.874958
      13A     -0.812025    14A     -0.752622    15A     -0.690120
      16A     -0.637112    17A     -0.628423    18A     -0.598391
      19A     -0.589296    20A     -0.543227    21A     -0.538872
      22A     -0.531783    23A     -0.519302    24A     -0.503785
      25A     -0.481163    26A     -0.456622    27A     -0.437747
      28A     -0.347856

  @DF-RHF Final Energy:  -309.14794340758300

   => Energetics <=

    Nuclear Repulsion Energy =            299.0833224465313833
    One-Electron Energy =               -1011.7559829839777876
    Two-Electron Energy =                 403.5247171298634044
    Total Energy =                       -309.1479434075830000
  Basis Set: (AUG-CC-PVTZ AUX)
    Blend: AUG-CC-PVTZ-RI
    Molecular point group: c1

    Geometry (in Angstrom), charge = 0, multiplicity = 1:

       Center              X                  Y                   Z               Mass
    ------------   -----------------  -----------------  -----------------  -----------------
         O           -2.386415251046    -1.009231980450    -0.099669552352    15.994914619570
         C           -1.543334751046     0.013746019550     0.305220847648    12.000000000000
         C           -0.178303251046    -0.243818980450    -0.287146552352    12.000000000000
         C            2.318872748954    -0.545980980450    -0.193796552352    12.000000000000
         C            0.965416748954    -0.313782980450     0.407516447648    12.000000000000
         C           -2.051594251046     1.402754019550    -0.137860552352    12.000000000000
         C            3.254204748954     0.647719019550     0.020353447648    12.000000000000
         H           -1.415738251046     0.049619019550     1.417367447648     1.007825032230
         H           -0.176206251046    -0.389032980450    -1.368402552352     1.007825032230
         H            2.210550748954    -0.747907980450    -1.265603552352     1.007825032230
         H            2.769286748954    -1.441687980450     0.253055447648     1.007825032230
         H            0.933827748954    -0.175043980450     1.490449447648     1.007825032230
         H           -1.381716251046     2.211077019550     0.168567447648     1.007825032230
         H           -2.143891251046     1.411266019550    -1.227356552352     1.007825032230
         H           -3.040393251046     1.595741019550     0.294803447648     1.007825032230
         H            3.381318748954     0.857851019550     1.086710447648     1.007825032230
         H            2.844652748954     1.544446019550    -0.452811552352     1.007825032230
         H            4.243460748954     0.455728019550    -0.405574552352     1.007825032230
         H           -3.276511251046    -0.792940980450     0.229826447648     1.007825032230

  Basis Set: AUG-CC-PVTZ
    Blend: AUG-CC-PVTZ
  Basis Set: (AUG-CC-PVTZ AUX)
    Blend: AUG-CC-PVTZ-JKFIT
	 Reference Energy          =    -309.1479434075830000 [Eh]
	 Singles Energy            =      -0.0000000000000000 [Eh]
	 Same-Spin Energy          =      -0.3163028067297778 [Eh]
	 Opposite-Spin Energy      =      -1.1017181485256797 [Eh]
	 Correlation Energy        =      -1.4180209552554577 [Eh]
	 Total Energy              =    -310.5659643628384856 [Eh]

	 ================> DF-SCS-MP2 Energies <==================
	-----------------------------------------------------------
	 SCS Same-Spin Scale       =       0.3333333333333333 [-]
	 SCS Opposite-Spin Scale   =       1.2000000000000000 [-]
	 SCS Same-Spin Energy      =      -0.1054342689099259 [Eh]
	 SCS Opposite-Spin Energy  =      -1.3220617782308157 [Eh]
	 SCS Correlation Energy    =      -1.4274960471407416 [Eh]
	 SCS Total Energy          =    -310.5754394547237212 [Eh]
	-----------------------------------------------------------

  Dipole Moment: [D]
     X:    -0.1858      Y:     1.2450      Z:     0.7507     Total:     1.4657

*** Psi4 exiting successfully. Buy a developer a beer!
