                               Psi4 1.3.2 release

  ==> Input File <==

--------------------------------------------------------------------------
#psi4
#
memory 32 gb

molecule  {
0 1
  O       -2.3409430    -1.1152500    -0.1201430
  C       -1.5156830    -0.0261920     0.3177710
  C       -0.1702520    -0.2529640    -0.2898400
  C        2.3348890    -0.4444240    -0.1997250
  C        0.9799127    -0.2829213     0.3937119
  C       -2.1103090     1.3065560    -0.1212920
  C        3.2132980     0.7871720     0.0273270
  H       -1.4208040    -0.0402330     1.4151950
  H       -0.1514590    -0.3848503    -1.3723583
  H        2.2351040    -0.6390970    -1.2733090
  H        2.8261900    -1.3231820     0.2368400
  H        0.9367840    -0.1585690     1.4880300
  H       -1.4764410     2.1380570     0.1977940
  H       -2.2008650     1.3268630    -1.2105240
  H       -3.1068830     1.4512670     0.3117270
  H        3.3300870     0.9922950     1.0954650
  H        2.7636150     1.6688370    -0.4368240
  H        4.2103780     0.6456890    -0.3991480
  H       -3.2411570    -0.9446250     0.2124840
units angstrom
no_reorient  #important for SAPT in psi4, default
symmetry c1  #important for SAPT in psi4, default
}

set PROPERTIES_ORIGIN ["COM"]
properties('MP2/aug-cc-pvtz', properties = ['dipole'])
--------------------------------------------------------------------------

    Molecular point group: c1
  Charge       = 0
  Multiplicity = 1
  Basis Set: AUG-CC-PVTZ
    Blend: AUG-CC-PVTZ
  Basis Set: (AUG-CC-PVTZ AUX)
    Blend: AUG-CC-PVTZ-JKFIT

    Orbital Energies [Eh]
    ---------------------

    Doubly Occupied:

       1A    -20.555410     2A    -11.283332     3A    -11.227999
       4A    -11.224205     5A    -11.220706     6A    -11.219435
       7A    -11.215511     8A     -1.354185     9A     -1.090894
      10A     -1.034152    11A     -0.971239    12A     -0.876691
      13A     -0.810974    14A     -0.753513    15A     -0.681338
      16A     -0.634157    17A     -0.624667    18A     -0.599115
      19A     -0.589245    20A     -0.543327    21A     -0.539207
      22A     -0.529893    23A     -0.517155    24A     -0.502420
      25A     -0.481026    26A     -0.464140    27A     -0.443825
      28A     -0.349543

  @DF-RHF Final Energy:  -309.14912941612772

   => Energetics <=

    Nuclear Repulsion Energy =            299.2654168705112170
    One-Electron Energy =               -1012.1544874928440549
    Two-Electron Energy =                 403.7399412062051169
    Total Energy =                       -309.1491294161277210
  Basis Set: (AUG-CC-PVTZ AUX)
    Blend: AUG-CC-PVTZ-RI
    Molecular point group: c1

    Geometry (in Angstrom), charge = 0, multiplicity = 1:

       Center              X                  Y                   Z               Mass
    ------------   -----------------  -----------------  -----------------  -----------------
         O           -2.341746758475    -1.115028947903    -0.118956114282    15.994914619570
         C           -1.516486758475    -0.025970947903     0.318957885718    12.000000000000
         C           -0.171055758475    -0.252742947903    -0.288653114282    12.000000000000
         C            2.334085241525    -0.444202947903    -0.198538114282    12.000000000000
         C            0.979108941525    -0.282700247903     0.394898785718    12.000000000000
         C           -2.111112758475     1.306777052097    -0.120105114282    12.000000000000
         C            3.212494241525     0.787393052097     0.028513885718    12.000000000000
         H           -1.421607758475    -0.040011947903     1.416381885718     1.007825032230
         H           -0.152262758475    -0.384629247903    -1.371171414282     1.007825032230
         H            2.234300241525    -0.638875947903    -1.272122114282     1.007825032230
         H            2.825386241525    -1.322960947903     0.238026885718     1.007825032230
         H            0.935980241525    -0.158347947903     1.489216885718     1.007825032230
         H           -1.477244758475     2.138278052097     0.198980885718     1.007825032230
         H           -2.201668758475     1.327084052097    -1.209337114282     1.007825032230
         H           -3.107686758475     1.451488052097     0.312913885718     1.007825032230
         H            3.329283241525     0.992516052097     1.096651885718     1.007825032230
         H            2.762811241525     1.669058052097    -0.435637114282     1.007825032230
         H            4.209574241525     0.645910052097    -0.397961114282     1.007825032230
         H           -3.241960758475    -0.944403947903     0.213670885718     1.007825032230

  Basis Set: AUG-CC-PVTZ
    Blend: AUG-CC-PVTZ
  Basis Set: (AUG-CC-PVTZ AUX)
    Blend: AUG-CC-PVTZ-JKFIT
	 Reference Energy          =    -309.1491294161277210 [Eh]
	 Singles Energy            =      -0.0000000000000000 [Eh]
	 Same-Spin Energy          =      -0.3166326779568844 [Eh]
	 Opposite-Spin Energy      =      -1.1024721475782404 [Eh]
	 Correlation Energy        =      -1.4191048255351248 [Eh]
	 Total Energy              =    -310.5682342416628217 [Eh]

	 ================> DF-SCS-MP2 Energies <==================
	-----------------------------------------------------------
	 SCS Same-Spin Scale       =       0.3333333333333333 [-]
	 SCS Opposite-Spin Scale   =       1.2000000000000000 [-]
	 SCS Same-Spin Energy      =      -0.1055442259856281 [Eh]
	 SCS Opposite-Spin Energy  =      -1.3229665770938885 [Eh]
	 SCS Correlation Energy    =      -1.4285108030795166 [Eh]
	 SCS Total Energy          =    -310.5776402192072396 [Eh]
	-----------------------------------------------------------

  Dipole Moment: [D]
     X:    -0.0866      Y:     1.3807      Z:     0.8094     Total:     1.6028

*** Psi4 exiting successfully. Buy a developer a beer!
