                               Psi4 1.3.2 release

  ==> Input File <==

--------------------------------------------------------------------------
#psi4
#
memory 32 gb

molecule  {
0 1
  O       -2.3409430    -1.1152500    -0.1201430
  C       -1.4575434    -0.0589806     0.2833048
  C       -0.1702520    -0.2529640    -0.2898400
  C        2.3348890    -0.4444240    -0.1997250
  C        0.9740050    -0.2811540     0.4036300
  C       -2.1103090     1.3065560    -0.1212920
  C        3.2132980     0.7871720     0.0273270
  H       -1.4208040    -0.0402330     1.4151950
  H       -0.1609320    -0.3839550    -1.3725900
  H        2.2351040    -0.6390970    -1.2733090
  H        2.8261900    -1.3231820     0.2368400
  H        0.9367840    -0.1585690     1.4880300
  H       -1.4764410     2.1380570     0.1977940
  H       -2.2008650     1.3268630    -1.2105240
  H       -3.1068830     1.4512670     0.3117270
  H        3.3300870     0.9922950     1.0954650
  H        2.7636150     1.6688370    -0.4368240
  H        4.2103780     0.6456890    -0.3991480
  H       -3.2561216    -0.9881192     0.1903802
units angstrom
no_reorient  #important for SAPT in psi4, default
symmetry c1  #important for SAPT in psi4, default
}

set PROPERTIES_ORIGIN ["COM"]
properties('MP2/aug-cc-pvtz', properties = ['dipole'])
--------------------------------------------------------------------------

    Molecular point group: c1
  Charge       = 0
  Multiplicity = 1
  Basis Set: AUG-CC-PVTZ
    Blend: AUG-CC-PVTZ
  Basis Set: (AUG-CC-PVTZ AUX)
    Blend: AUG-CC-PVTZ-JKFIT

    Orbital Energies [Eh]
    ---------------------

    Doubly Occupied:

       1A    -20.550886     2A    -11.283871     3A    -11.231600
       4A    -11.226230     5A    -11.218827     6A    -11.218560
       7A    -11.216536     8A     -1.349179     9A     -1.096898
      10A     -1.035592    11A     -0.966865    12A     -0.882657
      13A     -0.811962    14A     -0.755390    15A     -0.680887
      16A     -0.642346    17A     -0.621771    18A     -0.598131
      19A     -0.586359    20A     -0.544258    21A     -0.537736
      22A     -0.529224    23A     -0.518386    24A     -0.496470
      25A     -0.483461    26A     -0.472061    27A     -0.432286
      28A     -0.349726

  @DF-RHF Final Energy:  -309.14227310716785

   => Energetics <=

    Nuclear Repulsion Energy =            299.6708201215219560
    One-Electron Energy =               -1012.9498781219435841
    Two-Electron Energy =                 404.1367848932537754
    Total Energy =                       -309.1422731071678527
  Basis Set: (AUG-CC-PVTZ AUX)
    Blend: AUG-CC-PVTZ-RI
    Molecular point group: c1

    Geometry (in Angstrom), charge = 0, multiplicity = 1:

       Center              X                  Y                   Z               Mass
    ------------   -----------------  -----------------  -----------------  -----------------
         O           -2.347762954939    -1.110880753745    -0.115788053236    15.994914619570
         C           -1.464363354939    -0.054611353745     0.287659746764    12.000000000000
         C           -0.177071954939    -0.248594753745    -0.285485053236    12.000000000000
         C            2.328069045061    -0.440054753745    -0.195370053236    12.000000000000
         C            0.967185045061    -0.276784753745     0.407984946764    12.000000000000
         C           -2.117128954939     1.310925246255    -0.116937053236    12.000000000000
         C            3.206478045061     0.791541246255     0.031681946764    12.000000000000
         H           -1.427623954939    -0.035863753745     1.419549946764     1.007825032230
         H           -0.167751954939    -0.379585753745    -1.368235053236     1.007825032230
         H            2.228284045061    -0.634727753745    -1.268954053236     1.007825032230
         H            2.819370045061    -1.318812753745     0.241194946764     1.007825032230
         H            0.929964045061    -0.154199753745     1.492384946764     1.007825032230
         H           -1.483260954939     2.142426246255     0.202148946764     1.007825032230
         H           -2.207684954939     1.331232246255    -1.206169053236     1.007825032230
         H           -3.113702954939     1.455636246255     0.316081946764     1.007825032230
         H            3.323267045061     0.996664246255     1.099819946764     1.007825032230
         H            2.756795045061     1.673206246255    -0.432469053236     1.007825032230
         H            4.203558045061     0.650058246255    -0.394793053236     1.007825032230
         H           -3.262941554939    -0.983749953745     0.194735146764     1.007825032230

  Basis Set: AUG-CC-PVTZ
    Blend: AUG-CC-PVTZ
  Basis Set: (AUG-CC-PVTZ AUX)
    Blend: AUG-CC-PVTZ-JKFIT
	 Reference Energy          =    -309.1422731071678527 [Eh]
	 Singles Energy            =      -0.0000000000000000 [Eh]
	 Same-Spin Energy          =      -0.3169508468969416 [Eh]
	 Opposite-Spin Energy      =      -1.1026667770231275 [Eh]
	 Correlation Energy        =      -1.4196176239200691 [Eh]
	 Total Energy              =    -310.5618907310879422 [Eh]

	 ================> DF-SCS-MP2 Energies <==================
	-----------------------------------------------------------
	 SCS Same-Spin Scale       =       0.3333333333333333 [-]
	 SCS Opposite-Spin Scale   =       1.2000000000000000 [-]
	 SCS Same-Spin Energy      =      -0.1056502822989805 [Eh]
	 SCS Opposite-Spin Energy  =      -1.3232001324277529 [Eh]
	 SCS Correlation Energy    =      -1.4288504147267336 [Eh]
	 SCS Total Energy          =    -310.5711235218946058 [Eh]
	-----------------------------------------------------------

  Dipole Moment: [D]
     X:     0.0394      Y:     1.2663      Z:     0.7766     Total:     1.4860

*** Psi4 exiting successfully. Buy a developer a beer!
