                               Psi4 1.3.2 release

  ==> Input File <==

--------------------------------------------------------------------------
#psi4
#
memory 32 gb

molecule  {
0 1
  O       -2.3409430    -1.1152500    -0.1201430
  C       -1.5156830    -0.0261920     0.3177710
  C       -0.1702520    -0.2529640    -0.2898400
  C        2.3348890    -0.4444240    -0.1997250
  C        0.9740050    -0.2811540     0.4036300
  C       -2.1103090     1.3065560    -0.1212920
  C        3.2132980     0.7871720     0.0273270
  H       -1.4208040    -0.0402330     1.4151950
  H       -0.1617865    -0.3719450    -1.2733175
  H        2.2351040    -0.6390970    -1.2733090
  H        2.8261900    -1.3231820     0.2368400
  H        0.9367840    -0.1585690     1.4880300
  H       -1.4764410     2.1380570     0.1977940
  H       -2.2008650     1.3268630    -1.2105240
  H       -3.1068830     1.4512670     0.3117270
  H        3.3300870     0.9922950     1.0954650
  H        2.7636150     1.6688370    -0.4368240
  H        4.2103780     0.6456890    -0.3991480
  H       -3.2411570    -0.9446250     0.2124840
units angstrom
no_reorient  #important for SAPT in psi4, default
symmetry c1  #important for SAPT in psi4, default
}

set PROPERTIES_ORIGIN ["COM"]
properties('MP2/aug-cc-pvtz', properties = ['dipole'])
--------------------------------------------------------------------------

    Molecular point group: c1
  Charge       = 0
  Multiplicity = 1
  Basis Set: AUG-CC-PVTZ
    Blend: AUG-CC-PVTZ
  Basis Set: (AUG-CC-PVTZ AUX)
    Blend: AUG-CC-PVTZ-JKFIT

    Orbital Energies [Eh]
    ---------------------

    Doubly Occupied:

       1A    -20.555139     2A    -11.281615     3A    -11.226957
       4A    -11.224506     5A    -11.219215     6A    -11.215302
       7A    -11.208874     8A     -1.353935     9A     -1.092033
      10A     -1.034028    11A     -0.972570    12A     -0.876682
      13A     -0.810834    14A     -0.768553    15A     -0.681476
      16A     -0.633522    17A     -0.626954    18A     -0.599081
      19A     -0.594373    20A     -0.543399    21A     -0.542608
      22A     -0.534166    23A     -0.516498    24A     -0.501811
      25A     -0.481970    26A     -0.464075    27A     -0.443538
      28A     -0.349266

  @DF-RHF Final Energy:  -309.14356720788112

   => Energetics <=

    Nuclear Repulsion Energy =            299.7162134387994570
    One-Electron Energy =               -1013.0136009322443442
    Two-Electron Energy =                 404.1538202855637110
    Total Energy =                       -309.1435672078811194
  Basis Set: (AUG-CC-PVTZ AUX)
    Blend: AUG-CC-PVTZ-RI
    Molecular point group: c1

    Geometry (in Angstrom), charge = 0, multiplicity = 1:

       Center              X                  Y                   Z               Mass
    ------------   -----------------  -----------------  -----------------  -----------------
         O           -2.340934472776    -1.115370783146    -0.121142502416    15.994914619570
         C           -1.515674472776    -0.026312783146     0.316771497584    12.000000000000
         C           -0.170243472776    -0.253084783146    -0.290839502416    12.000000000000
         C            2.334897527224    -0.444544783146    -0.200724502416    12.000000000000
         C            0.974013527224    -0.281274783146     0.402630497584    12.000000000000
         C           -2.110300472776     1.306435216854    -0.122291502416    12.000000000000
         C            3.213306527224     0.787051216854     0.026327497584    12.000000000000
         H           -1.420795472776    -0.040353783146     1.414195497584     1.007825032230
         H           -0.161777972776    -0.372065783146    -1.274317002416     1.007825032230
         H            2.235112527224    -0.639217783146    -1.274308502416     1.007825032230
         H            2.826198527224    -1.323302783146     0.235840497584     1.007825032230
         H            0.936792527224    -0.158689783146     1.487030497584     1.007825032230
         H           -1.476432472776     2.137936216854     0.196794497584     1.007825032230
         H           -2.200856472776     1.326742216854    -1.211523502416     1.007825032230
         H           -3.106874472776     1.451146216854     0.310727497584     1.007825032230
         H            3.330095527224     0.992174216854     1.094465497584     1.007825032230
         H            2.763623527224     1.668716216854    -0.437823502416     1.007825032230
         H            4.210386527224     0.645568216854    -0.400147502416     1.007825032230
         H           -3.241148472776    -0.944745783146     0.211484497584     1.007825032230

  Basis Set: AUG-CC-PVTZ
    Blend: AUG-CC-PVTZ
  Basis Set: (AUG-CC-PVTZ AUX)
    Blend: AUG-CC-PVTZ-JKFIT
	 Reference Energy          =    -309.1435672078811194 [Eh]
	 Singles Energy            =      -0.0000000000000000 [Eh]
	 Same-Spin Energy          =      -0.3163485021470843 [Eh]
	 Opposite-Spin Energy      =      -1.1018954815339690 [Eh]
	 Correlation Energy        =      -1.4182439836810532 [Eh]
	 Total Energy              =    -310.5618111915621853 [Eh]

	 ================> DF-SCS-MP2 Energies <==================
	-----------------------------------------------------------
	 SCS Same-Spin Scale       =       0.3333333333333333 [-]
	 SCS Opposite-Spin Scale   =       1.2000000000000000 [-]
	 SCS Same-Spin Energy      =      -0.1054495007156948 [Eh]
	 SCS Opposite-Spin Energy  =      -1.3222745778407627 [Eh]
	 SCS Correlation Energy    =      -1.4277240785564576 [Eh]
	 SCS Total Energy          =    -310.5712912864375994 [Eh]
	-----------------------------------------------------------

  Dipole Moment: [D]
     X:    -0.0828      Y:     1.3769      Z:     0.7837     Total:     1.5865

*** Psi4 exiting successfully. Buy a developer a beer!
