                               Psi4 1.3.2 release

  ==> Input File <==

--------------------------------------------------------------------------
#psi4
#
memory 32 gb

molecule  {
0 1
  O       -2.3409430    -1.1152500    -0.1201430
  C       -1.5156830    -0.0261920     0.3177710
  C       -0.1702520    -0.2529640    -0.2898400
  C        2.3454345    -0.4425350    -0.1758844
  C        0.9740050    -0.2811540     0.4036300
  C       -2.1103090     1.3065560    -0.1212920
  C        3.2132980     0.7871720     0.0273270
  H       -1.4208040    -0.0402330     1.4151950
  H       -0.1609320    -0.3839550    -1.3725900
  H        2.2351040    -0.6390970    -1.2733090
  H        2.8261900    -1.3231820     0.2368400
  H        0.9557884    -0.1598474     1.4886594
  H       -1.4764410     2.1380570     0.1977940
  H       -2.2008650     1.3268630    -1.2105240
  H       -3.1068830     1.4512670     0.3117270
  H        3.3300870     0.9922950     1.0954650
  H        2.7636150     1.6688370    -0.4368240
  H        4.2103780     0.6456890    -0.3991480
  H       -3.2411570    -0.9446250     0.2124840
units angstrom
no_reorient  #important for SAPT in psi4, default
symmetry c1  #important for SAPT in psi4, default
}

set PROPERTIES_ORIGIN ["COM"]
properties('MP2/aug-cc-pvtz', properties = ['dipole'])
--------------------------------------------------------------------------

    Molecular point group: c1
  Charge       = 0
  Multiplicity = 1
  Basis Set: AUG-CC-PVTZ
    Blend: AUG-CC-PVTZ
  Basis Set: (AUG-CC-PVTZ AUX)
    Blend: AUG-CC-PVTZ-JKFIT

    Orbital Energies [Eh]
    ---------------------

    Doubly Occupied:

       1A    -20.555430     2A    -11.283072     3A    -11.227920
       4A    -11.224660     5A    -11.221766     6A    -11.219447
       7A    -11.214952     8A     -1.354219     9A     -1.090245
      10A     -1.034634    11A     -0.971867    12A     -0.876229
      13A     -0.810082    14A     -0.754441    15A     -0.681676
      16A     -0.634438    17A     -0.624651    18A     -0.599878
      19A     -0.588028    20A     -0.543559    21A     -0.539749
      22A     -0.533291    23A     -0.519292    24A     -0.502512
      25A     -0.475363    26A     -0.462065    27A     -0.443785
      28A     -0.350847

  @DF-RHF Final Energy:  -309.14841080828654

   => Energetics <=

    Nuclear Repulsion Energy =            299.2141925320553923
    One-Electron Energy =               -1012.0490066569152532
    Two-Electron Energy =                 403.6864033165732621
    Total Energy =                       -309.1484108082865419
  Basis Set: (AUG-CC-PVTZ AUX)
    Blend: AUG-CC-PVTZ-RI
    Molecular point group: c1

    Geometry (in Angstrom), charge = 0, multiplicity = 1:

       Center              X                  Y                   Z               Mass
    ------------   -----------------  -----------------  -----------------  -----------------
         O           -2.342398775221    -1.115463457016    -0.123007568103    15.994914619570
         C           -1.517138775221    -0.026405457016     0.314906431897    12.000000000000
         C           -0.171707775221    -0.253177457016    -0.292704568103    12.000000000000
         C            2.343978724779    -0.442748457016    -0.178748968103    12.000000000000
         C            0.972549224779    -0.281367457016     0.400765431897    12.000000000000
         C           -2.111764775221     1.306342542984    -0.124156568103    12.000000000000
         C            3.211842224779     0.786958542984     0.024462431897    12.000000000000
         H           -1.422259775221    -0.040446457016     1.412330431897     1.007825032230
         H           -0.162387775221    -0.384168457016    -1.375454568103     1.007825032230
         H            2.233648224779    -0.639310457016    -1.276173568103     1.007825032230
         H            2.824734224779    -1.323395457016     0.233975431897     1.007825032230
         H            0.954332624779    -0.160060857016     1.485794831897     1.007825032230
         H           -1.477896775221     2.137843542984     0.194929431897     1.007825032230
         H           -2.202320775221     1.326649542984    -1.213388568103     1.007825032230
         H           -3.108338775221     1.451053542984     0.308862431897     1.007825032230
         H            3.328631224779     0.992081542984     1.092600431897     1.007825032230
         H            2.762159224779     1.668623542984    -0.439688568103     1.007825032230
         H            4.208922224779     0.645475542984    -0.402012568103     1.007825032230
         H           -3.242612775221    -0.944838457016     0.209619431897     1.007825032230

  Basis Set: AUG-CC-PVTZ
    Blend: AUG-CC-PVTZ
  Basis Set: (AUG-CC-PVTZ AUX)
    Blend: AUG-CC-PVTZ-JKFIT
	 Reference Energy          =    -309.1484108082865419 [Eh]
	 Singles Energy            =      -0.0000000000000000 [Eh]
	 Same-Spin Energy          =      -0.3165860477931737 [Eh]
	 Opposite-Spin Energy      =      -1.1025059446988028 [Eh]
	 Correlation Energy        =      -1.4190919924919765 [Eh]
	 Total Energy              =    -310.5675028007785272 [Eh]

	 ================> DF-SCS-MP2 Energies <==================
	-----------------------------------------------------------
	 SCS Same-Spin Scale       =       0.3333333333333333 [-]
	 SCS Opposite-Spin Scale   =       1.2000000000000000 [-]
	 SCS Same-Spin Energy      =      -0.1055286825977246 [Eh]
	 SCS Opposite-Spin Energy  =      -1.3230071336385634 [Eh]
	 SCS Correlation Energy    =      -1.4285358162362880 [Eh]
	 SCS Total Energy          =    -310.5769466245228045 [Eh]
	-----------------------------------------------------------

  Dipole Moment: [D]
     X:    -0.0973      Y:     1.3823      Z:     0.8272     Total:     1.6138

*** Psi4 exiting successfully. Buy a developer a beer!
