                               Psi4 1.3.2 release

  ==> Input File <==

--------------------------------------------------------------------------
#psi4
#
memory 32 gb

molecule  {
0 1
  O       -2.3409430    -1.1152500    -0.1201430
  C       -1.5156830    -0.0261920     0.3177710
  C       -0.1702520    -0.2529640    -0.2898400
  C        2.3348890    -0.4444240    -0.1997250
  C        0.9857328    -0.2846862     0.3837417
  C       -2.1103090     1.3065560    -0.1212920
  C        3.2132980     0.7871720     0.0273270
  H       -1.4208040    -0.0402330     1.4151950
  H       -0.1419875    -0.3857355    -1.3720442
  H        2.2351040    -0.6390970    -1.2733090
  H        2.8261900    -1.3231820     0.2368400
  H        0.9367840    -0.1585690     1.4880300
  H       -1.4764410     2.1380570     0.1977940
  H       -2.2008650     1.3268630    -1.2105240
  H       -3.1068830     1.4512670     0.3117270
  H        3.3300870     0.9922950     1.0954650
  H        2.7636150     1.6688370    -0.4368240
  H        4.2103780     0.6456890    -0.3991480
  H       -3.2411570    -0.9446250     0.2124840
units angstrom
no_reorient  #important for SAPT in psi4, default
symmetry c1  #important for SAPT in psi4, default
}

set PROPERTIES_ORIGIN ["COM"]
properties('MP2/aug-cc-pvtz', properties = ['dipole'])
--------------------------------------------------------------------------

    Molecular point group: c1
  Charge       = 0
  Multiplicity = 1
  Basis Set: AUG-CC-PVTZ
    Blend: AUG-CC-PVTZ
  Basis Set: (AUG-CC-PVTZ AUX)
    Blend: AUG-CC-PVTZ-JKFIT

    Orbital Energies [Eh]
    ---------------------

    Doubly Occupied:

       1A    -20.555530     2A    -11.283841     3A    -11.228348
       4A    -11.223948     5A    -11.220563     6A    -11.219549
       7A    -11.215783     8A     -1.354300     9A     -1.091823
      10A     -1.034717    11A     -0.971337    12A     -0.877535
      13A     -0.811573    14A     -0.751992    15A     -0.681107
      16A     -0.634807    17A     -0.624706    18A     -0.599992
      19A     -0.589204    20A     -0.543576    21A     -0.538969
      22A     -0.528385    23A     -0.517834    24A     -0.502982
      25A     -0.480075    26A     -0.465333    27A     -0.443948
      28A     -0.349277

  @DF-RHF Final Energy:  -309.14847213698363

   => Energetics <=

    Nuclear Repulsion Energy =            299.3192632775748052
    One-Electron Energy =               -1012.2534032463671565
    Two-Electron Energy =                 403.7856678318087233
    Total Energy =                       -309.1484721369836279
  Basis Set: (AUG-CC-PVTZ AUX)
    Blend: AUG-CC-PVTZ-RI
    Molecular point group: c1

    Geometry (in Angstrom), charge = 0, multiplicity = 1:

       Center              X                  Y                   Z               Mass
    ------------   -----------------  -----------------  -----------------  -----------------
         O           -2.342539922174    -1.114808434485    -0.117763914713    15.994914619570
         C           -1.517279922174    -0.025750434485     0.320150085287    12.000000000000
         C           -0.171848922174    -0.252522434485    -0.287460914713    12.000000000000
         C            2.333292077826    -0.443982434485    -0.197345914713    12.000000000000
         C            0.984135877826    -0.284244634485     0.386120785287    12.000000000000
         C           -2.111905922174     1.306997565515    -0.118912914713    12.000000000000
         C            3.211701077826     0.787613565515     0.029706085287    12.000000000000
         H           -1.422400922174    -0.039791434485     1.417574085287     1.007825032230
         H           -0.143584422174    -0.385293934485    -1.369665114713     1.007825032230
         H            2.233507077826    -0.638655434485    -1.270929914713     1.007825032230
         H            2.824593077826    -1.322740434485     0.239219085287     1.007825032230
         H            0.935187077826    -0.158127434485     1.490409085287     1.007825032230
         H           -1.478037922174     2.138498565515     0.200173085287     1.007825032230
         H           -2.202461922174     1.327304565515    -1.208144914713     1.007825032230
         H           -3.108479922174     1.451708565515     0.314106085287     1.007825032230
         H            3.328490077826     0.992736565515     1.097844085287     1.007825032230
         H            2.762018077826     1.669278565515    -0.434444914713     1.007825032230
         H            4.208781077826     0.646130565515    -0.396768914713     1.007825032230
         H           -3.242753922174    -0.944183434485     0.214863085287     1.007825032230

  Basis Set: AUG-CC-PVTZ
    Blend: AUG-CC-PVTZ
  Basis Set: (AUG-CC-PVTZ AUX)
    Blend: AUG-CC-PVTZ-JKFIT
	 Reference Energy          =    -309.1484721369836279 [Eh]
	 Singles Energy            =      -0.0000000000000000 [Eh]
	 Same-Spin Energy          =      -0.3167446456819774 [Eh]
	 Opposite-Spin Energy      =      -1.1025970955721052 [Eh]
	 Correlation Energy        =      -1.4193417412540825 [Eh]
	 Total Energy              =    -310.5678138782377005 [Eh]

	 ================> DF-SCS-MP2 Energies <==================
	-----------------------------------------------------------
	 SCS Same-Spin Scale       =       0.3333333333333333 [-]
	 SCS Opposite-Spin Scale   =       1.2000000000000000 [-]
	 SCS Same-Spin Energy      =      -0.1055815485606591 [Eh]
	 SCS Opposite-Spin Energy  =      -1.3231165146865262 [Eh]
	 SCS Correlation Energy    =      -1.4286980632471853 [Eh]
	 SCS Total Energy          =    -310.5771702002307961 [Eh]
	-----------------------------------------------------------

  Dipole Moment: [D]
     X:    -0.0780      Y:     1.3821      Z:     0.8041     Total:     1.6009

*** Psi4 exiting successfully. Buy a developer a beer!
