                               Psi4 1.3.2 release

  ==> Input File <==

--------------------------------------------------------------------------
#psi4
#
memory 32 gb

molecule  {
0 1
  O       -2.3409430    -1.1152500    -0.1201430
  C       -1.5156830    -0.0261920     0.3177710
  C       -0.1934064    -0.2464499    -0.2497960
  C        2.3348890    -0.4444240    -0.1997250
  C        0.9740050    -0.2811540     0.4036300
  C       -2.1103090     1.3065560    -0.1212920
  C        3.2132980     0.7871720     0.0273270
  H       -1.4208040    -0.0402330     1.4151950
  H       -0.1609320    -0.3839550    -1.3725900
  H        2.2351040    -0.6390970    -1.2733090
  H        2.8261900    -1.3231820     0.2368400
  H        0.8988765    -0.1553665     1.4856970
  H       -1.4764410     2.1380570     0.1977940
  H       -2.2008650     1.3268630    -1.2105240
  H       -3.1068830     1.4512670     0.3117270
  H        3.3300870     0.9922950     1.0954650
  H        2.7636150     1.6688370    -0.4368240
  H        4.2103780     0.6456890    -0.3991480
  H       -3.2411570    -0.9446250     0.2124840
units angstrom
no_reorient  #important for SAPT in psi4, default
symmetry c1  #important for SAPT in psi4, default
}

set PROPERTIES_ORIGIN ["COM"]
properties('MP2/aug-cc-pvtz', properties = ['dipole'])
--------------------------------------------------------------------------

    Molecular point group: c1
  Charge       = 0
  Multiplicity = 1
  Basis Set: AUG-CC-PVTZ
    Blend: AUG-CC-PVTZ
  Basis Set: (AUG-CC-PVTZ AUX)
    Blend: AUG-CC-PVTZ-JKFIT

    Orbital Energies [Eh]
    ---------------------

    Doubly Occupied:

       1A    -20.555987     2A    -11.281474     3A    -11.227972
       4A    -11.226712     5A    -11.221899     6A    -11.220053
       7A    -11.215988     8A     -1.355307     9A     -1.092193
      10A     -1.037340    11A     -0.971804    12A     -0.879677
      13A     -0.813481    14A     -0.749523    15A     -0.681566
      16A     -0.636906    17A     -0.625228    18A     -0.600434
      19A     -0.587167    20A     -0.544882    21A     -0.539008
      22A     -0.523675    23A     -0.518008    24A     -0.502498
      25A     -0.482043    26A     -0.467165    27A     -0.443896
      28A     -0.349600

  @DF-RHF Final Energy:  -309.14596745060811

   => Energetics <=

    Nuclear Repulsion Energy =            299.5956865751492728
    One-Electron Energy =               -1012.7803320865233445
    Two-Electron Energy =                 404.0386780607660171
    Total Energy =                       -309.1459674506081114
  Basis Set: (AUG-CC-PVTZ AUX)
    Blend: AUG-CC-PVTZ-RI
    Molecular point group: c1

    Geometry (in Angstrom), charge = 0, multiplicity = 1:

       Center              X                  Y                   Z               Mass
    ------------   -----------------  -----------------  -----------------  -----------------
         O           -2.337785312294    -1.116063096079    -0.124920421394    15.994914619570
         C           -1.512525312294    -0.027005096079     0.312993578606    12.000000000000
         C           -0.190248712294    -0.247262996079    -0.254573421394    12.000000000000
         C            2.338046687706    -0.445237096079    -0.204502421394    12.000000000000
         C            0.977162687706    -0.281967096079     0.398852578606    12.000000000000
         C           -2.107151312294     1.305742903921    -0.126069421394    12.000000000000
         C            3.216455687706     0.786358903921     0.022549578606    12.000000000000
         H           -1.417646312294    -0.041046096079     1.410417578606     1.007825032230
         H           -0.157774312294    -0.384768096079    -1.377367421394     1.007825032230
         H            2.238261687706    -0.639910096079    -1.278086421394     1.007825032230
         H            2.829347687706    -1.323995096079     0.232062578606     1.007825032230
         H            0.902034187706    -0.156179596079     1.480919578606     1.007825032230
         H           -1.473283312294     2.137243903921     0.193016578606     1.007825032230
         H           -2.197707312294     1.326049903921    -1.215301421394     1.007825032230
         H           -3.103725312294     1.450453903921     0.306949578606     1.007825032230
         H            3.333244687706     0.991481903921     1.090687578606     1.007825032230
         H            2.766772687706     1.668023903921    -0.441601421394     1.007825032230
         H            4.213535687706     0.644875903921    -0.403925421394     1.007825032230
         H           -3.237999312294    -0.945438096079     0.207706578606     1.007825032230

  Basis Set: AUG-CC-PVTZ
    Blend: AUG-CC-PVTZ
  Basis Set: (AUG-CC-PVTZ AUX)
    Blend: AUG-CC-PVTZ-JKFIT
	 Reference Energy          =    -309.1459674506081114 [Eh]
	 Singles Energy            =      -0.0000000000000000 [Eh]
	 Same-Spin Energy          =      -0.3170513710919453 [Eh]
	 Opposite-Spin Energy      =      -1.1029839769939054 [Eh]
	 Correlation Energy        =      -1.4200353480858507 [Eh]
	 Total Energy              =    -310.5660027986939440 [Eh]

	 ================> DF-SCS-MP2 Energies <==================
	-----------------------------------------------------------
	 SCS Same-Spin Scale       =       0.3333333333333333 [-]
	 SCS Opposite-Spin Scale   =       1.2000000000000000 [-]
	 SCS Same-Spin Energy      =      -0.1056837903639817 [Eh]
	 SCS Opposite-Spin Energy  =      -1.3235807723926865 [Eh]
	 SCS Correlation Energy    =      -1.4292645627566682 [Eh]
	 SCS Total Energy          =    -310.5752320133647686 [Eh]
	-----------------------------------------------------------

  Dipole Moment: [D]
     X:    -0.0829      Y:     1.3921      Z:     0.8231     Total:     1.6193

*** Psi4 exiting successfully. Buy a developer a beer!
