                               Psi4 1.3.2 release

  ==> Input File <==

--------------------------------------------------------------------------
#psi4
#
memory 32 gb

molecule  {
0 1
  O       -2.3409430    -1.1152500    -0.1201430
  C       -1.5156830    -0.0261920     0.3177710
  C       -0.1702520    -0.2529640    -0.2898400
  C        2.3294606    -0.4453499    -0.2115768
  C        0.9740050    -0.2811540     0.4036300
  C       -2.1103090     1.3065560    -0.1212920
  C        3.2132980     0.7871720     0.0273270
  H       -1.4208040    -0.0402330     1.4151950
  H       -0.1609320    -0.3839550    -1.3725900
  H        2.2351040    -0.6390970    -1.2733090
  H        2.8261900    -1.3231820     0.2368400
  H        0.9272857    -0.1579438     1.4875914
  H       -1.4764410     2.1380570     0.1977940
  H       -2.2008650     1.3268630    -1.2105240
  H       -3.1068830     1.4512670     0.3117270
  H        3.3300870     0.9922950     1.0954650
  H        2.7636150     1.6688370    -0.4368240
  H        4.2103780     0.6456890    -0.3991480
  H       -3.2411570    -0.9446250     0.2124840
units angstrom
no_reorient  #important for SAPT in psi4, default
symmetry c1  #important for SAPT in psi4, default
}

set PROPERTIES_ORIGIN ["COM"]
properties('MP2/aug-cc-pvtz', properties = ['dipole'])
--------------------------------------------------------------------------

    Molecular point group: c1
  Charge       = 0
  Multiplicity = 1
  Basis Set: AUG-CC-PVTZ
    Blend: AUG-CC-PVTZ
  Basis Set: (AUG-CC-PVTZ AUX)
    Blend: AUG-CC-PVTZ-JKFIT

    Orbital Energies [Eh]
    ---------------------

    Doubly Occupied:

       1A    -20.555234     2A    -11.282716     3A    -11.227600
       4A    -11.224451     5A    -11.220449     6A    -11.219270
       7A    -11.215432     8A     -1.354010     9A     -1.089962
      10A     -1.033078    11A     -0.970803    12A     -0.875745
      13A     -0.810669    14A     -0.755393    15A     -0.681612
      16A     -0.633074    17A     -0.624713    18A     -0.597437
      19A     -0.589932    20A     -0.542936    21A     -0.539831
      22A     -0.530310    23A     -0.515026    24A     -0.501603
      25A     -0.485117    26A     -0.462663    27A     -0.443660
      28A     -0.349301

  @DF-RHF Final Energy:  -309.14931298038601

   => Energetics <=

    Nuclear Repulsion Energy =            299.2126514343765962
    One-Electron Energy =               -1012.0598749964506169
    Two-Electron Energy =                 403.6979105816880633
    Total Energy =                       -309.1493129803860143
  Basis Set: (AUG-CC-PVTZ AUX)
    Blend: AUG-CC-PVTZ-RI
    Molecular point group: c1

    Geometry (in Angstrom), charge = 0, multiplicity = 1:

       Center              X                  Y                   Z               Mass
    ------------   -----------------  -----------------  -----------------  -----------------
         O           -2.340196605733    -1.115145136690    -0.118717526733    15.994914619570
         C           -1.514936605733    -0.026087136690     0.319196473267    12.000000000000
         C           -0.169505605733    -0.252859136690    -0.288414526733    12.000000000000
         C            2.330206994267    -0.445245036690    -0.210151326733    12.000000000000
         C            0.974751394267    -0.281049136690     0.405055473267    12.000000000000
         C           -2.109562605733     1.306660863310    -0.119866526733    12.000000000000
         C            3.214044394267     0.787276863310     0.028752473267    12.000000000000
         H           -1.420057605733    -0.040128136690     1.416620473267     1.007825032230
         H           -0.160185605733    -0.383850136690    -1.371164526733     1.007825032230
         H            2.235850394267    -0.638992136690    -1.271883526733     1.007825032230
         H            2.826936394267    -1.323077136690     0.238265473267     1.007825032230
         H            0.928032094267    -0.157838936690     1.489016873267     1.007825032230
         H           -1.475694605733     2.138161863310     0.199219473267     1.007825032230
         H           -2.200118605733     1.326967863310    -1.209098526733     1.007825032230
         H           -3.106136605733     1.451371863310     0.313152473267     1.007825032230
         H            3.330833394267     0.992399863310     1.096890473267     1.007825032230
         H            2.764361394267     1.668941863310    -0.435398526733     1.007825032230
         H            4.211124394267     0.645793863310    -0.397722526733     1.007825032230
         H           -3.240410605733    -0.944520136690     0.213909473267     1.007825032230

  Basis Set: AUG-CC-PVTZ
    Blend: AUG-CC-PVTZ
  Basis Set: (AUG-CC-PVTZ AUX)
    Blend: AUG-CC-PVTZ-JKFIT
	 Reference Energy          =    -309.1493129803860143 [Eh]
	 Singles Energy            =      -0.0000000000000000 [Eh]
	 Same-Spin Energy          =      -0.3165180410034734 [Eh]
	 Opposite-Spin Energy      =      -1.1023388191580872 [Eh]
	 Correlation Energy        =      -1.4188568601615605 [Eh]
	 Total Energy              =    -310.5681698405475686 [Eh]

	 ================> DF-SCS-MP2 Energies <==================
	-----------------------------------------------------------
	 SCS Same-Spin Scale       =       0.3333333333333333 [-]
	 SCS Opposite-Spin Scale   =       1.2000000000000000 [-]
	 SCS Same-Spin Energy      =      -0.1055060136678244 [Eh]
	 SCS Opposite-Spin Energy  =      -1.3228065829897047 [Eh]
	 SCS Correlation Energy    =      -1.4283125966575292 [Eh]
	 SCS Total Energy          =    -310.5776255770435341 [Eh]
	-----------------------------------------------------------

  Dipole Moment: [D]
     X:    -0.0947      Y:     1.3785      Z:     0.8082     Total:     1.6007

*** Psi4 exiting successfully. Buy a developer a beer!
