                               Psi4 1.3.2 release

  ==> Input File <==

--------------------------------------------------------------------------
#psi4
#
memory 32 gb

molecule  {
0 1
  O       -2.3409430    -1.1152500    -0.1201430
  C       -1.5156830    -0.0261920     0.3177710
  C       -0.1702520    -0.2529640    -0.2898400
  C        2.3348890    -0.4444240    -0.1997250
  C        0.9740050    -0.2811540     0.4036300
  C       -2.1103090     1.3065560    -0.1212920
  C        3.2132980     0.7871720     0.0273270
  H       -1.4208040    -0.0402330     1.4151950
  H       -0.1609320    -0.3839550    -1.3725900
  H        2.2351040    -0.6390970    -1.2733090
  H        2.8261900    -1.3231820     0.2368400
  H        0.9436014    -0.1810217     1.2894113
  H       -1.4764410     2.1380570     0.1977940
  H       -2.2008650     1.3268630    -1.2105240
  H       -3.1068830     1.4512670     0.3117270
  H        3.3300870     0.9922950     1.0954650
  H        2.7636150     1.6688370    -0.4368240
  H        4.2103780     0.6456890    -0.3991480
  H       -3.2411570    -0.9446250     0.2124840
units angstrom
no_reorient  #important for SAPT in psi4, default
symmetry c1  #important for SAPT in psi4, default
}

set PROPERTIES_ORIGIN ["COM"]
properties('MP2/aug-cc-pvtz', properties = ['dipole'])
--------------------------------------------------------------------------

    Molecular point group: c1
  Charge       = 0
  Multiplicity = 1
  Basis Set: AUG-CC-PVTZ
    Blend: AUG-CC-PVTZ
  Basis Set: (AUG-CC-PVTZ AUX)
    Blend: AUG-CC-PVTZ-JKFIT

    Orbital Energies [Eh]
    ---------------------

    Doubly Occupied:

       1A    -20.555450     2A    -11.282968     3A    -11.222253
       4A    -11.219799     5A    -11.219472     6A    -11.214922
       7A    -11.202611     8A     -1.354181     9A     -1.096589
      10A     -1.033340    11A     -0.974600    12A     -0.879194
      13A     -0.814343    14A     -0.780458    15A     -0.689645
      16A     -0.636214    17A     -0.624900    18A     -0.597572
      19A     -0.592404    20A     -0.548719    21A     -0.542987
      22A     -0.533824    23A     -0.515814    24A     -0.501741
      25A     -0.485179    26A     -0.463615    27A     -0.443875
      28A     -0.348782

  @DF-RHF Final Energy:  -309.11544958772561

   => Energetics <=

    Nuclear Repulsion Energy =            300.2567395905058447
    One-Electron Energy =               -1013.9934829964744267
    Two-Electron Energy =                 404.6212938182429752
    Total Energy =                       -309.1154495877256068
  Basis Set: (AUG-CC-PVTZ AUX)
    Blend: AUG-CC-PVTZ-RI
    Molecular point group: c1

    Geometry (in Angstrom), charge = 0, multiplicity = 1:

       Center              X                  Y                   Z               Mass
    ------------   -----------------  -----------------  -----------------  -----------------
         O           -2.341011723494    -1.115023767631    -0.118142944391    15.994914619570
         C           -1.515751723494    -0.025965767631     0.319771055609    12.000000000000
         C           -0.170320723494    -0.252737767631    -0.287839944391    12.000000000000
         C            2.334820276506    -0.444197767631    -0.197724944391    12.000000000000
         C            0.973936276506    -0.280927767631     0.405630055609    12.000000000000
         C           -2.110377723494     1.306782232369    -0.119291944391    12.000000000000
         C            3.213229276506     0.787398232369     0.029327055609    12.000000000000
         H           -1.420872723494    -0.040006767631     1.417195055609     1.007825032230
         H           -0.161000723494    -0.383728767631    -1.370589944391     1.007825032230
         H            2.235035276506    -0.638870767631    -1.271308944391     1.007825032230
         H            2.826121276506    -1.322955767631     0.238840055609     1.007825032230
         H            0.943532676506    -0.180795467631     1.291411355609     1.007825032230
         H           -1.476509723494     2.138283232369     0.199794055609     1.007825032230
         H           -2.200933723494     1.327089232369    -1.208523944391     1.007825032230
         H           -3.106951723494     1.451493232369     0.313727055609     1.007825032230
         H            3.330018276506     0.992521232369     1.097465055609     1.007825032230
         H            2.763546276506     1.669063232369    -0.434823944391     1.007825032230
         H            4.210309276506     0.645915232369    -0.397147944391     1.007825032230
         H           -3.241225723494    -0.944398767631     0.214484055609     1.007825032230

  Basis Set: AUG-CC-PVTZ
    Blend: AUG-CC-PVTZ
  Basis Set: (AUG-CC-PVTZ AUX)
    Blend: AUG-CC-PVTZ-JKFIT
	 Reference Energy          =    -309.1154495877256068 [Eh]
	 Singles Energy            =      -0.0000000000000000 [Eh]
	 Same-Spin Energy          =      -0.3163301364332378 [Eh]
	 Opposite-Spin Energy      =      -1.1018272038984773 [Eh]
	 Correlation Energy        =      -1.4181573403317151 [Eh]
	 Total Energy              =    -310.5336069280573383 [Eh]

	 ================> DF-SCS-MP2 Energies <==================
	-----------------------------------------------------------
	 SCS Same-Spin Scale       =       0.3333333333333333 [-]
	 SCS Opposite-Spin Scale   =       1.2000000000000000 [-]
	 SCS Same-Spin Energy      =      -0.1054433788110793 [Eh]
	 SCS Opposite-Spin Energy  =      -1.3221926446781727 [Eh]
	 SCS Correlation Energy    =      -1.4276360234892520 [Eh]
	 SCS Total Energy          =    -310.5430856112148490 [Eh]
	-----------------------------------------------------------

  Dipole Moment: [D]
     X:    -0.1256      Y:     1.3881      Z:     0.8872     Total:     1.6522

*** Psi4 exiting successfully. Buy a developer a beer!
