                               Psi4 1.3.2 release

  ==> Input File <==

--------------------------------------------------------------------------
#psi4
#
memory 32 gb

molecule  {
0 1
  O       -2.3409430    -1.1152500    -0.1201430
  C       -1.5156830    -0.0261920     0.3177710
  C       -0.1702520    -0.2529640    -0.2898400
  C        2.3348890    -0.4444240    -0.1997250
  C        0.9880304    -0.2335772     0.4201259
  C       -2.1103090     1.3065560    -0.1212920
  C        3.1728198     0.8100447     0.0535808
  H       -1.4208040    -0.0402330     1.4151950
  H       -0.1609320    -0.3839550    -1.3725900
  H        2.2351040    -0.6390970    -1.2733090
  H        2.8261900    -1.3231820     0.2368400
  H        0.9367840    -0.1585690     1.4880300
  H       -1.4764410     2.1380570     0.1977940
  H       -2.2008650     1.3268630    -1.2105240
  H       -3.1068830     1.4512670     0.3117270
  H        3.3300870     0.9922950     1.0954650
  H        2.7636150     1.6688370    -0.4368240
  H        4.2103780     0.6456890    -0.3991480
  H       -3.2411570    -0.9446250     0.2124840
units angstrom
no_reorient  #important for SAPT in psi4, default
symmetry c1  #important for SAPT in psi4, default
}

set PROPERTIES_ORIGIN ["COM"]
properties('MP2/aug-cc-pvtz', properties = ['dipole'])
--------------------------------------------------------------------------

    Molecular point group: c1
  Charge       = 0
  Multiplicity = 1
  Basis Set: AUG-CC-PVTZ
    Blend: AUG-CC-PVTZ
  Basis Set: (AUG-CC-PVTZ AUX)
    Blend: AUG-CC-PVTZ-JKFIT

    Orbital Energies [Eh]
    ---------------------

    Doubly Occupied:

       1A    -20.555193     2A    -11.282378     3A    -11.228281
       4A    -11.224891     5A    -11.223363     6A    -11.218870
       7A    -11.214770     8A     -1.353932     9A     -1.088801
      10A     -1.033866    11A     -0.968023    12A     -0.874929
      13A     -0.809547    14A     -0.758318    15A     -0.682549
      16A     -0.634550    17A     -0.623898    18A     -0.599524
      19A     -0.588305    20A     -0.543093    21A     -0.541098
      22A     -0.527142    23A     -0.519234    24A     -0.497833
      25A     -0.489555    26A     -0.459217    27A     -0.443664
      28A     -0.343998

  @DF-RHF Final Energy:  -309.14353231012137

   => Energetics <=

    Nuclear Repulsion Energy =            299.3152549192927268
    One-Electron Energy =               -1012.2599361950624370
    Two-Electron Energy =                 403.8011489656482809
    Total Energy =                       -309.1435323101213726
  Basis Set: (AUG-CC-PVTZ AUX)
    Blend: AUG-CC-PVTZ-RI
    Molecular point group: c1

    Geometry (in Angstrom), charge = 0, multiplicity = 1:

       Center              X                  Y                   Z               Mass
    ------------   -----------------  -----------------  -----------------  -----------------
         O           -2.337771557784    -1.123696289061    -0.125268308976    15.994914619570
         C           -1.512511557784    -0.034638289061     0.312645691024    12.000000000000
         C           -0.167080557784    -0.261410289061    -0.294965308976    12.000000000000
         C            2.338060442216    -0.452870289061    -0.204850308976    12.000000000000
         C            0.991201842216    -0.242023489061     0.415000591024    12.000000000000
         C           -2.107137557784     1.298109710939    -0.126417308976    12.000000000000
         C            3.175991242216     0.801598410939     0.048455491024    12.000000000000
         H           -1.417632557784    -0.048679289061     1.410069691024     1.007825032230
         H           -0.157760557784    -0.392401289061    -1.377715308976     1.007825032230
         H            2.238275442216    -0.647543289061    -1.278434308976     1.007825032230
         H            2.829361442216    -1.331628289061     0.231714691024     1.007825032230
         H            0.939955442216    -0.167015289061     1.482904691024     1.007825032230
         H           -1.473269557784     2.129610710939     0.192668691024     1.007825032230
         H           -2.197693557784     1.318416710939    -1.215649308976     1.007825032230
         H           -3.103711557784     1.442820710939     0.306601691024     1.007825032230
         H            3.333258442216     0.983848710939     1.090339691024     1.007825032230
         H            2.766786442216     1.660390710939    -0.441949308976     1.007825032230
         H            4.213549442216     0.637242710939    -0.404273308976     1.007825032230
         H           -3.237985557784    -0.953071289061     0.207358691024     1.007825032230

  Basis Set: AUG-CC-PVTZ
    Blend: AUG-CC-PVTZ
  Basis Set: (AUG-CC-PVTZ AUX)
    Blend: AUG-CC-PVTZ-JKFIT
	 Reference Energy          =    -309.1435323101213726 [Eh]
	 Singles Energy            =      -0.0000000000000000 [Eh]
	 Same-Spin Energy          =      -0.3169157100484531 [Eh]
	 Opposite-Spin Energy      =      -1.1032948556811148 [Eh]
	 Correlation Energy        =      -1.4202105657295681 [Eh]
	 Total Energy              =    -310.5637428758509486 [Eh]

	 ================> DF-SCS-MP2 Energies <==================
	-----------------------------------------------------------
	 SCS Same-Spin Scale       =       0.3333333333333333 [-]
	 SCS Opposite-Spin Scale   =       1.2000000000000000 [-]
	 SCS Same-Spin Energy      =      -0.1056385700161510 [Eh]
	 SCS Opposite-Spin Energy  =      -1.3239538268173379 [Eh]
	 SCS Correlation Energy    =      -1.4295923968334889 [Eh]
	 SCS Total Energy          =    -310.5731247069548431 [Eh]
	-----------------------------------------------------------

  Dipole Moment: [D]
     X:    -0.1110      Y:     1.3272      Z:     0.8404     Total:     1.5748

*** Psi4 exiting successfully. Buy a developer a beer!
