                               Psi4 1.3.2 release

  ==> Input File <==

--------------------------------------------------------------------------
#psi4
#
memory 32 gb

molecule  {
0 1
  O       -2.3409430    -1.1152500    -0.1201430
  C       -1.5367201    -0.0294963     0.2701852
  C       -0.1702520    -0.2529640    -0.2898400
  C        2.3348890    -0.4444240    -0.1997250
  C        0.9740050    -0.2811540     0.4036300
  C       -2.1103090     1.3065560    -0.1212920
  C        3.2132980     0.7871720     0.0273270
  H       -1.4208040    -0.0402330     1.4151950
  H       -0.1987576    -0.3796506    -1.3727671
  H        2.2351040    -0.6390970    -1.2733090
  H        2.8261900    -1.3231820     0.2368400
  H        0.9367840    -0.1585690     1.4880300
  H       -1.4764410     2.1380570     0.1977940
  H       -2.2008650     1.3268630    -1.2105240
  H       -3.1068830     1.4512670     0.3117270
  H        3.3300870     0.9922950     1.0954650
  H        2.7636150     1.6688370    -0.4368240
  H        4.2103780     0.6456890    -0.3991480
  H       -3.2411570    -0.9446250     0.2124840
units angstrom
no_reorient  #important for SAPT in psi4, default
symmetry c1  #important for SAPT in psi4, default
}

set PROPERTIES_ORIGIN ["COM"]
properties('MP2/aug-cc-pvtz', properties = ['dipole'])
--------------------------------------------------------------------------

    Molecular point group: c1
  Charge       = 0
  Multiplicity = 1
  Basis Set: AUG-CC-PVTZ
    Blend: AUG-CC-PVTZ
  Basis Set: (AUG-CC-PVTZ AUX)
    Blend: AUG-CC-PVTZ-JKFIT

    Orbital Energies [Eh]
    ---------------------

    Doubly Occupied:

       1A    -20.558962     2A    -11.284047     3A    -11.228628
       4A    -11.224490     5A    -11.220783     6A    -11.218934
       7A    -11.215127     8A     -1.366340     9A     -1.089359
      10A     -1.034855    11A     -0.972586    12A     -0.876644
      13A     -0.810123    14A     -0.751431    15A     -0.683905
      16A     -0.637694    17A     -0.630702    18A     -0.599888
      19A     -0.589525    20A     -0.543575    21A     -0.541787
      22A     -0.531958    23A     -0.517880    24A     -0.502809
      25A     -0.481976    26A     -0.460715    27A     -0.433997
      28A     -0.350166

  @DF-RHF Final Energy:  -309.14617433993425

   => Energetics <=

    Nuclear Repulsion Energy =            299.5485743453414784
    One-Electron Energy =               -1012.6717236539645910
    Two-Electron Energy =                 403.9769749686889213
    Total Energy =                       -309.1461743399342481
  Basis Set: (AUG-CC-PVTZ AUX)
    Blend: AUG-CC-PVTZ-RI
    Molecular point group: c1

    Geometry (in Angstrom), charge = 0, multiplicity = 1:

       Center              X                  Y                   Z               Mass
    ------------   -----------------  -----------------  -----------------  -----------------
         O           -2.338039987513    -1.114897028946    -0.114435884936    15.994914619570
         C           -1.533817087513    -0.029143328946     0.275892315064    12.000000000000
         C           -0.167348987513    -0.252611028946    -0.284132884936    12.000000000000
         C            2.337792012487    -0.444071028946    -0.194017884936    12.000000000000
         C            0.976908012487    -0.280801028946     0.409337115064    12.000000000000
         C           -2.107405987513     1.306908971054    -0.115584884936    12.000000000000
         C            3.216201012487     0.787524971054     0.033034115064    12.000000000000
         H           -1.417900987513    -0.039880028946     1.420902115064     1.007825032230
         H           -0.195854587513    -0.379297628946    -1.367059984936     1.007825032230
         H            2.238007012487    -0.638744028946    -1.267601884936     1.007825032230
         H            2.829093012487    -1.322829028946     0.242547115064     1.007825032230
         H            0.939687012487    -0.158216028946     1.493737115064     1.007825032230
         H           -1.473537987513     2.138409971054     0.203501115064     1.007825032230
         H           -2.197961987513     1.327215971054    -1.204816884936     1.007825032230
         H           -3.103979987513     1.451619971054     0.317434115064     1.007825032230
         H            3.332990012487     0.992647971054     1.101172115064     1.007825032230
         H            2.766518012487     1.669189971054    -0.431116884936     1.007825032230
         H            4.213281012487     0.646041971054    -0.393440884936     1.007825032230
         H           -3.238253987513    -0.944272028946     0.218191115064     1.007825032230

  Basis Set: AUG-CC-PVTZ
    Blend: AUG-CC-PVTZ
  Basis Set: (AUG-CC-PVTZ AUX)
    Blend: AUG-CC-PVTZ-JKFIT
	 Reference Energy          =    -309.1461743399342481 [Eh]
	 Singles Energy            =      -0.0000000000000000 [Eh]
	 Same-Spin Energy          =      -0.3167006271311334 [Eh]
	 Opposite-Spin Energy      =      -1.1023767726572975 [Eh]
	 Correlation Energy        =      -1.4190773997884309 [Eh]
	 Total Energy              =    -310.5652517397226688 [Eh]

	 ================> DF-SCS-MP2 Energies <==================
	-----------------------------------------------------------
	 SCS Same-Spin Scale       =       0.3333333333333333 [-]
	 SCS Opposite-Spin Scale   =       1.2000000000000000 [-]
	 SCS Same-Spin Energy      =      -0.1055668757103778 [Eh]
	 SCS Opposite-Spin Energy  =      -1.3228521271887570 [Eh]
	 SCS Correlation Energy    =      -1.4284190028991348 [Eh]
	 SCS Total Energy          =    -310.5745933428333956 [Eh]
	-----------------------------------------------------------

  Dipole Moment: [D]
     X:    -0.1801      Y:     1.3391      Z:     0.7333     Total:     1.5374

*** Psi4 exiting successfully. Buy a developer a beer!
