                               Psi4 1.3.2 release

  ==> Input File <==

--------------------------------------------------------------------------
#psi4
#
memory 32 gb

molecule  {
0 1
  O       -2.3566598    -1.0988270    -0.1306510
  C       -1.5156830    -0.0261920     0.3177710
  C       -0.1702520    -0.2529640    -0.2898400
  C        2.3348890    -0.4444240    -0.1997250
  C        0.9740050    -0.2811540     0.4036300
  C       -2.1304531     1.2935211    -0.1327717
  C        3.2132980     0.7871720     0.0273270
  H       -1.4208040    -0.0402330     1.4151950
  H       -0.1609320    -0.3839550    -1.3725900
  H        2.2351040    -0.6390970    -1.2733090
  H        2.8261900    -1.3231820     0.2368400
  H        0.9367840    -0.1585690     1.4880300
  H       -1.4764410     2.1380570     0.1977940
  H       -2.2008650     1.3268630    -1.2105240
  H       -3.1068830     1.4512670     0.3117270
  H        3.3300870     0.9922950     1.0954650
  H        2.7636150     1.6688370    -0.4368240
  H        4.2103780     0.6456890    -0.3991480
  H       -3.2411570    -0.9446250     0.2124840
units angstrom
no_reorient  #important for SAPT in psi4, default
symmetry c1  #important for SAPT in psi4, default
}

set PROPERTIES_ORIGIN ["COM"]
properties('MP2/aug-cc-pvtz', properties = ['dipole'])
--------------------------------------------------------------------------

    Molecular point group: c1
  Charge       = 0
  Multiplicity = 1
  Basis Set: AUG-CC-PVTZ
    Blend: AUG-CC-PVTZ
  Basis Set: (AUG-CC-PVTZ AUX)
    Blend: AUG-CC-PVTZ-JKFIT

    Orbital Energies [Eh]
    ---------------------

    Doubly Occupied:

       1A    -20.552425     2A    -11.283082     3A    -11.228442
       4A    -11.224879     5A    -11.221473     6A    -11.218345
       7A    -11.215502     8A     -1.356095     9A     -1.090485
      10A     -1.033592    11A     -0.971212    12A     -0.876510
      13A     -0.811340    14A     -0.755445    15A     -0.684451
      16A     -0.634430    17A     -0.623014    18A     -0.597954
      19A     -0.589384    20A     -0.545290    21A     -0.541699
      22A     -0.531168    23A     -0.515652    24A     -0.498676
      25A     -0.482241    26A     -0.463690    27A     -0.442909
      28A     -0.350492

  @DF-RHF Final Energy:  -309.14944296381356

   => Energetics <=

    Nuclear Repulsion Energy =            299.2495203171959020
    One-Electron Energy =               -1012.1181701982159211
    Two-Electron Energy =                 403.7192069172064635
    Total Energy =                       -309.1494429638135557
  Basis Set: (AUG-CC-PVTZ AUX)
    Blend: AUG-CC-PVTZ-RI
    Molecular point group: c1

    Geometry (in Angstrom), charge = 0, multiplicity = 1:

       Center              X                  Y                   Z               Mass
    ------------   -----------------  -----------------  -----------------  -----------------
         O           -2.351733072000    -1.099888564633    -0.127595301310    15.994914619570
         C           -1.510756272000    -0.027253564633     0.320826698690    12.000000000000
         C           -0.165325272000    -0.254025564633    -0.286784301310    12.000000000000
         C            2.339815728000    -0.445485564633    -0.196669301310    12.000000000000
         C            0.978931728000    -0.282215564633     0.406685698690    12.000000000000
         C           -2.125526372000     1.292459535367    -0.129716001310    12.000000000000
         C            3.218224728000     0.786110435367     0.030382698690    12.000000000000
         H           -1.415877272000    -0.041294564633     1.418250698690     1.007825032230
         H           -0.156005272000    -0.385016564633    -1.369534301310     1.007825032230
         H            2.240030728000    -0.640158564633    -1.270253301310     1.007825032230
         H            2.831116728000    -1.324243564633     0.239895698690     1.007825032230
         H            0.941710728000    -0.159630564633     1.491085698690     1.007825032230
         H           -1.471514272000     2.136995435367     0.200849698690     1.007825032230
         H           -2.195938272000     1.325801435367    -1.207468301310     1.007825032230
         H           -3.101956272000     1.450205435367     0.314782698690     1.007825032230
         H            3.335013728000     0.991233435367     1.098520698690     1.007825032230
         H            2.768541728000     1.667775435367    -0.433768301310     1.007825032230
         H            4.215304728000     0.644627435367    -0.396092301310     1.007825032230
         H           -3.236230272000    -0.945686564633     0.215539698690     1.007825032230

  Basis Set: AUG-CC-PVTZ
    Blend: AUG-CC-PVTZ
  Basis Set: (AUG-CC-PVTZ AUX)
    Blend: AUG-CC-PVTZ-JKFIT
	 Reference Energy          =    -309.1494429638135557 [Eh]
	 Singles Energy            =      -0.0000000000000000 [Eh]
	 Same-Spin Energy          =      -0.3163241882266236 [Eh]
	 Opposite-Spin Energy      =      -1.1018701517662481 [Eh]
	 Correlation Energy        =      -1.4181943399928718 [Eh]
	 Total Energy              =    -310.5676373038064071 [Eh]

	 ================> DF-SCS-MP2 Energies <==================
	-----------------------------------------------------------
	 SCS Same-Spin Scale       =       0.3333333333333333 [-]
	 SCS Opposite-Spin Scale   =       1.2000000000000000 [-]
	 SCS Same-Spin Energy      =      -0.1054413960755412 [Eh]
	 SCS Opposite-Spin Energy  =      -1.3222441821194977 [Eh]
	 SCS Correlation Energy    =      -1.4276855781950388 [Eh]
	 SCS Total Energy          =    -310.5771285420086087 [Eh]
	-----------------------------------------------------------

  Dipole Moment: [D]
     X:    -0.0519      Y:     1.3373      Z:     0.8425     Total:     1.5814

*** Psi4 exiting successfully. Buy a developer a beer!
