                               Psi4 1.3.2 release

  ==> Input File <==

--------------------------------------------------------------------------
#psi4
#
memory 32 gb

molecule  {
0 1
  O       -2.3409430    -1.1152500    -0.1201430
  C       -1.5156830    -0.0261920     0.3177710
  C       -0.1702520    -0.2529640    -0.2898400
  C        2.3348890    -0.4444240    -0.1997250
  C        0.9740050    -0.2811540     0.4036300
  C       -2.1103090     1.3065560    -0.1212920
  C        3.2132980     0.7871720     0.0273270
  H       -1.4208040    -0.0402330     1.4151950
  H       -0.1609320    -0.3839550    -1.3725900
  H        2.2351040    -0.6390970    -1.2733090
  H        2.8261900    -1.3231820     0.2368400
  H        0.9333753    -0.1473427     1.5873394
  H       -1.4764410     2.1380570     0.1977940
  H       -2.2008650     1.3268630    -1.2105240
  H       -3.1068830     1.4512670     0.3117270
  H        3.3300870     0.9922950     1.0954650
  H        2.7636150     1.6688370    -0.4368240
  H        4.2103780     0.6456890    -0.3991480
  H       -3.2411570    -0.9446250     0.2124840
units angstrom
no_reorient  #important for SAPT in psi4, default
symmetry c1  #important for SAPT in psi4, default
}

set PROPERTIES_ORIGIN ["COM"]
properties('MP2/aug-cc-pvtz', properties = ['dipole'])
--------------------------------------------------------------------------

    Molecular point group: c1
  Charge       = 0
  Multiplicity = 1
  Basis Set: AUG-CC-PVTZ
    Blend: AUG-CC-PVTZ
  Basis Set: (AUG-CC-PVTZ AUX)
    Blend: AUG-CC-PVTZ-JKFIT

    Orbital Energies [Eh]
    ---------------------

    Doubly Occupied:

       1A    -20.555331     2A    -11.282892     3A    -11.239321
       4A    -11.226006     5A    -11.222148     6A    -11.219359
       7A    -11.215445     8A     -1.354144     9A     -1.088727
      10A     -1.033911    11A     -0.970555    12A     -0.875441
      13A     -0.810269    14A     -0.746323    15A     -0.677744
      16A     -0.632204    17A     -0.624593    18A     -0.598782
      19A     -0.588073    20A     -0.543242    21A     -0.537639
      22A     -0.526906    23A     -0.516936    24A     -0.502003
      25A     -0.479481    26A     -0.461007    27A     -0.443642
      28A     -0.350846

  @DF-RHF Final Energy:  -309.14248802708062

   => Energetics <=

    Nuclear Repulsion Energy =            298.7786883469581198
    One-Electron Energy =               -1011.1964129435223185
    Two-Electron Energy =                 403.2752365694835817
    Total Energy =                       -309.1424880270806170
  Basis Set: (AUG-CC-PVTZ AUX)
    Blend: AUG-CC-PVTZ-RI
    Molecular point group: c1

    Geometry (in Angstrom), charge = 0, multiplicity = 1:

       Center              X                  Y                   Z               Mass
    ------------   -----------------  -----------------  -----------------  -----------------
         O           -2.340908753751    -1.115362891830    -0.121142873973    15.994914619570
         C           -1.515648753751    -0.026304891830     0.316771126027    12.000000000000
         C           -0.170217753751    -0.253076891830    -0.290839873973    12.000000000000
         C            2.334923246249    -0.444536891830    -0.200724873973    12.000000000000
         C            0.974039246249    -0.281266891830     0.402630126027    12.000000000000
         C           -2.110274753751     1.306443108170    -0.122291873973    12.000000000000
         C            3.213332246249     0.787059108170     0.026327126027    12.000000000000
         H           -1.420769753751    -0.040345891830     1.414195126027     1.007825032230
         H           -0.160897753751    -0.384067891830    -1.373589873973     1.007825032230
         H            2.235138246249    -0.639209891830    -1.274308873973     1.007825032230
         H            2.826224246249    -1.323294891830     0.235840126027     1.007825032230
         H            0.933409546249    -0.147455591830     1.586339526027     1.007825032230
         H           -1.476406753751     2.137944108170     0.196794126027     1.007825032230
         H           -2.200830753751     1.326750108170    -1.211523873973     1.007825032230
         H           -3.106848753751     1.451154108170     0.310727126027     1.007825032230
         H            3.330121246249     0.992182108170     1.094465126027     1.007825032230
         H            2.763649246249     1.668724108170    -0.437823873973     1.007825032230
         H            4.210412246249     0.645576108170    -0.400147873973     1.007825032230
         H           -3.241122753751    -0.944737891830     0.211484126027     1.007825032230

  Basis Set: AUG-CC-PVTZ
    Blend: AUG-CC-PVTZ
  Basis Set: (AUG-CC-PVTZ AUX)
    Blend: AUG-CC-PVTZ-JKFIT
	 Reference Energy          =    -309.1424880270806170 [Eh]
	 Singles Energy            =      -0.0000000000000000 [Eh]
	 Same-Spin Energy          =      -0.3167366166078526 [Eh]
	 Opposite-Spin Energy      =      -1.1032412503040290 [Eh]
	 Correlation Energy        =      -1.4199778669118817 [Eh]
	 Total Energy              =    -310.5624658939925098 [Eh]

	 ================> DF-SCS-MP2 Energies <==================
	-----------------------------------------------------------
	 SCS Same-Spin Scale       =       0.3333333333333333 [-]
	 SCS Opposite-Spin Scale   =       1.2000000000000000 [-]
	 SCS Same-Spin Energy      =      -0.1055788722026175 [Eh]
	 SCS Opposite-Spin Energy  =      -1.3238895003648348 [Eh]
	 SCS Correlation Energy    =      -1.4294683725674524 [Eh]
	 SCS Total Energy          =    -310.5719563996480588 [Eh]
	-----------------------------------------------------------

  Dipole Moment: [D]
     X:    -0.0836      Y:     1.3738      Z:     0.7543     Total:     1.5695

*** Psi4 exiting successfully. Buy a developer a beer!
