                               Psi4 1.4a3.dev225

  ==> Input File <==

--------------------------------------------------------------------------
#psi4
#
memory 32 gb

molecule  {
0 1
  O       -2.4334040    -1.0537050    -0.1031880
  C       -1.5294985     0.0430770     0.3309136
  C       -0.2252920    -0.2882920    -0.2906650
  C        2.2718840    -0.5904540    -0.1973150
  C        0.9184280    -0.3582560     0.4039980
  C       -2.0985830     1.3582810    -0.1413790
  C        3.2072160     0.6032460     0.0168350
  H       -1.4627270     0.0051460     1.4138490
  H       -0.2231950    -0.4335060    -1.3719210
  H        2.1635620    -0.7923810    -1.2691220
  H        2.7222980    -1.4861610     0.2495370
  H        0.8868390    -0.2195170     1.4869310
  H       -1.4287050     2.1666040     0.1650490
  H       -2.1908800     1.3667930    -1.2308750
  H       -3.0873820     1.5512680     0.2912850
  H        3.3343300     0.8133780     1.0831920
  H        2.7976640     1.4999730    -0.4563300
  H        4.1964720     0.4112550    -0.4090930
  H       -3.3235000    -0.8374140     0.2263080
units angstrom
no_reorient  #important for SAPT in psi4, default
symmetry c1  #important for SAPT in psi4, default
}

set PROPERTIES_ORIGIN ["COM"]
properties('MP2/aug-cc-pvtz', properties = ['dipole'])
--------------------------------------------------------------------------

    Molecular point group: c1
  Charge       = 0
  Multiplicity = 1
  Basis Set: AUG-CC-PVTZ
    Blend: AUG-CC-PVTZ
  Basis Set: (AUG-CC-PVTZ AUX)
    Blend: AUG-CC-PVTZ-JKFIT

    Orbital Energies [Eh]
    ---------------------

    Doubly Occupied:

       1A    -20.548651     2A    -11.283251     3A    -11.229651
       4A    -11.225727     5A    -11.222347     6A    -11.220745
       7A    -11.216489     8A     -1.334610     9A     -1.092353
      10A     -1.037186    11A     -0.973758    12A     -0.876775
      13A     -0.809470    14A     -0.757348    15A     -0.674388
      16A     -0.629970    17A     -0.621059    18A     -0.598044
      19A     -0.588856    20A     -0.546446    21A     -0.539953
      22A     -0.530026    23A     -0.514087    24A     -0.496173
      25A     -0.482989    26A     -0.467872    27A     -0.446821
      28A     -0.351110

  @DF-RHF Final Energy:  -309.14635811220876

   => Energetics <=

    Nuclear Repulsion Energy =            298.7806871261273614
    One-Electron Energy =               -1011.2217843096684646
    Two-Electron Energy =                 403.2947390713324012
    Total Energy =                       -309.1463581122087589
  Basis Set: (AUG-CC-PVTZ AUX)
    Blend: AUG-CC-PVTZ-RI
    Molecular point group: c1

    Geometry (in Angstrom), charge = 0, multiplicity = 1:

       Center              X                  Y                   Z               Mass
    ------------   -----------------  -----------------  -----------------  -----------------
         O           -2.393707774191    -1.018080601547    -0.103171785843    15.994914619570
         C           -1.489802274191     0.078701398453     0.330929814157    12.000000000000
         C           -0.185595774191    -0.252667601547    -0.290648785843    12.000000000000
         C            2.311580225809    -0.554829601547    -0.197298785843    12.000000000000
         C            0.958124225809    -0.322631601547     0.404014214157    12.000000000000
         C           -2.058886774191     1.393905398453    -0.141362785843    12.000000000000
         C            3.246912225809     0.638870398453     0.016851214157    12.000000000000
         H           -1.423030774191     0.040770398453     1.413865214157     1.007825032230
         H           -0.183498774191    -0.397881601547    -1.371904785843     1.007825032230
         H            2.203258225809    -0.756756601547    -1.269105785843     1.007825032230
         H            2.761994225809    -1.450536601547     0.249553214157     1.007825032230
         H            0.926535225809    -0.183892601547     1.486947214157     1.007825032230
         H           -1.389008774191     2.202228398453     0.165065214157     1.007825032230
         H           -2.151183774191     1.402417398453    -1.230858785843     1.007825032230
         H           -3.047685774191     1.586892398453     0.291301214157     1.007825032230
         H            3.374026225809     0.849002398453     1.083208214157     1.007825032230
         H            2.837360225809     1.535597398453    -0.456313785843     1.007825032230
         H            4.236168225809     0.446879398453    -0.409076785843     1.007825032230
         H           -3.283803774191    -0.801789601547     0.226324214157     1.007825032230

  Basis Set: AUG-CC-PVTZ
    Blend: AUG-CC-PVTZ
  Basis Set: (AUG-CC-PVTZ AUX)
    Blend: AUG-CC-PVTZ-JKFIT
	 Reference Energy          =    -309.1463581122087589 [Eh]
	 Singles Energy            =      -0.0000000000000000 [Eh]
	 Same-Spin Energy          =      -0.3167952959871687 [Eh]
	 Opposite-Spin Energy      =      -1.1033716358976662 [Eh]
	 Correlation Energy        =      -1.4201669318848349 [Eh]
	 Total Energy              =    -310.5665250440935665 [Eh]

	 ================> DF-SCS-MP2 Energies <==================
	-----------------------------------------------------------
	 SCS Same-Spin Scale       =       0.3333333333333333 [-]
	 SCS Opposite-Spin Scale   =       1.2000000000000000 [-]
	 SCS Same-Spin Energy      =      -0.1055984319957229 [Eh]
	 SCS Opposite-Spin Energy  =      -1.3240459630771995 [Eh]
	 SCS Correlation Energy    =      -1.4296443950729223 [Eh]
	 SCS Total Energy          =    -310.5760025072816575 [Eh]
	-----------------------------------------------------------

  Dipole Moment: [D]
     X:     0.1257      Y:     1.5433      Z:     0.8232     Total:     1.7537

*** Psi4 exiting successfully. Buy a developer a beer!
