                               Psi4 1.3.2 release

  ==> Input File <==

--------------------------------------------------------------------------
#psi4
#
memory 32 gb

molecule  {
0 1
  O       -2.3409430    -1.1152500    -0.1201430
  C       -1.5156830    -0.0261920     0.3177710
  C       -0.1702520    -0.2529640    -0.2898400
  C        2.3348890    -0.4444240    -0.1997250
  C        0.9707571    -0.2930816     0.3993904
  C       -2.1103090     1.3065560    -0.1212920
  C        3.2232522     0.7812182     0.0207191
  H       -1.4208040    -0.0402330     1.4151950
  H       -0.1609320    -0.3839550    -1.3725900
  H        2.2351040    -0.6390970    -1.2733090
  H        2.8261900    -1.3231820     0.2368400
  H        0.9367840    -0.1585690     1.4880300
  H       -1.4764410     2.1380570     0.1977940
  H       -2.2008650     1.3268630    -1.2105240
  H       -3.1068830     1.4512670     0.3117270
  H        3.3300870     0.9922950     1.0954650
  H        2.7636150     1.6688370    -0.4368240
  H        4.2103780     0.6456890    -0.3991480
  H       -3.2411570    -0.9446250     0.2124840
units angstrom
no_reorient  #important for SAPT in psi4, default
symmetry c1  #important for SAPT in psi4, default
}

set PROPERTIES_ORIGIN ["COM"]
properties('MP2/aug-cc-pvtz', properties = ['dipole'])
--------------------------------------------------------------------------

    Molecular point group: c1
  Charge       = 0
  Multiplicity = 1
  Basis Set: AUG-CC-PVTZ
    Blend: AUG-CC-PVTZ
  Basis Set: (AUG-CC-PVTZ AUX)
    Blend: AUG-CC-PVTZ-JKFIT

    Orbital Energies [Eh]
    ---------------------

    Doubly Occupied:

       1A    -20.555366     2A    -11.282994     3A    -11.227673
       4A    -11.224438     5A    -11.220416     6A    -11.219475
       7A    -11.215545     8A     -1.354157     9A     -1.090413
      10A     -1.033572    11A     -0.971963    12A     -0.876224
      13A     -0.810745    14A     -0.754238    15A     -0.681355
      16A     -0.633400    17A     -0.624926    18A     -0.598633
      19A     -0.589040    20A     -0.544098    21A     -0.539344
      22A     -0.532247    23A     -0.515909    24A     -0.502071
      25A     -0.479855    26A     -0.462972    27A     -0.443747
      28A     -0.351208

  @DF-RHF Final Energy:  -309.14934565944242

   => Energetics <=

    Nuclear Repulsion Energy =            299.1843047456770250
    One-Electron Energy =               -1011.9952577471837003
    Two-Electron Energy =                 403.6616073420643147
    Total Energy =                       -309.1493456594424174
  Basis Set: (AUG-CC-PVTZ AUX)
    Blend: AUG-CC-PVTZ-RI
    Molecular point group: c1

    Geometry (in Angstrom), charge = 0, multiplicity = 1:

       Center              X                  Y                   Z               Mass
    ------------   -----------------  -----------------  -----------------  -----------------
         O           -2.341747118889    -1.113105986839    -0.118842352189    15.994914619570
         C           -1.516487118889    -0.024047986839     0.319071647811    12.000000000000
         C           -0.171056118889    -0.250819986839    -0.288539352189    12.000000000000
         C            2.334084881111    -0.442279986839    -0.198424352189    12.000000000000
         C            0.969952981111    -0.290937586839     0.400691047811    12.000000000000
         C           -2.111113118889     1.308700013161    -0.119991352189    12.000000000000
         C            3.222448081111     0.783362213161     0.022019747811    12.000000000000
         H           -1.421608118889    -0.038088986839     1.416495647811     1.007825032230
         H           -0.161736118889    -0.381810986839    -1.371289352189     1.007825032230
         H            2.234299881111    -0.636952986839    -1.272008352189     1.007825032230
         H            2.825385881111    -1.321037986839     0.238140647811     1.007825032230
         H            0.935979881111    -0.156424986839     1.489330647811     1.007825032230
         H           -1.477245118889     2.140201013161     0.199094647811     1.007825032230
         H           -2.201669118889     1.329007013161    -1.209223352189     1.007825032230
         H           -3.107687118889     1.453411013161     0.313027647811     1.007825032230
         H            3.329282881111     0.994439013161     1.096765647811     1.007825032230
         H            2.762810881111     1.670981013161    -0.435523352189     1.007825032230
         H            4.209573881111     0.647833013161    -0.397847352189     1.007825032230
         H           -3.241961118889    -0.942480986839     0.213784647811     1.007825032230

  Basis Set: AUG-CC-PVTZ
    Blend: AUG-CC-PVTZ
  Basis Set: (AUG-CC-PVTZ AUX)
    Blend: AUG-CC-PVTZ-JKFIT
	 Reference Energy          =    -309.1493456594424174 [Eh]
	 Singles Energy            =      -0.0000000000000000 [Eh]
	 Same-Spin Energy          =      -0.3164809369517569 [Eh]
	 Opposite-Spin Energy      =      -1.1022567248245918 [Eh]
	 Correlation Energy        =      -1.4187376617763487 [Eh]
	 Total Energy              =    -310.5680833212187508 [Eh]

	 ================> DF-SCS-MP2 Energies <==================
	-----------------------------------------------------------
	 SCS Same-Spin Scale       =       0.3333333333333333 [-]
	 SCS Opposite-Spin Scale   =       1.2000000000000000 [-]
	 SCS Same-Spin Energy      =      -0.1054936456505856 [Eh]
	 SCS Opposite-Spin Energy  =      -1.3227080697895102 [Eh]
	 SCS Correlation Energy    =      -1.4282017154400959 [Eh]
	 SCS Total Energy          =    -310.5775473748824993 [Eh]
	-----------------------------------------------------------

  Dipole Moment: [D]
     X:    -0.0957      Y:     1.3914      Z:     0.8065     Total:     1.6111

*** Psi4 exiting successfully. Buy a developer a beer!
