                               Psi4 1.3.2 release

  ==> Input File <==

--------------------------------------------------------------------------
#psi4
#
memory 32 gb

molecule  {
0 1
  O       -2.3215083    -1.1245588    -0.1329019
  C       -1.5156830    -0.0261920     0.3177710
  C       -0.1792534    -0.2746786    -0.3011083
  C        2.3348890    -0.4444240    -0.1997250
  C        0.9740050    -0.2811540     0.4036300
  C       -2.1103090     1.3065560    -0.1212920
  C        3.2132980     0.7871720     0.0273270
  H       -1.4208040    -0.0402330     1.4151950
  H       -0.1609320    -0.3839550    -1.3725900
  H        2.2351040    -0.6390970    -1.2733090
  H        2.8261900    -1.3231820     0.2368400
  H        0.9367840    -0.1585690     1.4880300
  H       -1.4764410     2.1380570     0.1977940
  H       -2.2008650     1.3268630    -1.2105240
  H       -3.1068830     1.4512670     0.3117270
  H        3.3300870     0.9922950     1.0954650
  H        2.7636150     1.6688370    -0.4368240
  H        4.2103780     0.6456890    -0.3991480
  H       -3.2411570    -0.9446250     0.2124840
units angstrom
no_reorient  #important for SAPT in psi4, default
symmetry c1  #important for SAPT in psi4, default
}

set PROPERTIES_ORIGIN ["COM"]
properties('MP2/aug-cc-pvtz', properties = ['dipole'])
--------------------------------------------------------------------------

    Molecular point group: c1
  Charge       = 0
  Multiplicity = 1
  Basis Set: AUG-CC-PVTZ
    Blend: AUG-CC-PVTZ
  Basis Set: (AUG-CC-PVTZ AUX)
    Blend: AUG-CC-PVTZ-JKFIT

    Orbital Energies [Eh]
    ---------------------

    Doubly Occupied:

       1A    -20.557914     2A    -11.282501     3A    -11.228812
       4A    -11.223958     5A    -11.220980     6A    -11.219961
       7A    -11.214962     8A     -1.350435     9A     -1.087493
      10A     -1.032537    11A     -0.969940    12A     -0.875485
      13A     -0.807692    14A     -0.757270    15A     -0.678618
      16A     -0.630930    17A     -0.623187    18A     -0.597584
      19A     -0.589636    20A     -0.543164    21A     -0.540146
      22A     -0.531280    23A     -0.515669    24A     -0.502554
      25A     -0.481593    26A     -0.463391    27A     -0.443829
      28A     -0.346145

  @DF-RHF Final Energy:  -309.14569152734833

   => Energetics <=

    Nuclear Repulsion Energy =            299.0860546011390397
    One-Electron Energy =               -1011.8281564341529020
    Two-Electron Energy =                 403.5964103056655290
    Total Energy =                       -309.1456915273483332
  Basis Set: (AUG-CC-PVTZ AUX)
    Blend: AUG-CC-PVTZ-RI
    Molecular point group: c1

    Geometry (in Angstrom), charge = 0, multiplicity = 1:

       Center              X                  Y                   Z               Mass
    ------------   -----------------  -----------------  -----------------  -----------------
         O           -2.323534972749    -1.120467597623    -0.129511836743    15.994914619570
         C           -1.517709672749    -0.022100797623     0.321161063257    12.000000000000
         C           -0.181280072749    -0.270587397623    -0.297718236743    12.000000000000
         C            2.332862327251    -0.440332797623    -0.196334936743    12.000000000000
         C            0.971978327251    -0.277062797623     0.407020063257    12.000000000000
         C           -2.112335672749     1.310647202377    -0.117901936743    12.000000000000
         C            3.211271327251     0.791263202377     0.030717063257    12.000000000000
         H           -1.422830672749    -0.036141797623     1.418585063257     1.007825032230
         H           -0.162958672749    -0.379863797623    -1.369199936743     1.007825032230
         H            2.233077327251    -0.635005797623    -1.269918936743     1.007825032230
         H            2.824163327251    -1.319090797623     0.240230063257     1.007825032230
         H            0.934757327251    -0.154477797623     1.491420063257     1.007825032230
         H           -1.478467672749     2.142148202377     0.201184063257     1.007825032230
         H           -2.202891672749     1.330954202377    -1.207133936743     1.007825032230
         H           -3.108909672749     1.455358202377     0.315117063257     1.007825032230
         H            3.328060327251     0.996386202377     1.098855063257     1.007825032230
         H            2.761588327251     1.672928202377    -0.433433936743     1.007825032230
         H            4.208351327251     0.649780202377    -0.395757936743     1.007825032230
         H           -3.243183672749    -0.940533797623     0.215874063257     1.007825032230

  Basis Set: AUG-CC-PVTZ
    Blend: AUG-CC-PVTZ
  Basis Set: (AUG-CC-PVTZ AUX)
    Blend: AUG-CC-PVTZ-JKFIT
	 Reference Energy          =    -309.1456915273483332 [Eh]
	 Singles Energy            =      -0.0000000000000000 [Eh]
	 Same-Spin Energy          =      -0.3170565143695436 [Eh]
	 Opposite-Spin Energy      =      -1.1037064881915266 [Eh]
	 Correlation Energy        =      -1.4207630025610702 [Eh]
	 Total Energy              =    -310.5664545299093788 [Eh]

	 ================> DF-SCS-MP2 Energies <==================
	-----------------------------------------------------------
	 SCS Same-Spin Scale       =       0.3333333333333333 [-]
	 SCS Opposite-Spin Scale   =       1.2000000000000000 [-]
	 SCS Same-Spin Energy      =      -0.1056855047898479 [Eh]
	 SCS Opposite-Spin Energy  =      -1.3244477858298318 [Eh]
	 SCS Correlation Energy    =      -1.4301332906196798 [Eh]
	 SCS Total Energy          =    -310.5758248179679981 [Eh]
	-----------------------------------------------------------

  Dipole Moment: [D]
     X:    -0.1374      Y:     1.4123      Z:     0.8206     Total:     1.6392

*** Psi4 exiting successfully. Buy a developer a beer!
