                               Psi4 1.3.2 release

  ==> Input File <==

--------------------------------------------------------------------------
#psi4
#
memory 32 gb

molecule  {
0 1
  O       -2.3409430    -1.1152500    -0.1201430
  C       -1.5156830    -0.0261920     0.3177710
  C       -0.1702520    -0.2529640    -0.2898400
  C        2.3348890    -0.4444240    -0.1997250
  C        0.7922587    -0.2593493     0.4842082
  C       -2.1103090     1.3065560    -0.1212920
  C        3.2132980     0.7871720     0.0273270
  H       -1.4208040    -0.0402330     1.4151950
  H       -0.1609320    -0.3839550    -1.3725900
  H        2.2351040    -0.6390970    -1.2733090
  H        2.8261900    -1.3231820     0.2368400
  H        0.9367840    -0.1585690     1.4880300
  H       -1.4764410     2.1380570     0.1977940
  H       -2.2008650     1.3268630    -1.2105240
  H       -3.1068830     1.4512670     0.3117270
  H        3.3300870     0.9922950     1.0954650
  H        2.7636150     1.6688370    -0.4368240
  H        4.2103780     0.6456890    -0.3991480
  H       -3.2411570    -0.9446250     0.2124840
units angstrom
no_reorient  #important for SAPT in psi4, default
symmetry c1  #important for SAPT in psi4, default
}

set PROPERTIES_ORIGIN ["COM"]
properties('MP2/aug-cc-pvtz', properties = ['dipole'])
--------------------------------------------------------------------------

    Molecular point group: c1
  Charge       = 0
  Multiplicity = 1
  Basis Set: AUG-CC-PVTZ
    Blend: AUG-CC-PVTZ
  Basis Set: (AUG-CC-PVTZ AUX)
    Blend: AUG-CC-PVTZ-JKFIT

    Orbital Energies [Eh]
    ---------------------

    Doubly Occupied:

       1A    -20.554108     2A    -11.278487     3A    -11.227168
       4A    -11.218442     5A    -11.216695     6A    -11.212150
       7A    -11.208799     8A     -1.353151     9A     -1.099594
      10A     -1.020950    11A     -0.980829    12A     -0.861003
      13A     -0.807632    14A     -0.768001    15A     -0.687696
      16A     -0.632121    17A     -0.625579    18A     -0.592814
      19A     -0.587739    20A     -0.561813    21A     -0.541875
      22A     -0.532749    23A     -0.507771    24A     -0.497304
      25A     -0.481733    26A     -0.444642    27A     -0.411277
      28A     -0.381429

  @DF-RHF Final Energy:  -309.11280739137806

   => Energetics <=

    Nuclear Repulsion Energy =            299.6758303276973834
    One-Electron Energy =               -1012.9901770322308039
    Two-Electron Energy =                 404.2015393131553083
    Total Energy =                       -309.1128073913780554
  Basis Set: (AUG-CC-PVTZ AUX)
    Blend: AUG-CC-PVTZ-RI
    Molecular point group: c1

    Geometry (in Angstrom), charge = 0, multiplicity = 1:

       Center              X                  Y                   Z               Mass
    ------------   -----------------  -----------------  -----------------  -----------------
         O           -2.319152873969    -1.117864092927    -0.129803700867    15.994914619570
         C           -1.493892873969    -0.028806092927     0.308110299133    12.000000000000
         C           -0.148461873969    -0.255578092927    -0.299500700867    12.000000000000
         C            2.356679126031    -0.447038092927    -0.209385700867    12.000000000000
         C            0.814048826031    -0.261963392927     0.474547499133    12.000000000000
         C           -2.088518873969     1.303941907073    -0.130952700867    12.000000000000
         C            3.235088126031     0.784557907073     0.017666299133    12.000000000000
         H           -1.399013873969    -0.042847092927     1.405534299133     1.007825032230
         H           -0.139141873969    -0.386569092927    -1.382250700867     1.007825032230
         H            2.256894126031    -0.641711092927    -1.282969700867     1.007825032230
         H            2.847980126031    -1.325796092927     0.227179299133     1.007825032230
         H            0.958574126031    -0.161183092927     1.478369299133     1.007825032230
         H           -1.454650873969     2.135442907073     0.188133299133     1.007825032230
         H           -2.179074873969     1.324248907073    -1.220184700867     1.007825032230
         H           -3.085092873969     1.448652907073     0.302066299133     1.007825032230
         H            3.351877126031     0.989680907073     1.085804299133     1.007825032230
         H            2.785405126031     1.666222907073    -0.446484700867     1.007825032230
         H            4.232168126031     0.643074907073    -0.408808700867     1.007825032230
         H           -3.219366873969    -0.947239092927     0.202823299133     1.007825032230

  Basis Set: AUG-CC-PVTZ
    Blend: AUG-CC-PVTZ
  Basis Set: (AUG-CC-PVTZ AUX)
    Blend: AUG-CC-PVTZ-JKFIT
	 Reference Energy          =    -309.1128073913780554 [Eh]
	 Singles Energy            =      -0.0000000000000000 [Eh]
	 Same-Spin Energy          =      -0.3155635333084180 [Eh]
	 Opposite-Spin Energy      =      -1.1012036058987018 [Eh]
	 Correlation Energy        =      -1.4167671392071197 [Eh]
	 Total Energy              =    -310.5295745305851938 [Eh]

	 ================> DF-SCS-MP2 Energies <==================
	-----------------------------------------------------------
	 SCS Same-Spin Scale       =       0.3333333333333333 [-]
	 SCS Opposite-Spin Scale   =       1.2000000000000000 [-]
	 SCS Same-Spin Energy      =      -0.1051878444361393 [Eh]
	 SCS Opposite-Spin Energy  =      -1.3214443270784422 [Eh]
	 SCS Correlation Energy    =      -1.4266321715145815 [Eh]
	 SCS Total Energy          =    -310.5394395628926532 [Eh]
	-----------------------------------------------------------

  Dipole Moment: [D]
     X:    -0.2754      Y:     1.3852      Z:     0.8565     Total:     1.6518

*** Psi4 exiting successfully. Buy a developer a beer!
