                               Psi4 1.3.2 release

  ==> Input File <==

--------------------------------------------------------------------------
#psi4
#
memory 32 gb

molecule  {
0 1
  O       -2.3409430    -1.1152500    -0.1201430
  C       -1.5156830    -0.0261920     0.3177710
  C       -0.1711375    -0.2414828    -0.2959459
  C        2.3348890    -0.4444240    -0.1997250
  C        0.9740050    -0.2811540     0.4036300
  C       -2.0994549     1.3089237    -0.1286034
  C        3.2132980     0.7871720     0.0273270
  H       -1.4208040    -0.0402330     1.4151950
  H       -0.1609320    -0.3839550    -1.3725900
  H        2.2351040    -0.6390970    -1.2733090
  H        2.8261900    -1.3231820     0.2368400
  H        0.9367840    -0.1585690     1.4880300
  H       -1.4764410     2.1380570     0.1977940
  H       -2.2008650     1.3268630    -1.2105240
  H       -3.1068830     1.4512670     0.3117270
  H        3.3300870     0.9922950     1.0954650
  H        2.7636150     1.6688370    -0.4368240
  H        4.2103780     0.6456890    -0.3991480
  H       -3.2411570    -0.9446250     0.2124840
units angstrom
no_reorient  #important for SAPT in psi4, default
symmetry c1  #important for SAPT in psi4, default
}

set PROPERTIES_ORIGIN ["COM"]
properties('MP2/aug-cc-pvtz', properties = ['dipole'])
--------------------------------------------------------------------------

    Molecular point group: c1
  Charge       = 0
  Multiplicity = 1
  Basis Set: AUG-CC-PVTZ
    Blend: AUG-CC-PVTZ
  Basis Set: (AUG-CC-PVTZ AUX)
    Blend: AUG-CC-PVTZ-JKFIT

    Orbital Energies [Eh]
    ---------------------

    Doubly Occupied:

       1A    -20.555716     2A    -11.282857     3A    -11.228123
       4A    -11.224352     5A    -11.220956     6A    -11.219196
       7A    -11.215132     8A     -1.354221     9A     -1.089656
      10A     -1.033921    11A     -0.970386    12A     -0.875524
      13A     -0.810023    14A     -0.755937    15A     -0.681837
      16A     -0.633471    17A     -0.624922    18A     -0.597645
      19A     -0.589695    20A     -0.544835    21A     -0.537558
      22A     -0.531327    23A     -0.516700    24A     -0.502571
      25A     -0.481807    26A     -0.462154    27A     -0.444596
      28A     -0.348510

  @DF-RHF Final Energy:  -309.14894423163929

   => Energetics <=

    Nuclear Repulsion Energy =            299.2233492877593903
    One-Electron Energy =               -1012.0773293298263980
    Two-Electron Energy =                 403.7050358104276597
    Total Energy =                       -309.1489442316392910
  Basis Set: (AUG-CC-PVTZ AUX)
    Blend: AUG-CC-PVTZ-RI
    Molecular point group: c1

    Geometry (in Angstrom), charge = 0, multiplicity = 1:

       Center              X                  Y                   Z               Mass
    ------------   -----------------  -----------------  -----------------  -----------------
         O           -2.342138247508    -1.116910244088    -0.118534249831    15.994914619570
         C           -1.516878247508    -0.027852244088     0.319379750169    12.000000000000
         C           -0.172332747508    -0.243143044088    -0.294337149831    12.000000000000
         C            2.333693752492    -0.446084244088    -0.198116249831    12.000000000000
         C            0.972809752492    -0.282814244088     0.405238750169    12.000000000000
         C           -2.100650147508     1.307263455912    -0.126994649831    12.000000000000
         C            3.212102752492     0.785511755912     0.028935750169    12.000000000000
         H           -1.421999247508    -0.041893244088     1.416803750169     1.007825032230
         H           -0.162127247508    -0.385615244088    -1.370981249831     1.007825032230
         H            2.233908752492    -0.640757244088    -1.271700249831     1.007825032230
         H            2.824994752492    -1.324842244088     0.238448750169     1.007825032230
         H            0.935588752492    -0.160229244088     1.489638750169     1.007825032230
         H           -1.477636247508     2.136396755912     0.199402750169     1.007825032230
         H           -2.202060247508     1.325202755912    -1.208915249831     1.007825032230
         H           -3.108078247508     1.449606755912     0.313335750169     1.007825032230
         H            3.328891752492     0.990634755912     1.097073750169     1.007825032230
         H            2.762419752492     1.667176755912    -0.435215249831     1.007825032230
         H            4.209182752492     0.644028755912    -0.397539249831     1.007825032230
         H           -3.242352247508    -0.946285244088     0.214092750169     1.007825032230

  Basis Set: AUG-CC-PVTZ
    Blend: AUG-CC-PVTZ
  Basis Set: (AUG-CC-PVTZ AUX)
    Blend: AUG-CC-PVTZ-JKFIT
	 Reference Energy          =    -309.1489442316392910 [Eh]
	 Singles Energy            =      -0.0000000000000000 [Eh]
	 Same-Spin Energy          =      -0.3165927119016290 [Eh]
	 Opposite-Spin Energy      =      -1.1025055769428236 [Eh]
	 Correlation Energy        =      -1.4190982888444525 [Eh]
	 Total Energy              =    -310.5680425204837434 [Eh]

	 ================> DF-SCS-MP2 Energies <==================
	-----------------------------------------------------------
	 SCS Same-Spin Scale       =       0.3333333333333333 [-]
	 SCS Opposite-Spin Scale   =       1.2000000000000000 [-]
	 SCS Same-Spin Energy      =      -0.1055309039672097 [Eh]
	 SCS Opposite-Spin Energy  =      -1.3230066923313883 [Eh]
	 SCS Correlation Energy    =      -1.4285375962985980 [Eh]
	 SCS Total Energy          =    -310.5774818279379019 [Eh]
	-----------------------------------------------------------

  Dipole Moment: [D]
     X:    -0.0966      Y:     1.3645      Z:     0.8099     Total:     1.5897

*** Psi4 exiting successfully. Buy a developer a beer!
