                               Psi4 1.3.2 release

  ==> Input File <==

--------------------------------------------------------------------------
#psi4
#
memory 32 gb

molecule  {
0 1
  O       -2.3409430    -1.1152500    -0.1201430
  C       -1.5156830    -0.0261920     0.3177710
  C       -0.1702520    -0.2529640    -0.2898400
  C        2.3348890    -0.4444240    -0.1997250
  C        0.9782136    -0.3023735     0.4182987
  C       -2.1103090     1.3065560    -0.1212920
  C        3.2132980     0.7871720     0.0273270
  H       -1.4208040    -0.0402330     1.4151950
  H       -0.1609320    -0.3839550    -1.3725900
  H        2.2351040    -0.6390970    -1.2733090
  H        2.8106893    -1.3262653     0.2476578
  H        0.9367840    -0.1585690     1.4880300
  H       -1.4764410     2.1380570     0.1977940
  H       -2.2008650     1.3268630    -1.2105240
  H       -3.1068830     1.4512670     0.3117270
  H        3.3300870     0.9922950     1.0954650
  H        2.7636150     1.6688370    -0.4368240
  H        4.2103780     0.6456890    -0.3991480
  H       -3.2411570    -0.9446250     0.2124840
units angstrom
no_reorient  #important for SAPT in psi4, default
symmetry c1  #important for SAPT in psi4, default
}

set PROPERTIES_ORIGIN ["COM"]
properties('MP2/aug-cc-pvtz', properties = ['dipole'])
--------------------------------------------------------------------------

    Molecular point group: c1
  Charge       = 0
  Multiplicity = 1
  Basis Set: AUG-CC-PVTZ
    Blend: AUG-CC-PVTZ
  Basis Set: (AUG-CC-PVTZ AUX)
    Blend: AUG-CC-PVTZ-JKFIT

    Orbital Energies [Eh]
    ---------------------

    Doubly Occupied:

       1A    -20.555053     2A    -11.282578     3A    -11.228285
       4A    -11.224486     5A    -11.222333     6A    -11.219262
       7A    -11.215667     8A     -1.353847     9A     -1.088690
      10A     -1.033388    11A     -0.969929    12A     -0.876564
      13A     -0.809448    14A     -0.756566    15A     -0.681841
      16A     -0.632689    17A     -0.624453    18A     -0.597170
      19A     -0.589598    20A     -0.543080    21A     -0.540573
      22A     -0.531561    23A     -0.517047    24A     -0.501214
      25A     -0.483654    26A     -0.462516    27A     -0.443343
      28A     -0.346966

  @DF-RHF Final Energy:  -309.14845751751540

   => Energetics <=

    Nuclear Repulsion Energy =            299.0375285139217567
    One-Electron Energy =               -1011.7083694405969254
    Two-Electron Energy =                 403.5223834091597723
    Total Energy =                       -309.1484575175153964
  Basis Set: (AUG-CC-PVTZ AUX)
    Blend: AUG-CC-PVTZ-RI
    Molecular point group: c1

    Geometry (in Angstrom), charge = 0, multiplicity = 1:

       Center              X                  Y                   Z               Mass
    ------------   -----------------  -----------------  -----------------  -----------------
         O           -2.341291579542    -1.112674723596    -0.122010506889    15.994914619570
         C           -1.516031579542    -0.023616723596     0.315903493111    12.000000000000
         C           -0.170600579542    -0.250388723596    -0.291707506889    12.000000000000
         C            2.334540420458    -0.441848723596    -0.201592506889    12.000000000000
         C            0.977865020458    -0.299798223596     0.416431193111    12.000000000000
         C           -2.110657579542     1.309131276404    -0.123159506889    12.000000000000
         C            3.212949420458     0.789747276404     0.025459493111    12.000000000000
         H           -1.421152579542    -0.037657723596     1.413327493111     1.007825032230
         H           -0.161280579542    -0.381379723596    -1.374457506889     1.007825032230
         H            2.234755420458    -0.636521723596    -1.275176506889     1.007825032230
         H            2.810340720458    -1.323690023596     0.245790293111     1.007825032230
         H            0.936435420458    -0.155993723596     1.486162493111     1.007825032230
         H           -1.476789579542     2.140632276404     0.195926493111     1.007825032230
         H           -2.201213579542     1.329438276404    -1.212391506889     1.007825032230
         H           -3.107231579542     1.453842276404     0.309859493111     1.007825032230
         H            3.329738420458     0.994870276404     1.093597493111     1.007825032230
         H            2.763266420458     1.671412276404    -0.438691506889     1.007825032230
         H            4.210029420458     0.648264276404    -0.401015506889     1.007825032230
         H           -3.241505579542    -0.942049723596     0.210616493111     1.007825032230

  Basis Set: AUG-CC-PVTZ
    Blend: AUG-CC-PVTZ
  Basis Set: (AUG-CC-PVTZ AUX)
    Blend: AUG-CC-PVTZ-JKFIT
	 Reference Energy          =    -309.1484575175153964 [Eh]
	 Singles Energy            =      -0.0000000000000000 [Eh]
	 Same-Spin Energy          =      -0.3166447048441868 [Eh]
	 Opposite-Spin Energy      =      -1.1026706820101404 [Eh]
	 Correlation Energy        =      -1.4193153868543271 [Eh]
	 Total Energy              =    -310.5677729043697468 [Eh]

	 ================> DF-SCS-MP2 Energies <==================
	-----------------------------------------------------------
	 SCS Same-Spin Scale       =       0.3333333333333333 [-]
	 SCS Opposite-Spin Scale   =       1.2000000000000000 [-]
	 SCS Same-Spin Energy      =      -0.1055482349480623 [Eh]
	 SCS Opposite-Spin Energy  =      -1.3232048184121685 [Eh]
	 SCS Correlation Energy    =      -1.4287530533602308 [Eh]
	 SCS Total Energy          =    -310.5772105708756499 [Eh]
	-----------------------------------------------------------

  Dipole Moment: [D]
     X:    -0.0842      Y:     1.4044      Z:     0.8203     Total:     1.6286

*** Psi4 exiting successfully. Buy a developer a beer!
