                               Psi4 1.4a3.dev225

  ==> Input File <==

--------------------------------------------------------------------------
#psi4
#
memory 32 gb

molecule  {
0 1
  O       -2.4334040    -1.0537050    -0.1031880
  C       -1.5599110     0.0061750     0.3163080
  C       -0.2252920    -0.2882920    -0.2906650
  C        2.2718840    -0.5904540    -0.1973150
  C        0.9611047    -0.3608666     0.4299186
  C       -2.0985830     1.3582810    -0.1413790
  C        3.2072160     0.6032460     0.0168350
  H       -1.4627270     0.0051460     1.4138490
  H       -0.2231950    -0.4335060    -1.3719210
  H        2.1635620    -0.7923810    -1.2691220
  H        2.7222980    -1.4861610     0.2495370
  H        0.8868390    -0.2195170     1.4869310
  H       -1.4287050     2.1666040     0.1650490
  H       -2.1908800     1.3667930    -1.2308750
  H       -3.0873820     1.5512680     0.2912850
  H        3.3343300     0.8133780     1.0831920
  H        2.7976640     1.4999730    -0.4563300
  H        4.1964720     0.4112550    -0.4090930
  H       -3.3235000    -0.8374140     0.2263080
units angstrom
no_reorient  #important for SAPT in psi4, default
symmetry c1  #important for SAPT in psi4, default
}

set PROPERTIES_ORIGIN ["COM"]
properties('MP2/aug-cc-pvtz', properties = ['dipole'])
--------------------------------------------------------------------------

    Molecular point group: c1
  Charge       = 0
  Multiplicity = 1
  Basis Set: AUG-CC-PVTZ
    Blend: AUG-CC-PVTZ
  Basis Set: (AUG-CC-PVTZ AUX)
    Blend: AUG-CC-PVTZ-JKFIT

    Orbital Energies [Eh]
    ---------------------

    Doubly Occupied:

       1A    -20.555169     2A    -11.283624     3A    -11.232328
       4A    -11.228076     5A    -11.224056     6A    -11.219592
       7A    -11.215697     8A     -1.353818     9A     -1.087535
      10A     -1.034261    11A     -0.965390    12A     -0.878520
      13A     -0.807840    14A     -0.758527    15A     -0.682289
      16A     -0.633084    17A     -0.624105    18A     -0.597577
      19A     -0.590970    20A     -0.542882    21A     -0.540720
      22A     -0.529014    23A     -0.516452    24A     -0.502560
      25A     -0.485137    26A     -0.467035    27A     -0.443359
      28A     -0.337263

  @DF-RHF Final Energy:  -309.14311840891355

   => Energetics <=

    Nuclear Repulsion Energy =            298.5171341265440788
    One-Electron Energy =               -1010.6467419847261908
    Two-Electron Energy =                 402.9864894492685607
    Total Energy =                       -309.1431184089135513
  Basis Set: (AUG-CC-PVTZ AUX)
    Blend: AUG-CC-PVTZ-RI
    Molecular point group: c1

    Geometry (in Angstrom), charge = 0, multiplicity = 1:

       Center              X                  Y                   Z               Mass
    ------------   -----------------  -----------------  -----------------  -----------------
         O           -2.395178172257    -1.013343296984    -0.104528380983    15.994914619570
         C           -1.521685172257     0.046536703016     0.314967619017    12.000000000000
         C           -0.187066172257    -0.247930296984    -0.292005380983    12.000000000000
         C            2.310109827743    -0.550092296984    -0.198655380983    12.000000000000
         C            0.999330527743    -0.320504896984     0.428578219017    12.000000000000
         C           -2.060357172257     1.398642703016    -0.142719380983    12.000000000000
         C            3.245441827743     0.643607703016     0.015494619017    12.000000000000
         H           -1.424501172257     0.045507703016     1.412508619017     1.007825032230
         H           -0.184969172257    -0.393144296984    -1.373261380983     1.007825032230
         H            2.201787827743    -0.752019296984    -1.270462380983     1.007825032230
         H            2.760523827743    -1.445799296984     0.248196619017     1.007825032230
         H            0.925064827743    -0.179155296984     1.485590619017     1.007825032230
         H           -1.390479172257     2.206965703016     0.163708619017     1.007825032230
         H           -2.152654172257     1.407154703016    -1.232215380983     1.007825032230
         H           -3.049156172257     1.591629703016     0.289944619017     1.007825032230
         H            3.372555827743     0.853739703016     1.081851619017     1.007825032230
         H            2.835889827743     1.540334703016    -0.457670380983     1.007825032230
         H            4.234697827743     0.451616703016    -0.410433380983     1.007825032230
         H           -3.285274172257    -0.797052296984     0.224967619017     1.007825032230

  Basis Set: AUG-CC-PVTZ
    Blend: AUG-CC-PVTZ
  Basis Set: (AUG-CC-PVTZ AUX)
    Blend: AUG-CC-PVTZ-JKFIT
	 Reference Energy          =    -309.1431184089135513 [Eh]
	 Singles Energy            =      -0.0000000000000000 [Eh]
	 Same-Spin Energy          =      -0.3173009914035565 [Eh]
	 Opposite-Spin Energy      =      -1.1040374678138245 [Eh]
	 Correlation Energy        =      -1.4213384592173810 [Eh]
	 Total Energy              =    -310.5644568681309465 [Eh]

	 ================> DF-SCS-MP2 Energies <==================
	-----------------------------------------------------------
	 SCS Same-Spin Scale       =       0.3333333333333333 [-]
	 SCS Opposite-Spin Scale   =       1.2000000000000000 [-]
	 SCS Same-Spin Energy      =      -0.1057669971345188 [Eh]
	 SCS Opposite-Spin Energy  =      -1.3248449613765894 [Eh]
	 SCS Correlation Energy    =      -1.4306119585111081 [Eh]
	 SCS Total Energy          =    -310.5737303674246732 [Eh]
	-----------------------------------------------------------

  Dipole Moment: [D]
     X:     0.0029      Y:     1.3920      Z:     0.8020     Total:     1.6065

*** Psi4 exiting successfully. Buy a developer a beer!
