                               Psi4 1.4a3.dev225

  ==> Input File <==

--------------------------------------------------------------------------
#psi4
#
memory 32 gb

molecule  {
0 1
  O       -2.4334040    -1.0537050    -0.1031880
  C       -1.5599110     0.0061750     0.3163080
  C       -0.2252920    -0.2882920    -0.2906650
  C        2.2718840    -0.5904540    -0.1973150
  C        0.9184280    -0.3582560     0.4039980
  C       -2.0985830     1.3582810    -0.1413790
  C        3.2072160     0.6032460     0.0168350
  H       -1.4627270     0.0051460     1.4138490
  H       -0.2231950    -0.4335060    -1.3719210
  H        2.1635620    -0.7923810    -1.2691220
  H        2.7222980    -1.4861610     0.2495370
  H        0.8868390    -0.2195170     1.4869310
  H       -1.4287050     2.1666040     0.1650490
  H       -2.1908800     1.3667930    -1.2308750
  H       -3.0873820     1.5512680     0.2912850
  H        3.3343300     0.8133780     1.0831920
  H        2.7976640     1.4999730    -0.4563300
  H        4.1964720     0.4112550    -0.4090930
  H       -3.3052127    -0.8418578     0.2195384
units angstrom
no_reorient  #important for SAPT in psi4, default
symmetry c1  #important for SAPT in psi4, default
}

set PROPERTIES_ORIGIN ["COM"]
properties('MP2/aug-cc-pvtz', properties = ['dipole'])
--------------------------------------------------------------------------

    Molecular point group: c1
  Charge       = 0
  Multiplicity = 1
  Basis Set: AUG-CC-PVTZ
    Blend: AUG-CC-PVTZ
  Basis Set: (AUG-CC-PVTZ AUX)
    Blend: AUG-CC-PVTZ-JKFIT

    Orbital Energies [Eh]
    ---------------------

    Doubly Occupied:

       1A    -20.553333     2A    -11.283547     3A    -11.228283
       4A    -11.224969     5A    -11.221526     6A    -11.219835
       7A    -11.215622     8A     -1.358338     9A     -1.089630
      10A     -1.033687    11A     -0.970917    12A     -0.876273
      13A     -0.811282    14A     -0.754986    15A     -0.684262
      16A     -0.633625    17A     -0.625505    18A     -0.598101
      19A     -0.589186    20A     -0.543391    21A     -0.539887
      22A     -0.531319    23A     -0.516323    24A     -0.502368
      25A     -0.482136    26A     -0.463005    27A     -0.444152
      28A     -0.349673

  @DF-RHF Final Energy:  -309.15026497757634

   => Energetics <=

    Nuclear Repulsion Energy =            299.0441772305097743
    One-Electron Energy =               -1011.6985621645494575
    Two-Electron Energy =                 403.5041199564632848
    Total Energy =                       -309.1502649775763416
  Basis Set: (AUG-CC-PVTZ AUX)
    Blend: AUG-CC-PVTZ-RI
    Molecular point group: c1

    Geometry (in Angstrom), charge = 0, multiplicity = 1:

       Center              X                  Y                   Z               Mass
    ------------   -----------------  -----------------  -----------------  -----------------
         O           -2.390245653062    -1.013611545011    -0.101352503915    15.994914619570
         C           -1.516752653062     0.046268454989     0.318143496085    12.000000000000
         C           -0.182133653062    -0.248198545011    -0.288829503915    12.000000000000
         C            2.315042346938    -0.550360545011    -0.195479503915    12.000000000000
         C            0.961586346938    -0.318162545011     0.405833496085    12.000000000000
         C           -2.055424653062     1.398374454989    -0.139543503915    12.000000000000
         C            3.250374346938     0.643339454989     0.018670496085    12.000000000000
         H           -1.419568653062     0.045239454989     1.415684496085     1.007825032230
         H           -0.180036653062    -0.393412545011    -1.370085503915     1.007825032230
         H            2.206720346938    -0.752287545011    -1.267286503915     1.007825032230
         H            2.765456346938    -1.446067545011     0.251372496085     1.007825032230
         H            0.929997346938    -0.179423545011     1.488766496085     1.007825032230
         H           -1.385546653062     2.206697454989     0.166884496085     1.007825032230
         H           -2.147721653062     1.406886454989    -1.229039503915     1.007825032230
         H           -3.044223653062     1.591361454989     0.293120496085     1.007825032230
         H            3.377488346938     0.853471454989     1.085027496085     1.007825032230
         H            2.840822346938     1.540066454989    -0.454494503915     1.007825032230
         H            4.239630346938     0.451348454989    -0.407257503915     1.007825032230
         H           -3.262054353062    -0.801764345011     0.221373896085     1.007825032230

  Basis Set: AUG-CC-PVTZ
    Blend: AUG-CC-PVTZ
  Basis Set: (AUG-CC-PVTZ AUX)
    Blend: AUG-CC-PVTZ-JKFIT
	 Reference Energy          =    -309.1502649775763416 [Eh]
	 Singles Energy            =      -0.0000000000000000 [Eh]
	 Same-Spin Energy          =      -0.3162219695479408 [Eh]
	 Opposite-Spin Energy      =      -1.1017728201905557 [Eh]
	 Correlation Energy        =      -1.4179947897384966 [Eh]
	 Total Energy              =    -310.5682597673148280 [Eh]

	 ================> DF-SCS-MP2 Energies <==================
	-----------------------------------------------------------
	 SCS Same-Spin Scale       =       0.3333333333333333 [-]
	 SCS Opposite-Spin Scale   =       1.2000000000000000 [-]
	 SCS Same-Spin Energy      =      -0.1054073231826469 [Eh]
	 SCS Opposite-Spin Energy  =      -1.3221273842286667 [Eh]
	 SCS Correlation Energy    =      -1.4275347074113136 [Eh]
	 SCS Total Energy          =    -310.5777996849876672 [Eh]
	-----------------------------------------------------------

  Dipole Moment: [D]
     X:    -0.0177      Y:     1.4003      Z:     0.7873     Total:     1.6066

*** Psi4 exiting successfully. Buy a developer a beer!
