                               Psi4 1.3.2 release

  ==> Input File <==

--------------------------------------------------------------------------
#psi4
#
memory 32 gb

molecule  {
0 1
  O       -2.3409430    -1.1152500    -0.1201430
  C       -1.5156830    -0.0261920     0.3177710
  C       -0.1702520    -0.2529640    -0.2898400
  C        2.3402138    -0.4434857    -0.1878272
  C        0.9740050    -0.2811540     0.4036300
  C       -2.1103090     1.3065560    -0.1212920
  C        3.2132980     0.7871720     0.0273270
  H       -1.4208040    -0.0402330     1.4151950
  H       -0.1609320    -0.3839550    -1.3725900
  H        2.2351040    -0.6390970    -1.2733090
  H        2.8261900    -1.3231820     0.2368400
  H        0.9462851    -0.1592036     1.4883860
  H       -1.4764410     2.1380570     0.1977940
  H       -2.2008650     1.3268630    -1.2105240
  H       -3.1068830     1.4512670     0.3117270
  H        3.3300870     0.9922950     1.0954650
  H        2.7636150     1.6688370    -0.4368240
  H        4.2103780     0.6456890    -0.3991480
  H       -3.2411570    -0.9446250     0.2124840
units angstrom
no_reorient  #important for SAPT in psi4, default
symmetry c1  #important for SAPT in psi4, default
}

set PROPERTIES_ORIGIN ["COM"]
properties('MP2/aug-cc-pvtz', properties = ['dipole'])
--------------------------------------------------------------------------

    Molecular point group: c1
  Charge       = 0
  Multiplicity = 1
  Basis Set: AUG-CC-PVTZ
    Blend: AUG-CC-PVTZ
  Basis Set: (AUG-CC-PVTZ AUX)
    Blend: AUG-CC-PVTZ-JKFIT

    Orbital Energies [Eh]
    ---------------------

    Doubly Occupied:

       1A    -20.555361     2A    -11.282949     3A    -11.227787
       4A    -11.224534     5A    -11.221319     6A    -11.219384
       7A    -11.215085     8A     -1.354146     9A     -1.090122
      10A     -1.034099    11A     -0.971511    12A     -0.876039
      13A     -0.810211    14A     -0.754738    15A     -0.681628
      16A     -0.633996    17A     -0.624625    18A     -0.599083
      19A     -0.588613    20A     -0.543306    21A     -0.539774
      22A     -0.532183    23A     -0.517918    24A     -0.502190
      25A     -0.478636    26A     -0.462504    27A     -0.443747
      28A     -0.350341

  @DF-RHF Final Energy:  -309.14913234999375

   => Energetics <=

    Nuclear Repulsion Energy =            299.2133024197518694
    One-Electron Energy =               -1012.0532120056450367
    Two-Electron Energy =                 403.6907772358993611
    Total Energy =                       -309.1491323499937494
  Basis Set: (AUG-CC-PVTZ AUX)
    Blend: AUG-CC-PVTZ-RI
    Molecular point group: c1

    Geometry (in Angstrom), charge = 0, multiplicity = 1:

       Center              X                  Y                   Z               Mass
    ------------   -----------------  -----------------  -----------------  -----------------
         O           -2.341677155491    -1.115355956870    -0.121572950865    15.994914619570
         C           -1.516417155491    -0.026297956870     0.316341049135    12.000000000000
         C           -0.170986155491    -0.253069956870    -0.291269950865    12.000000000000
         C            2.339479644509    -0.443591656870    -0.189257150865    12.000000000000
         C            0.973270844509    -0.281259956870     0.402200049135    12.000000000000
         C           -2.111043155491     1.306450043130    -0.122721950865    12.000000000000
         C            3.212563844509     0.787066043130     0.025897049135    12.000000000000
         H           -1.421538155491    -0.040338956870     1.413765049135     1.007825032230
         H           -0.161666155491    -0.384060956870    -1.374019950865     1.007825032230
         H            2.234369844509    -0.639202956870    -1.274738950865     1.007825032230
         H            2.825455844509    -1.323287956870     0.235410049135     1.007825032230
         H            0.945550944509    -0.159309556870     1.486956049135     1.007825032230
         H           -1.477175155491     2.137951043130     0.196364049135     1.007825032230
         H           -2.201599155491     1.326757043130    -1.211953950865     1.007825032230
         H           -3.107617155491     1.451161043130     0.310297049135     1.007825032230
         H            3.329352844509     0.992189043130     1.094035049135     1.007825032230
         H            2.762880844509     1.668731043130    -0.438253950865     1.007825032230
         H            4.209643844509     0.645583043130    -0.400577950865     1.007825032230
         H           -3.241891155491    -0.944730956870     0.211054049135     1.007825032230

  Basis Set: AUG-CC-PVTZ
    Blend: AUG-CC-PVTZ
  Basis Set: (AUG-CC-PVTZ AUX)
    Blend: AUG-CC-PVTZ-JKFIT
	 Reference Energy          =    -309.1491323499937494 [Eh]
	 Singles Energy            =      -0.0000000000000000 [Eh]
	 Same-Spin Energy          =      -0.3165540359631641 [Eh]
	 Opposite-Spin Energy      =      -1.1024266147470474 [Eh]
	 Correlation Energy        =      -1.4189806507102114 [Eh]
	 Total Energy              =    -310.5681130007039883 [Eh]

	 ================> DF-SCS-MP2 Energies <==================
	-----------------------------------------------------------
	 SCS Same-Spin Scale       =       0.3333333333333333 [-]
	 SCS Opposite-Spin Scale   =       1.2000000000000000 [-]
	 SCS Same-Spin Energy      =      -0.1055180119877214 [Eh]
	 SCS Opposite-Spin Energy  =      -1.3229119376964569 [Eh]
	 SCS Correlation Energy    =      -1.4284299496841784 [Eh]
	 SCS Total Energy          =    -310.5775622996779362 [Eh]
	-----------------------------------------------------------

  Dipole Moment: [D]
     X:    -0.0962      Y:     1.3806      Z:     0.8204     Total:     1.6088

*** Psi4 exiting successfully. Buy a developer a beer!
