                               Psi4 1.3.2 release

  ==> Input File <==

--------------------------------------------------------------------------
#psi4
#
memory 32 gb

molecule  {
0 1
  O       -2.3409430    -1.1152500    -0.1201430
  C       -1.5156830    -0.0261920     0.3177710
  C       -0.1702520    -0.2529640    -0.2898400
  C        2.3007788    -0.4497902    -0.2701152
  C        0.9740050    -0.2811540     0.4036300
  C       -2.1103090     1.3065560    -0.1212920
  C        3.2132980     0.7871720     0.0273270
  H       -1.4208040    -0.0402330     1.4151950
  H       -0.1609320    -0.3839550    -1.3725900
  H        2.2351040    -0.6390970    -1.2733090
  H        2.8261900    -1.3231820     0.2368400
  H        0.8798620    -0.1549592     1.4841613
  H       -1.4764410     2.1380570     0.1977940
  H       -2.2008650     1.3268630    -1.2105240
  H       -3.1068830     1.4512670     0.3117270
  H        3.3300870     0.9922950     1.0954650
  H        2.7636150     1.6688370    -0.4368240
  H        4.2103780     0.6456890    -0.3991480
  H       -3.2411570    -0.9446250     0.2124840
units angstrom
no_reorient  #important for SAPT in psi4, default
symmetry c1  #important for SAPT in psi4, default
}

set PROPERTIES_ORIGIN ["COM"]
properties('MP2/aug-cc-pvtz', properties = ['dipole'])
--------------------------------------------------------------------------

    Molecular point group: c1
  Charge       = 0
  Multiplicity = 1
  Basis Set: AUG-CC-PVTZ
    Blend: AUG-CC-PVTZ
  Basis Set: (AUG-CC-PVTZ AUX)
    Blend: AUG-CC-PVTZ-JKFIT

    Orbital Energies [Eh]
    ---------------------

    Doubly Occupied:

       1A    -20.554983     2A    -11.282208     3A    -11.227603
       4A    -11.225192     5A    -11.219051     6A    -11.218431
       7A    -11.216731     8A     -1.353741     9A     -1.090049
      10A     -1.030855    11A     -0.969094    12A     -0.875531
      13A     -0.813160    14A     -0.757223    15A     -0.682000
      16A     -0.630675    17A     -0.625893    18A     -0.594759
      19A     -0.592396    20A     -0.542410    21A     -0.539978
      22A     -0.527655    23A     -0.509840    24A     -0.504586
      25A     -0.491498    26A     -0.461345    27A     -0.443443
      28A     -0.346515

  @DF-RHF Final Energy:  -309.14181291997710

   => Energetics <=

    Nuclear Repulsion Energy =            299.2206385680819949
    One-Electron Energy =               -1012.0712106366423768
    Two-Electron Energy =                 403.7087591485832831
    Total Energy =                       -309.1418129199770988
  Basis Set: (AUG-CC-PVTZ AUX)
    Blend: AUG-CC-PVTZ-RI
    Molecular point group: c1

    Geometry (in Angstrom), charge = 0, multiplicity = 1:

       Center              X                  Y                   Z               Mass
    ------------   -----------------  -----------------  -----------------  -----------------
         O           -2.336280320062    -1.114642826363    -0.111664613372    15.994914619570
         C           -1.511020320062    -0.025584826363     0.326249386628    12.000000000000
         C           -0.165589320062    -0.252356826363    -0.281361613372    12.000000000000
         C            2.305441479938    -0.449183026363    -0.261636813372    12.000000000000
         C            0.978667679938    -0.280546826363     0.412108386628    12.000000000000
         C           -2.105646320062     1.307163173637    -0.112813613372    12.000000000000
         C            3.217960679938     0.787779173637     0.035805386628    12.000000000000
         H           -1.416141320062    -0.039625826363     1.423673386628     1.007825032230
         H           -0.156269320062    -0.383347826363    -1.364111613372     1.007825032230
         H            2.239766679938    -0.638489826363    -1.264830613372     1.007825032230
         H            2.830852679938    -1.322574826363     0.245318386628     1.007825032230
         H            0.884524679938    -0.154352026363     1.492639686628     1.007825032230
         H           -1.471778320062     2.138664173637     0.206272386628     1.007825032230
         H           -2.196202320062     1.327470173637    -1.202045613372     1.007825032230
         H           -3.102220320062     1.451874173637     0.320205386628     1.007825032230
         H            3.334749679938     0.992902173637     1.103943386628     1.007825032230
         H            2.768277679938     1.669444173637    -0.428345613372     1.007825032230
         H            4.215040679938     0.646296173637    -0.390669613372     1.007825032230
         H           -3.236494320062    -0.944017826363     0.220962386628     1.007825032230

  Basis Set: AUG-CC-PVTZ
    Blend: AUG-CC-PVTZ
  Basis Set: (AUG-CC-PVTZ AUX)
    Blend: AUG-CC-PVTZ-JKFIT
	 Reference Energy          =    -309.1418129199770988 [Eh]
	 Singles Energy            =      -0.0000000000000000 [Eh]
	 Same-Spin Energy          =      -0.3165963198641505 [Eh]
	 Opposite-Spin Energy      =      -1.1025579457153603 [Eh]
	 Correlation Energy        =      -1.4191542655795106 [Eh]
	 Total Energy              =    -310.5609671855565921 [Eh]

	 ================> DF-SCS-MP2 Energies <==================
	-----------------------------------------------------------
	 SCS Same-Spin Scale       =       0.3333333333333333 [-]
	 SCS Opposite-Spin Scale   =       1.2000000000000000 [-]
	 SCS Same-Spin Energy      =      -0.1055321066213835 [Eh]
	 SCS Opposite-Spin Energy  =      -1.3230695348584323 [Eh]
	 SCS Correlation Energy    =      -1.4286016414798157 [Eh]
	 SCS Total Energy          =    -310.5704145614569143 [Eh]
	-----------------------------------------------------------

  Dipole Moment: [D]
     X:    -0.0956      Y:     1.3805      Z:     0.7853     Total:     1.5912

*** Psi4 exiting successfully. Buy a developer a beer!
