                               Psi4 1.3.2 release

  ==> Input File <==

--------------------------------------------------------------------------
#psi4
#
memory 32 gb

molecule  {
0 1
  O       -2.3409430    -1.1152500    -0.1201430
  C       -1.5156830    -0.0261920     0.3177710
  C       -0.1702520    -0.2529640    -0.2898400
  C        2.3348890    -0.4444240    -0.1997250
  C        0.9680102    -0.2793846     0.4134953
  C       -2.1103090     1.3065560    -0.1212920
  C        3.2132980     0.7871720     0.0273270
  H       -1.4208040    -0.0402330     1.4151950
  H       -0.1704057    -0.3830497    -1.3727392
  H        2.2351040    -0.6390970    -1.2733090
  H        2.8261900    -1.3231820     0.2368400
  H        0.9367840    -0.1585690     1.4880300
  H       -1.4764410     2.1380570     0.1977940
  H       -2.2008650     1.3268630    -1.2105240
  H       -3.1068830     1.4512670     0.3117270
  H        3.3300870     0.9922950     1.0954650
  H        2.7636150     1.6688370    -0.4368240
  H        4.2103780     0.6456890    -0.3991480
  H       -3.2411570    -0.9446250     0.2124840
units angstrom
no_reorient  #important for SAPT in psi4, default
symmetry c1  #important for SAPT in psi4, default
}

set PROPERTIES_ORIGIN ["COM"]
properties('MP2/aug-cc-pvtz', properties = ['dipole'])
--------------------------------------------------------------------------

    Molecular point group: c1
  Charge       = 0
  Multiplicity = 1
  Basis Set: AUG-CC-PVTZ
    Blend: AUG-CC-PVTZ
  Basis Set: (AUG-CC-PVTZ AUX)
    Blend: AUG-CC-PVTZ-JKFIT

    Orbital Energies [Eh]
    ---------------------

    Doubly Occupied:

       1A    -20.555187     2A    -11.282335     3A    -11.227394
       4A    -11.224725     5A    -11.221085     6A    -11.219221
       7A    -11.214985     8A     -1.353974     9A     -1.089226
      10A     -1.033003    11A     -0.971088    12A     -0.875097
      13A     -0.809868    14A     -0.756618    15A     -0.681914
      16A     -0.632961    17A     -0.624638    18A     -0.597455
      19A     -0.589212    20A     -0.542904    21A     -0.540866
      22A     -0.532122    23A     -0.515827    24A     -0.501336
      25A     -0.482791    26A     -0.460993    27A     -0.443584
      28A     -0.350124

  @DF-RHF Final Energy:  -309.14939369995824

   => Energetics <=

    Nuclear Repulsion Energy =            299.1613497363345573
    One-Electron Energy =               -1011.9604185570125310
    Two-Electron Energy =                 403.6496751207197917
    Total Energy =                       -309.1493936999582388
  Basis Set: (AUG-CC-PVTZ AUX)
    Blend: AUG-CC-PVTZ-RI
    Molecular point group: c1

    Geometry (in Angstrom), charge = 0, multiplicity = 1:

       Center              X                  Y                   Z               Mass
    ------------   -----------------  -----------------  -----------------  -----------------
         O           -2.340128945750    -1.115471106098    -0.121324180279    15.994914619570
         C           -1.514868945750    -0.026413106098     0.316589819721    12.000000000000
         C           -0.169437945750    -0.253185106098    -0.291021180279    12.000000000000
         C            2.335703054250    -0.444645106098    -0.200906180279    12.000000000000
         C            0.968824254250    -0.279605706098     0.412314119721    12.000000000000
         C           -2.109494945750     1.306334893902    -0.122473180279    12.000000000000
         C            3.214112054250     0.786950893902     0.026145819721    12.000000000000
         H           -1.419989945750    -0.040454106098     1.414013819721     1.007825032230
         H           -0.169591645750    -0.383270806098    -1.373920380279     1.007825032230
         H            2.235918054250    -0.639318106098    -1.274490180279     1.007825032230
         H            2.827004054250    -1.323403106098     0.235658819721     1.007825032230
         H            0.937598054250    -0.158790106098     1.486848819721     1.007825032230
         H           -1.475626945750     2.137835893902     0.196612819721     1.007825032230
         H           -2.200050945750     1.326641893902    -1.211705180279     1.007825032230
         H           -3.106068945750     1.451045893902     0.310545819721     1.007825032230
         H            3.330901054250     0.992073893902     1.094283819721     1.007825032230
         H            2.764429054250     1.668615893902    -0.438005180279     1.007825032230
         H            4.211192054250     0.645467893902    -0.400329180279     1.007825032230
         H           -3.240342945750    -0.944846106098     0.211302819721     1.007825032230

  Basis Set: AUG-CC-PVTZ
    Blend: AUG-CC-PVTZ
  Basis Set: (AUG-CC-PVTZ AUX)
    Blend: AUG-CC-PVTZ-JKFIT
	 Reference Energy          =    -309.1493936999582388 [Eh]
	 Singles Energy            =      -0.0000000000000000 [Eh]
	 Same-Spin Energy          =      -0.3164406622422523 [Eh]
	 Opposite-Spin Energy      =      -1.1022931714759912 [Eh]
	 Correlation Energy        =      -1.4187338337182434 [Eh]
	 Total Energy              =    -310.5681275336764884 [Eh]

	 ================> DF-SCS-MP2 Energies <==================
	-----------------------------------------------------------
	 SCS Same-Spin Scale       =       0.3333333333333333 [-]
	 SCS Opposite-Spin Scale   =       1.2000000000000000 [-]
	 SCS Same-Spin Energy      =      -0.1054802207474174 [Eh]
	 SCS Opposite-Spin Energy  =      -1.3227518057711893 [Eh]
	 SCS Correlation Energy    =      -1.4282320265186068 [Eh]
	 SCS Total Energy          =    -310.5776257264768674 [Eh]
	-----------------------------------------------------------

  Dipole Moment: [D]
     X:    -0.1042      Y:     1.3780      Z:     0.8182     Total:     1.6060

*** Psi4 exiting successfully. Buy a developer a beer!
