                               Psi4 1.4a3.dev225

  ==> Input File <==

--------------------------------------------------------------------------
#psi4
#
memory 32 gb

molecule  {
0 1
  O       -2.4334040    -1.0537050    -0.1031880
  C       -1.5599110     0.0061750     0.3163080
  C       -0.2252920    -0.2882920    -0.2906650
  C        2.2718840    -0.5904540    -0.1973150
  C        0.9184280    -0.3582560     0.4039980
  C       -2.0985830     1.3582810    -0.1413790
  C        3.2072160     0.6032460     0.0168350
  H       -1.4627270     0.0051460     1.4138490
  H       -0.2231950    -0.4335060    -1.3719210
  H        2.1635620    -0.7923810    -1.2691220
  H        2.7222980    -1.4861610     0.2495370
  H        0.8868390    -0.2195170     1.4869310
  H       -1.4287050     2.1666040     0.1650490
  H       -2.1908800     1.3667930    -1.2308750
  H       -3.0873820     1.5512680     0.2912850
  H        3.3343300     0.8133780     1.0831920
  H        2.7976640     1.4999730    -0.4563300
  H        4.1964720     0.4112550    -0.4090930
  H       -3.2777817    -0.8485234     0.2093840
units angstrom
no_reorient  #important for SAPT in psi4, default
symmetry c1  #important for SAPT in psi4, default
}

set PROPERTIES_ORIGIN ["COM"]
properties('MP2/aug-cc-pvtz', properties = ['dipole'])
--------------------------------------------------------------------------

    Molecular point group: c1
  Charge       = 0
  Multiplicity = 1
  Basis Set: AUG-CC-PVTZ
    Blend: AUG-CC-PVTZ
  Basis Set: (AUG-CC-PVTZ AUX)
    Blend: AUG-CC-PVTZ-JKFIT

    Orbital Energies [Eh]
    ---------------------

    Doubly Occupied:

       1A    -20.550345     2A    -11.283862     3A    -11.228317
       4A    -11.225010     5A    -11.221596     6A    -11.220044
       7A    -11.215660     8A     -1.365588     9A     -1.090160
      10A     -1.034695    11A     -0.971095    12A     -0.877188
      13A     -0.812793    14A     -0.755159    15A     -0.688729
      16A     -0.634545    17A     -0.626830    18A     -0.598274
      19A     -0.589384    20A     -0.544057    21A     -0.540037
      22A     -0.531648    23A     -0.516540    24A     -0.503006
      25A     -0.482208    26A     -0.463500    27A     -0.444921
      28A     -0.349781

  @DF-RHF Final Energy:  -309.15007751152348

   => Energetics <=

    Nuclear Repulsion Energy =            299.2339603923625191
    One-Electron Energy =               -1012.0381268832146588
    Two-Electron Energy =                 403.6540889793286624
    Total Energy =                       -309.1500775115234774
  Basis Set: (AUG-CC-PVTZ AUX)
    Blend: AUG-CC-PVTZ-RI
    Molecular point group: c1

    Geometry (in Angstrom), charge = 0, multiplicity = 1:

       Center              X                  Y                   Z               Mass
    ------------   -----------------  -----------------  -----------------  -----------------
         O           -2.390521864229    -1.013544427036    -0.101250256141    15.994914619570
         C           -1.517028864229     0.046335572964     0.318245743859    12.000000000000
         C           -0.182409864229    -0.248131427036    -0.288727256141    12.000000000000
         C            2.314766135771    -0.550293427036    -0.195377256141    12.000000000000
         C            0.961310135771    -0.318095427036     0.405935743859    12.000000000000
         C           -2.055700864229     1.398441572964    -0.139441256141    12.000000000000
         C            3.250098135771     0.643406572964     0.018772743859    12.000000000000
         H           -1.419844864229     0.045306572964     1.415786743859     1.007825032230
         H           -0.180312864229    -0.393345427036    -1.369983256141     1.007825032230
         H            2.206444135771    -0.752220427036    -1.267184256141     1.007825032230
         H            2.765180135771    -1.446000427036     0.251474743859     1.007825032230
         H            0.929721135771    -0.179356427036     1.488868743859     1.007825032230
         H           -1.385822864229     2.206764572964     0.166986743859     1.007825032230
         H           -2.147997864229     1.406953572964    -1.228937256141     1.007825032230
         H           -3.044499864229     1.591428572964     0.293222743859     1.007825032230
         H            3.377212135771     0.853538572964     1.085129743859     1.007825032230
         H            2.840546135771     1.540133572964    -0.454392256141     1.007825032230
         H            4.239354135771     0.451415572964    -0.407155256141     1.007825032230
         H           -3.234899564229    -0.808362827036     0.211321743859     1.007825032230

  Basis Set: AUG-CC-PVTZ
    Blend: AUG-CC-PVTZ
  Basis Set: (AUG-CC-PVTZ AUX)
    Blend: AUG-CC-PVTZ-JKFIT
	 Reference Energy          =    -309.1500775115234774 [Eh]
	 Singles Energy            =      -0.0000000000000000 [Eh]
	 Same-Spin Energy          =      -0.3158537825692836 [Eh]
	 Opposite-Spin Energy      =      -1.1008511873182956 [Eh]
	 Correlation Energy        =      -1.4167049698875793 [Eh]
	 Total Energy              =    -310.5667824814110531 [Eh]

	 ================> DF-SCS-MP2 Energies <==================
	-----------------------------------------------------------
	 SCS Same-Spin Scale       =       0.3333333333333333 [-]
	 SCS Opposite-Spin Scale   =       1.2000000000000000 [-]
	 SCS Same-Spin Energy      =      -0.1052845941897612 [Eh]
	 SCS Opposite-Spin Energy  =      -1.3210214247819547 [Eh]
	 SCS Correlation Energy    =      -1.4263060189717158 [Eh]
	 SCS Total Energy          =    -310.5763835304952067 [Eh]
	-----------------------------------------------------------

  Dipole Moment: [D]
     X:     0.0003      Y:     1.4027      Z:     0.7819     Total:     1.6059

*** Psi4 exiting successfully. Buy a developer a beer!
