                               Psi4 1.4a3.dev225

  ==> Input File <==

--------------------------------------------------------------------------
#psi4
#
memory 32 gb

molecule  {
0 1
  O       -2.4334040    -1.0537050    -0.1031880
  C       -1.5599110     0.0061750     0.3163080
  C       -0.2699150    -0.2784465    -0.2703708
  C        2.2718840    -0.5904540    -0.1973150
  C        0.9184280    -0.3582560     0.4039980
  C       -2.0985830     1.3582810    -0.1413790
  C        3.2072160     0.6032460     0.0168350
  H       -1.4627270     0.0051460     1.4138490
  H       -0.2231950    -0.4335060    -1.3719210
  H        2.1635620    -0.7923810    -1.2691220
  H        2.7222980    -1.4861610     0.2495370
  H        0.8868390    -0.2195170     1.4869310
  H       -1.4287050     2.1666040     0.1650490
  H       -2.1908800     1.3667930    -1.2308750
  H       -3.0873820     1.5512680     0.2912850
  H        3.3343300     0.8133780     1.0831920
  H        2.7976640     1.4999730    -0.4563300
  H        4.1964720     0.4112550    -0.4090930
  H       -3.3235000    -0.8374140     0.2263080
units angstrom
no_reorient  #important for SAPT in psi4, default
symmetry c1  #important for SAPT in psi4, default
}

set PROPERTIES_ORIGIN ["COM"]
properties('MP2/aug-cc-pvtz', properties = ['dipole'])
--------------------------------------------------------------------------

    Molecular point group: c1
  Charge       = 0
  Multiplicity = 1
  Basis Set: AUG-CC-PVTZ
    Blend: AUG-CC-PVTZ
  Basis Set: (AUG-CC-PVTZ AUX)
    Blend: AUG-CC-PVTZ-JKFIT

    Orbital Energies [Eh]
    ---------------------

    Doubly Occupied:

       1A    -20.555516     2A    -11.281050     3A    -11.232844
       4A    -11.226727     5A    -11.224661     6A    -11.220174
       7A    -11.216318     8A     -1.355331     9A     -1.088833
      10A     -1.038006    11A     -0.968029    12A     -0.880764
      13A     -0.810812    14A     -0.752811    15A     -0.682483
      16A     -0.635834    17A     -0.625433    18A     -0.599616
      19A     -0.586555    20A     -0.544429    21A     -0.538630
      22A     -0.525050    23A     -0.517203    24A     -0.502242
      25A     -0.481559    26A     -0.471623    27A     -0.444284
      28A     -0.342522

  @DF-RHF Final Energy:  -309.14404435543793

   => Energetics <=

    Nuclear Repulsion Energy =            299.1552971578782945
    One-Electron Energy =               -1011.9000084539525233
    Two-Electron Energy =                 403.6006669406363017
    Total Energy =                       -309.1440443554379272
  Basis Set: (AUG-CC-PVTZ AUX)
    Blend: AUG-CC-PVTZ-RI
    Molecular point group: c1

    Geometry (in Angstrom), charge = 0, multiplicity = 1:

       Center              X                  Y                   Z               Mass
    ------------   -----------------  -----------------  -----------------  -----------------
         O           -2.384711504229    -1.014836702616    -0.103853812101    15.994914619570
         C           -1.511218504229     0.045043297384     0.315642187899    12.000000000000
         C           -0.221222504229    -0.239578202616    -0.271036612101    12.000000000000
         C            2.320576495771    -0.551585702616    -0.197980812101    12.000000000000
         C            0.967120495771    -0.319387702616     0.403332187899    12.000000000000
         C           -2.049890504229     1.397149297384    -0.142044812101    12.000000000000
         C            3.255908495771     0.642114297384     0.016169187899    12.000000000000
         H           -1.414034504229     0.044014297384     1.413183187899     1.007825032230
         H           -0.174502504229    -0.394637702616    -1.372586812101     1.007825032230
         H            2.212254495771    -0.753512702616    -1.269787812101     1.007825032230
         H            2.770990495771    -1.447292702616     0.248871187899     1.007825032230
         H            0.935531495771    -0.180648702616     1.486265187899     1.007825032230
         H           -1.380012504229     2.205472297384     0.164383187899     1.007825032230
         H           -2.142187504229     1.405661297384    -1.231540812101     1.007825032230
         H           -3.038689504229     1.590136297384     0.290619187899     1.007825032230
         H            3.383022495771     0.852246297384     1.082526187899     1.007825032230
         H            2.846356495771     1.538841297384    -0.456995812101     1.007825032230
         H            4.245164495771     0.450123297384    -0.409758812101     1.007825032230
         H           -3.274807504229    -0.798545702616     0.225642187899     1.007825032230

  Basis Set: AUG-CC-PVTZ
    Blend: AUG-CC-PVTZ
  Basis Set: (AUG-CC-PVTZ AUX)
    Blend: AUG-CC-PVTZ-JKFIT
	 Reference Energy          =    -309.1440443554379272 [Eh]
	 Singles Energy            =      -0.0000000000000000 [Eh]
	 Same-Spin Energy          =      -0.3173767791576853 [Eh]
	 Opposite-Spin Energy      =      -1.1038214511132367 [Eh]
	 Correlation Energy        =      -1.4211982302709221 [Eh]
	 Total Energy              =    -310.5652425857088588 [Eh]

	 ================> DF-SCS-MP2 Energies <==================
	-----------------------------------------------------------
	 SCS Same-Spin Scale       =       0.3333333333333333 [-]
	 SCS Opposite-Spin Scale   =       1.2000000000000000 [-]
	 SCS Same-Spin Energy      =      -0.1057922597192284 [Eh]
	 SCS Opposite-Spin Energy  =      -1.3245857413358839 [Eh]
	 SCS Correlation Energy    =      -1.4303780010551124 [Eh]
	 SCS Total Energy          =    -310.5744223564930167 [Eh]
	-----------------------------------------------------------

  Dipole Moment: [D]
     X:    -0.0072      Y:     1.4086      Z:     0.7951     Total:     1.6175

*** Psi4 exiting successfully. Buy a developer a beer!
