                               Psi4 1.3.2 release

  ==> Input File <==

--------------------------------------------------------------------------
#psi4
#
memory 32 gb

molecule  {
0 1
  O       -2.3977156    -1.0853450    -0.0810817
  C       -1.5156830    -0.0261920     0.3177710
  C       -0.1457171    -0.1874324    -0.2549385
  C        2.3348890    -0.4444240    -0.1997250
  C        0.9740050    -0.2811540     0.4036300
  C       -2.1103090     1.3065560    -0.1212920
  C        3.2132980     0.7871720     0.0273270
  H       -1.4208040    -0.0402330     1.4151950
  H       -0.1609320    -0.3839550    -1.3725900
  H        2.2351040    -0.6390970    -1.2733090
  H        2.8261900    -1.3231820     0.2368400
  H        0.9367840    -0.1585690     1.4880300
  H       -1.4764410     2.1380570     0.1977940
  H       -2.2008650     1.3268630    -1.2105240
  H       -3.1068830     1.4512670     0.3117270
  H        3.3300870     0.9922950     1.0954650
  H        2.7636150     1.6688370    -0.4368240
  H        4.2103780     0.6456890    -0.3991480
  H       -3.2411570    -0.9446250     0.2124840
units angstrom
no_reorient  #important for SAPT in psi4, default
symmetry c1  #important for SAPT in psi4, default
}

set PROPERTIES_ORIGIN ["COM"]
properties('MP2/aug-cc-pvtz', properties = ['dipole'])
--------------------------------------------------------------------------

    Molecular point group: c1
  Charge       = 0
  Multiplicity = 1
  Basis Set: AUG-CC-PVTZ
    Blend: AUG-CC-PVTZ
  Basis Set: (AUG-CC-PVTZ AUX)
    Blend: AUG-CC-PVTZ-JKFIT

    Orbital Energies [Eh]
    ---------------------

    Doubly Occupied:

       1A    -20.546983     2A    -11.284629     3A    -11.226472
       4A    -11.225265     5A    -11.221617     6A    -11.217409
       7A    -11.216366     8A     -1.367538     9A     -1.097946
      10A     -1.037080    11A     -0.975235    12A     -0.877415
      13A     -0.819416    14A     -0.748674    15A     -0.693071
      16A     -0.644216    17A     -0.625352    18A     -0.600402
      19A     -0.587958    20A     -0.543242    21A     -0.537738
      22A     -0.531512    23A     -0.518058    24A     -0.500218
      25A     -0.483084    26A     -0.457842    27A     -0.442787
      28A     -0.360356

  @DF-RHF Final Energy:  -309.14493932980639

   => Energetics <=

    Nuclear Repulsion Energy =            299.6350671179923779
    One-Electron Energy =               -1012.7842497620389395
    Two-Electron Energy =                 404.0042433142401137
    Total Energy =                       -309.1449393298063910
  Basis Set: (AUG-CC-PVTZ AUX)
    Blend: AUG-CC-PVTZ-RI
    Molecular point group: c1

    Geometry (in Angstrom), charge = 0, multiplicity = 1:

       Center              X                  Y                   Z               Mass
    ------------   -----------------  -----------------  -----------------  -----------------
         O           -2.391584581435    -1.097980699453    -0.091508338184    15.994914619570
         C           -1.509551981435    -0.038827699453     0.307344361816    12.000000000000
         C           -0.139586081435    -0.200068099453    -0.265365138184    12.000000000000
         C            2.341020018565    -0.457059699453    -0.210151638184    12.000000000000
         C            0.980136018565    -0.293789699453     0.393203361816    12.000000000000
         C           -2.104177981435     1.293920300547    -0.131718638184    12.000000000000
         C            3.219429018565     0.774536300547     0.016900361816    12.000000000000
         H           -1.414672981435    -0.052868699453     1.404768361816     1.007825032230
         H           -0.154800981435    -0.396590699453    -1.383016638184     1.007825032230
         H            2.241235018565    -0.651732699453    -1.283735638184     1.007825032230
         H            2.832321018565    -1.335817699453     0.226413361816     1.007825032230
         H            0.942915018565    -0.171204699453     1.477603361816     1.007825032230
         H           -1.470309981435     2.125421300547     0.187367361816     1.007825032230
         H           -2.194733981435     1.314227300547    -1.220950638184     1.007825032230
         H           -3.100751981435     1.438631300547     0.301300361816     1.007825032230
         H            3.336218018565     0.979659300547     1.085038361816     1.007825032230
         H            2.769746018565     1.656201300547    -0.447250638184     1.007825032230
         H            4.216509018565     0.633053300547    -0.409574638184     1.007825032230
         H           -3.235025981435    -0.957260699453     0.202057361816     1.007825032230

  Basis Set: AUG-CC-PVTZ
    Blend: AUG-CC-PVTZ
  Basis Set: (AUG-CC-PVTZ AUX)
    Blend: AUG-CC-PVTZ-JKFIT
	 Reference Energy          =    -309.1449393298063910 [Eh]
	 Singles Energy            =      -0.0000000000000000 [Eh]
	 Same-Spin Energy          =      -0.3153631943076067 [Eh]
	 Opposite-Spin Energy      =      -1.0993910645266642 [Eh]
	 Correlation Energy        =      -1.4147542588342710 [Eh]
	 Total Energy              =    -310.5596935886406413 [Eh]

	 ================> DF-SCS-MP2 Energies <==================
	-----------------------------------------------------------
	 SCS Same-Spin Scale       =       0.3333333333333333 [-]
	 SCS Opposite-Spin Scale   =       1.2000000000000000 [-]
	 SCS Same-Spin Energy      =      -0.1051210647692022 [Eh]
	 SCS Opposite-Spin Energy  =      -1.3192692774319970 [Eh]
	 SCS Correlation Energy    =      -1.4243903422011992 [Eh]
	 SCS Total Energy          =    -310.5693296720075978 [Eh]
	-----------------------------------------------------------

  Dipole Moment: [D]
     X:     0.0594      Y:     1.2810      Z:     0.7998     Total:     1.5113

*** Psi4 exiting successfully. Buy a developer a beer!
