                               Psi4 1.3.2 release

  ==> Input File <==

--------------------------------------------------------------------------
#psi4
#
memory 32 gb

molecule  {
0 1
  O       -2.3409430    -1.1152500    -0.1201430
  C       -1.5101419    -0.0251860     0.3295255
  C       -0.1702520    -0.2529640    -0.2898400
  C        2.3348890    -0.4444240    -0.1997250
  C        0.9680316    -0.2791755     0.4134685
  C       -2.1103090     1.3065560    -0.1212920
  C        3.2132980     0.7871720     0.0273270
  H       -1.4208040    -0.0402330     1.4151950
  H       -0.1609320    -0.3839550    -1.3725900
  H        2.2351040    -0.6390970    -1.2733090
  H        2.8261900    -1.3231820     0.2368400
  H        0.9367840    -0.1585690     1.4880300
  H       -1.4764410     2.1380570     0.1977940
  H       -2.2008650     1.3268630    -1.2105240
  H       -3.1068830     1.4512670     0.3117270
  H        3.3300870     0.9922950     1.0954650
  H        2.7636150     1.6688370    -0.4368240
  H        4.2103780     0.6456890    -0.3991480
  H       -3.2411570    -0.9446250     0.2124840
units angstrom
no_reorient  #important for SAPT in psi4, default
symmetry c1  #important for SAPT in psi4, default
}

set PROPERTIES_ORIGIN ["COM"]
properties('MP2/aug-cc-pvtz', properties = ['dipole'])
--------------------------------------------------------------------------

    Molecular point group: c1
  Charge       = 0
  Multiplicity = 1
  Basis Set: AUG-CC-PVTZ
    Blend: AUG-CC-PVTZ
  Basis Set: (AUG-CC-PVTZ AUX)
    Blend: AUG-CC-PVTZ-JKFIT

    Orbital Energies [Eh]
    ---------------------

    Doubly Occupied:

       1A    -20.554273     2A    -11.282182     3A    -11.227194
       4A    -11.224730     5A    -11.221183     6A    -11.219400
       7A    -11.215024     8A     -1.350892     9A     -1.089457
      10A     -1.032779    11A     -0.970752    12A     -0.874994
      13A     -0.810162    14A     -0.757600    15A     -0.681427
      16A     -0.631967    17A     -0.623133    18A     -0.597067
      19A     -0.589155    20A     -0.542932    21A     -0.540343
      22A     -0.531993    23A     -0.515493    24A     -0.501274
      25A     -0.482819    26A     -0.461880    27A     -0.444838
      28A     -0.350037

  @DF-RHF Final Energy:  -309.14919637542351

   => Energetics <=

    Nuclear Repulsion Energy =            299.0769148328705569
    One-Electron Energy =               -1011.8022630225759713
    Two-Electron Energy =                 403.5761518142819000
    Total Energy =                       -309.1491963754235144
  Basis Set: (AUG-CC-PVTZ AUX)
    Blend: AUG-CC-PVTZ-RI
    Molecular point group: c1

    Geometry (in Angstrom), charge = 0, multiplicity = 1:

       Center              X                  Y                   Z               Mass
    ------------   -----------------  -----------------  -----------------  -----------------
         O           -2.340891247032    -1.115607672966    -0.122731757814    15.994914619570
         C           -1.510090147032    -0.025543672966     0.326936742186    12.000000000000
         C           -0.170200247032    -0.253321672966    -0.292428757814    12.000000000000
         C            2.334940752968    -0.444781672966    -0.202313757814    12.000000000000
         C            0.968083352968    -0.279533172966     0.410879742186    12.000000000000
         C           -2.110257247032     1.306198327034    -0.123880757814    12.000000000000
         C            3.213349752968     0.786814327034     0.024738242186    12.000000000000
         H           -1.420752247032    -0.040590672966     1.412606242186     1.007825032230
         H           -0.160880247032    -0.384312672966    -1.375178757814     1.007825032230
         H            2.235155752968    -0.639454672966    -1.275897757814     1.007825032230
         H            2.826241752968    -1.323539672966     0.234251242186     1.007825032230
         H            0.936835752968    -0.158926672966     1.485441242186     1.007825032230
         H           -1.476389247032     2.137699327034     0.195205242186     1.007825032230
         H           -2.200813247032     1.326505327034    -1.213112757814     1.007825032230
         H           -3.106831247032     1.450909327034     0.309138242186     1.007825032230
         H            3.330138752968     0.991937327034     1.092876242186     1.007825032230
         H            2.763666752968     1.668479327034    -0.439412757814     1.007825032230
         H            4.210429752968     0.645331327034    -0.401736757814     1.007825032230
         H           -3.241105247032    -0.944982672966     0.209895242186     1.007825032230

  Basis Set: AUG-CC-PVTZ
    Blend: AUG-CC-PVTZ
  Basis Set: (AUG-CC-PVTZ AUX)
    Blend: AUG-CC-PVTZ-JKFIT
	 Reference Energy          =    -309.1491963754235144 [Eh]
	 Singles Energy            =      -0.0000000000000000 [Eh]
	 Same-Spin Energy          =      -0.3164240226765678 [Eh]
	 Opposite-Spin Energy      =      -1.1023591724637050 [Eh]
	 Correlation Energy        =      -1.4187831951402727 [Eh]
	 Total Energy              =    -310.5679795705638071 [Eh]

	 ================> DF-SCS-MP2 Energies <==================
	-----------------------------------------------------------
	 SCS Same-Spin Scale       =       0.3333333333333333 [-]
	 SCS Opposite-Spin Scale   =       1.2000000000000000 [-]
	 SCS Same-Spin Energy      =      -0.1054746742255226 [Eh]
	 SCS Opposite-Spin Energy  =      -1.3228310069564460 [Eh]
	 SCS Correlation Energy    =      -1.4283056811819685 [Eh]
	 SCS Total Energy          =    -310.5775020566055105 [Eh]
	-----------------------------------------------------------

  Dipole Moment: [D]
     X:    -0.0824      Y:     1.3882      Z:     0.8361     Total:     1.6227

*** Psi4 exiting successfully. Buy a developer a beer!
