                               Psi4 1.4a3.dev225

  ==> Input File <==

--------------------------------------------------------------------------
#psi4
#
memory 32 gb

molecule  {
0 1
  O       -2.4334040    -1.0537050    -0.1031880
  C       -1.5599110     0.0061750     0.3163080
  C       -0.2252920    -0.2882920    -0.2906650
  C        2.2718840    -0.5904540    -0.1973150
  C        0.9184280    -0.3582560     0.4039980
  C       -2.0985830     1.3582810    -0.1413790
  C        3.2072160     0.6032460     0.0168350
  H       -1.4627270     0.0051460     1.4138490
  H       -0.2231950    -0.4335060    -1.3719210
  H        2.1635620    -0.7923810    -1.2691220
  H        2.7222980    -1.4861610     0.2495370
  H        0.8853929    -0.2131659     1.5365049
  H       -1.4287050     2.1666040     0.1650490
  H       -2.1908800     1.3667930    -1.2308750
  H       -3.0873820     1.5512680     0.2912850
  H        3.3343300     0.8133780     1.0831920
  H        2.7976640     1.4999730    -0.4563300
  H        4.1964720     0.4112550    -0.4090930
  H       -3.3235000    -0.8374140     0.2263080
units angstrom
no_reorient  #important for SAPT in psi4, default
symmetry c1  #important for SAPT in psi4, default
}

set PROPERTIES_ORIGIN ["COM"]
properties('MP2/aug-cc-pvtz', properties = ['dipole'])
--------------------------------------------------------------------------

    Molecular point group: c1
  Charge       = 0
  Multiplicity = 1
  Basis Set: AUG-CC-PVTZ
    Blend: AUG-CC-PVTZ
  Basis Set: (AUG-CC-PVTZ AUX)
    Blend: AUG-CC-PVTZ-JKFIT

    Orbital Energies [Eh]
    ---------------------

    Doubly Occupied:

       1A    -20.555241     2A    -11.283365     3A    -11.234170
       4A    -11.225695     5A    -11.222089     6A    -11.219704
       7A    -11.215696     8A     -1.353921     9A     -1.088526
      10A     -1.033196    11A     -0.970427    12A     -0.875428
      13A     -0.810189    14A     -0.750101    15A     -0.679416
      16A     -0.632351    17A     -0.624431    18A     -0.598233
      19A     -0.588424    20A     -0.543015    21A     -0.538377
      22A     -0.529243    23A     -0.516415    24A     -0.501999
      25A     -0.480903    26A     -0.462020    27A     -0.443642
      28A     -0.350075

  @DF-RHF Final Energy:  -309.14703465607107

   => Energetics <=

    Nuclear Repulsion Energy =            298.7001501124618699
    One-Electron Energy =               -1011.0417844088306083
    Two-Electron Energy =                 403.1945996402976675
    Total Energy =                       -309.1470346560710709
  Basis Set: (AUG-CC-PVTZ AUX)
    Blend: AUG-CC-PVTZ-RI
    Molecular point group: c1

    Geometry (in Angstrom), charge = 0, multiplicity = 1:

       Center              X                  Y                   Z               Mass
    ------------   -----------------  -----------------  -----------------  -----------------
         O           -2.390046951394    -1.013720242176    -0.101919843929    15.994914619570
         C           -1.516553951394     0.046159757824     0.317576156071    12.000000000000
         C           -0.181934951394    -0.248307242176    -0.289396843929    12.000000000000
         C            2.315241048606    -0.550469242176    -0.196046843929    12.000000000000
         C            0.961785048606    -0.318271242176     0.405266156071    12.000000000000
         C           -2.055225951394     1.398265757824    -0.140110843929    12.000000000000
         C            3.250573048606     0.643230757824     0.018103156071    12.000000000000
         H           -1.419369951394     0.045130757824     1.415117156071     1.007825032230
         H           -0.179837951394    -0.393521242176    -1.370652843929     1.007825032230
         H            2.206919048606    -0.752396242176    -1.267853843929     1.007825032230
         H            2.765655048606    -1.446176242176     0.250805156071     1.007825032230
         H            0.928749948606    -0.173181142176     1.537773056071     1.007825032230
         H           -1.385347951394     2.206588757824     0.166317156071     1.007825032230
         H           -2.147522951394     1.406777757824    -1.229606843929     1.007825032230
         H           -3.044024951394     1.591252757824     0.292553156071     1.007825032230
         H            3.377687048606     0.853362757824     1.084460156071     1.007825032230
         H            2.841021048606     1.539957757824    -0.455061843929     1.007825032230
         H            4.239829048606     0.451239757824    -0.407824843929     1.007825032230
         H           -3.280142951394    -0.797429242176     0.227576156071     1.007825032230

  Basis Set: AUG-CC-PVTZ
    Blend: AUG-CC-PVTZ
  Basis Set: (AUG-CC-PVTZ AUX)
    Blend: AUG-CC-PVTZ-JKFIT
	 Reference Energy          =    -309.1470346560710709 [Eh]
	 Singles Energy            =      -0.0000000000000000 [Eh]
	 Same-Spin Energy          =      -0.3165634437811155 [Eh]
	 Opposite-Spin Energy      =      -1.1027976055139814 [Eh]
	 Correlation Energy        =      -1.4193610492950968 [Eh]
	 Total Energy              =    -310.5663957053661761 [Eh]

	 ================> DF-SCS-MP2 Energies <==================
	-----------------------------------------------------------
	 SCS Same-Spin Scale       =       0.3333333333333333 [-]
	 SCS Opposite-Spin Scale   =       1.2000000000000000 [-]
	 SCS Same-Spin Energy      =      -0.1055211479270385 [Eh]
	 SCS Opposite-Spin Energy  =      -1.3233571266167776 [Eh]
	 SCS Correlation Energy    =      -1.4288782745438160 [Eh]
	 SCS Total Energy          =    -310.5759129306148907 [Eh]
	-----------------------------------------------------------

  Dipole Moment: [D]
     X:    -0.0228      Y:     1.3957      Z:     0.7631     Total:     1.5909

*** Psi4 exiting successfully. Buy a developer a beer!
