                               Psi4 1.3.2 release

  ==> Input File <==

--------------------------------------------------------------------------
#psi4
#
memory 32 gb

molecule  {
0 1
  O       -2.3409430    -1.1152500    -0.1201430
  C       -1.5156830    -0.0261920     0.3177710
  C       -0.1702520    -0.2529640    -0.2898400
  C        2.3348890    -0.4444240    -0.1997250
  C        0.9638708    -0.2178198     0.3585394
  C       -2.1103090     1.3065560    -0.1212920
  C        3.2132980     0.7871720     0.0273270
  H       -1.4208040    -0.0402330     1.4151950
  H       -0.1609320    -0.3839550    -1.3725900
  H        2.2351040    -0.6390970    -1.2733090
  H        2.8717756    -1.3123303     0.2036020
  H        0.9367840    -0.1585690     1.4880300
  H       -1.4764410     2.1380570     0.1977940
  H       -2.2008650     1.3268630    -1.2105240
  H       -3.1068830     1.4512670     0.3117270
  H        3.3300870     0.9922950     1.0954650
  H        2.7636150     1.6688370    -0.4368240
  H        4.2103780     0.6456890    -0.3991480
  H       -3.2411570    -0.9446250     0.2124840
units angstrom
no_reorient  #important for SAPT in psi4, default
symmetry c1  #important for SAPT in psi4, default
}

set PROPERTIES_ORIGIN ["COM"]
properties('MP2/aug-cc-pvtz', properties = ['dipole'])
--------------------------------------------------------------------------

    Molecular point group: c1
  Charge       = 0
  Multiplicity = 1
  Basis Set: AUG-CC-PVTZ
    Blend: AUG-CC-PVTZ
  Basis Set: (AUG-CC-PVTZ AUX)
    Blend: AUG-CC-PVTZ-JKFIT

    Orbital Energies [Eh]
    ---------------------

    Doubly Occupied:

       1A    -20.556216     2A    -11.283892     3A    -11.226876
       4A    -11.224578     5A    -11.219769     6A    -11.217715
       7A    -11.213891     8A     -1.354974     9A     -1.094272
      10A     -1.034376    11A     -0.974753    12A     -0.874144
      13A     -0.813338    14A     -0.750685    15A     -0.680855
      16A     -0.636283    17A     -0.625088    18A     -0.602025
      19A     -0.588061    20A     -0.543543    21A     -0.538153
      22A     -0.529029    23A     -0.514977    24A     -0.503508
      25A     -0.478840    26A     -0.458747    27A     -0.444916
      28A     -0.357846

  @DF-RHF Final Energy:  -309.14568669596679

   => Energetics <=

    Nuclear Repulsion Energy =            299.6859369169565070
    One-Electron Energy =               -1012.9805445674876410
    Two-Electron Energy =                 404.1489209545643462
    Total Energy =                       -309.1456866959667877
  Basis Set: (AUG-CC-PVTZ AUX)
    Blend: AUG-CC-PVTZ-RI
    Molecular point group: c1

    Geometry (in Angstrom), charge = 0, multiplicity = 1:

       Center              X                  Y                   Z               Mass
    ------------   -----------------  -----------------  -----------------  -----------------
         O           -2.340187067537    -1.122952479825    -0.114402142877    15.994914619570
         C           -1.514927067537    -0.033894479825     0.323511857123    12.000000000000
         C           -0.169496067537    -0.260666479825    -0.284099142877    12.000000000000
         C            2.335644932463    -0.452126479825    -0.193984142877    12.000000000000
         C            0.964626732463    -0.225522279825     0.364280257123    12.000000000000
         C           -2.109553067537     1.298853520175    -0.115551142877    12.000000000000
         C            3.214053932463     0.779469520175     0.033067857123    12.000000000000
         H           -1.420048067537    -0.047935479825     1.420935857123     1.007825032230
         H           -0.160176067537    -0.391657479825    -1.366849142877     1.007825032230
         H            2.235859932463    -0.646799479825    -1.267568142877     1.007825032230
         H            2.872531532463    -1.320032779825     0.209342857123     1.007825032230
         H            0.937539932463    -0.166271479825     1.493770857123     1.007825032230
         H           -1.475685067537     2.130354520175     0.203534857123     1.007825032230
         H           -2.200109067537     1.319160520175    -1.204783142877     1.007825032230
         H           -3.106127067537     1.443564520175     0.317467857123     1.007825032230
         H            3.330842932463     0.984592520175     1.101205857123     1.007825032230
         H            2.764370932463     1.661134520175    -0.431083142877     1.007825032230
         H            4.211133932463     0.637986520175    -0.393407142877     1.007825032230
         H           -3.240401067537    -0.952327479825     0.218224857123     1.007825032230

  Basis Set: AUG-CC-PVTZ
    Blend: AUG-CC-PVTZ
  Basis Set: (AUG-CC-PVTZ AUX)
    Blend: AUG-CC-PVTZ-JKFIT
	 Reference Energy          =    -309.1456866959667877 [Eh]
	 Singles Energy            =      -0.0000000000000000 [Eh]
	 Same-Spin Energy          =      -0.3164691909202556 [Eh]
	 Opposite-Spin Energy      =      -1.1021133108437395 [Eh]
	 Correlation Energy        =      -1.4185825017639950 [Eh]
	 Total Energy              =    -310.5642691977307663 [Eh]

	 ================> DF-SCS-MP2 Energies <==================
	-----------------------------------------------------------
	 SCS Same-Spin Scale       =       0.3333333333333333 [-]
	 SCS Opposite-Spin Scale   =       1.2000000000000000 [-]
	 SCS Same-Spin Energy      =      -0.1054897303067519 [Eh]
	 SCS Opposite-Spin Energy  =      -1.3225359730124875 [Eh]
	 SCS Correlation Energy    =      -1.4280257033192394 [Eh]
	 SCS Total Energy          =    -310.5737123992860234 [Eh]
	-----------------------------------------------------------

  Dipole Moment: [D]
     X:    -0.1444      Y:     1.3064      Z:     0.7831     Total:     1.5300

*** Psi4 exiting successfully. Buy a developer a beer!
