                               Psi4 1.3.2 release

  ==> Input File <==

--------------------------------------------------------------------------
#psi4
#
memory 32 gb

molecule  {
0 1
  O       -2.3409430    -1.1152500    -0.1201430
  C       -1.5156830    -0.0261920     0.3177710
  C       -0.1934932    -0.2474646    -0.2496942
  C        2.3554786    -0.4417069    -0.1517555
  C        0.9740050    -0.2811540     0.4036300
  C       -2.1103090     1.3065560    -0.1212920
  C        3.2132980     0.7871720     0.0273270
  H       -1.4208040    -0.0402330     1.4151950
  H       -0.1609320    -0.3839550    -1.3725900
  H        2.2351040    -0.6390970    -1.2733090
  H        2.8261900    -1.3231820     0.2368400
  H        0.9367840    -0.1585690     1.4880300
  H       -1.4764410     2.1380570     0.1977940
  H       -2.2008650     1.3268630    -1.2105240
  H       -3.1068830     1.4512670     0.3117270
  H        3.3300870     0.9922950     1.0954650
  H        2.7636150     1.6688370    -0.4368240
  H        4.2103780     0.6456890    -0.3991480
  H       -3.2411570    -0.9446250     0.2124840
units angstrom
no_reorient  #important for SAPT in psi4, default
symmetry c1  #important for SAPT in psi4, default
}

set PROPERTIES_ORIGIN ["COM"]
properties('MP2/aug-cc-pvtz', properties = ['dipole'])
--------------------------------------------------------------------------

    Molecular point group: c1
  Charge       = 0
  Multiplicity = 1
  Basis Set: AUG-CC-PVTZ
    Blend: AUG-CC-PVTZ
  Basis Set: (AUG-CC-PVTZ AUX)
    Blend: AUG-CC-PVTZ-JKFIT

    Orbital Energies [Eh]
    ---------------------

    Doubly Occupied:

       1A    -20.556232     2A    -11.281920     3A    -11.228541
       4A    -11.227287     5A    -11.223671     6A    -11.220308
       7A    -11.215505     8A     -1.355580     9A     -1.092564
      10A     -1.039474    11A     -0.973069    12A     -0.880431
      13A     -0.812896    14A     -0.748683    15A     -0.681786
      16A     -0.638404    17A     -0.625423    18A     -0.603797
      19A     -0.584281    20A     -0.546058    21A     -0.539583
      22A     -0.529570    23A     -0.521209    24A     -0.503753
      25A     -0.474232    26A     -0.460551    27A     -0.444081
      28A     -0.351531

  @DF-RHF Final Energy:  -309.14280863300326

   => Energetics <=

    Nuclear Repulsion Energy =            299.5896848065469840
    One-Electron Energy =               -1012.7441525737792745
    Two-Electron Energy =                 404.0116591342290349
    Total Energy =                       -309.1428086330032556
  Basis Set: (AUG-CC-PVTZ AUX)
    Blend: AUG-CC-PVTZ-RI
    Molecular point group: c1

    Geometry (in Angstrom), charge = 0, multiplicity = 1:

       Center              X                  Y                   Z               Mass
    ------------   -----------------  -----------------  -----------------  -----------------
         O           -2.340625167351    -1.116234955845    -0.130707350291    15.994914619570
         C           -1.515365167351    -0.027176955845     0.307206649709    12.000000000000
         C           -0.193175367351    -0.248449555845    -0.260258550291    12.000000000000
         C            2.355796432649    -0.442691855845    -0.162319850291    12.000000000000
         C            0.974322832649    -0.282138955845     0.393065649709    12.000000000000
         C           -2.109991167351     1.305571044155    -0.131856350291    12.000000000000
         C            3.213615832649     0.786187044155     0.016762649709    12.000000000000
         H           -1.420486167351    -0.041217955845     1.404630649709     1.007825032230
         H           -0.160614167351    -0.384939955845    -1.383154350291     1.007825032230
         H            2.235421832649    -0.640081955845    -1.283873350291     1.007825032230
         H            2.826507832649    -1.324166955845     0.226275649709     1.007825032230
         H            0.937101832649    -0.159553955845     1.477465649709     1.007825032230
         H           -1.476123167351     2.137072044155     0.187229649709     1.007825032230
         H           -2.200547167351     1.325878044155    -1.221088350291     1.007825032230
         H           -3.106565167351     1.450282044155     0.301162649709     1.007825032230
         H            3.330404832649     0.991310044155     1.084900649709     1.007825032230
         H            2.763932832649     1.667852044155    -0.447388350291     1.007825032230
         H            4.210695832649     0.644704044155    -0.409712350291     1.007825032230
         H           -3.240839167351    -0.945609955845     0.201919649709     1.007825032230

  Basis Set: AUG-CC-PVTZ
    Blend: AUG-CC-PVTZ
  Basis Set: (AUG-CC-PVTZ AUX)
    Blend: AUG-CC-PVTZ-JKFIT
	 Reference Energy          =    -309.1428086330032556 [Eh]
	 Singles Energy            =      -0.0000000000000000 [Eh]
	 Same-Spin Energy          =      -0.3171688191019453 [Eh]
	 Opposite-Spin Energy      =      -1.1033091371515757 [Eh]
	 Correlation Energy        =      -1.4204779562535210 [Eh]
	 Total Energy              =    -310.5632865892567906 [Eh]

	 ================> DF-SCS-MP2 Energies <==================
	-----------------------------------------------------------
	 SCS Same-Spin Scale       =       0.3333333333333333 [-]
	 SCS Opposite-Spin Scale   =       1.2000000000000000 [-]
	 SCS Same-Spin Energy      =      -0.1057229397006484 [Eh]
	 SCS Opposite-Spin Energy  =      -1.3239709645818909 [Eh]
	 SCS Correlation Energy    =      -1.4296939042825394 [Eh]
	 SCS Total Energy          =    -310.5725025372857999 [Eh]
	-----------------------------------------------------------

  Dipole Moment: [D]
     X:    -0.0878      Y:     1.3996      Z:     0.8520     Total:     1.6409

*** Psi4 exiting successfully. Buy a developer a beer!
