                               Psi4 1.3.2 release

  ==> Input File <==

--------------------------------------------------------------------------
#psi4
#
memory 32 gb

molecule  {
0 1
  O       -2.3409430    -1.1152500    -0.1201430
  C       -1.5156830    -0.0261920     0.3177710
  C       -0.1456167    -0.2584978    -0.3291409
  C        2.3126414    -0.4469422    -0.2469594
  C        0.9740050    -0.2811540     0.4036300
  C       -2.1103090     1.3065560    -0.1212920
  C        3.2132980     0.7871720     0.0273270
  H       -1.4208040    -0.0402330     1.4151950
  H       -0.1609320    -0.3839550    -1.3725900
  H        2.2351040    -0.6390970    -1.2733090
  H        2.8261900    -1.3231820     0.2368400
  H        0.9367840    -0.1585690     1.4880300
  H       -1.4764410     2.1380570     0.1977940
  H       -2.2008650     1.3268630    -1.2105240
  H       -3.1068830     1.4512670     0.3117270
  H        3.3300870     0.9922950     1.0954650
  H        2.7636150     1.6688370    -0.4368240
  H        4.2103780     0.6456890    -0.3991480
  H       -3.2411570    -0.9446250     0.2124840
units angstrom
no_reorient  #important for SAPT in psi4, default
symmetry c1  #important for SAPT in psi4, default
}

set PROPERTIES_ORIGIN ["COM"]
properties('MP2/aug-cc-pvtz', properties = ['dipole'])
--------------------------------------------------------------------------

    Molecular point group: c1
  Charge       = 0
  Multiplicity = 1
  Basis Set: AUG-CC-PVTZ
    Blend: AUG-CC-PVTZ
  Basis Set: (AUG-CC-PVTZ AUX)
    Blend: AUG-CC-PVTZ-JKFIT

    Orbital Energies [Eh]
    ---------------------

    Doubly Occupied:

       1A    -20.554409     2A    -11.283657     3A    -11.227843
       4A    -11.222660     5A    -11.218669     6A    -11.218419
       7A    -11.215444     8A     -1.352619     9A     -1.088525
      10A     -1.028201    11A     -0.969277    12A     -0.872163
      13A     -0.808947    14A     -0.762931    15A     -0.681680
      16A     -0.628256    17A     -0.625552    18A     -0.595420
      19A     -0.592050    20A     -0.546049    21A     -0.541050
      22A     -0.530759    23A     -0.510814    24A     -0.501461
      25A     -0.491978    26A     -0.453768    27A     -0.442920
      28A     -0.348108

  @DF-RHF Final Energy:  -309.14440408986775

   => Energetics <=

    Nuclear Repulsion Energy =            298.8504616205054276
    One-Electron Energy =               -1011.3624686239940047
    Two-Electron Energy =                 403.3676029136208854
    Total Energy =                       -309.1444040898677486
  Basis Set: (AUG-CC-PVTZ AUX)
    Blend: AUG-CC-PVTZ-RI
    Molecular point group: c1

    Geometry (in Angstrom), charge = 0, multiplicity = 1:

       Center              X                  Y                   Z               Mass
    ------------   -----------------  -----------------  -----------------  -----------------
         O           -2.341229346749    -1.114284468171    -0.109767875686    15.994914619570
         C           -1.515969346749    -0.025226468171     0.328146124314    12.000000000000
         C           -0.145903046749    -0.257532268171    -0.318765775686    12.000000000000
         C            2.312355053251    -0.445976668171    -0.236584275686    12.000000000000
         C            0.973718653251    -0.280188468171     0.414005124314    12.000000000000
         C           -2.110595346749     1.307521531829    -0.110916875686    12.000000000000
         C            3.213011653251     0.788137531829     0.037702124314    12.000000000000
         H           -1.421090346749    -0.039267468171     1.425570124314     1.007825032230
         H           -0.161218346749    -0.382989468171    -1.362214875686     1.007825032230
         H            2.234817653251    -0.638131468171    -1.262933875686     1.007825032230
         H            2.825903653251    -1.322216468171     0.247215124314     1.007825032230
         H            0.936497653251    -0.157603468171     1.498405124314     1.007825032230
         H           -1.476727346749     2.139022531829     0.208169124314     1.007825032230
         H           -2.201151346749     1.327828531829    -1.200148875686     1.007825032230
         H           -3.107169346749     1.452232531829     0.322102124314     1.007825032230
         H            3.329800653251     0.993260531829     1.105840124314     1.007825032230
         H            2.763328653251     1.669802531829    -0.426448875686     1.007825032230
         H            4.210091653251     0.646654531829    -0.388772875686     1.007825032230
         H           -3.241443346749    -0.943659468171     0.222859124314     1.007825032230

  Basis Set: AUG-CC-PVTZ
    Blend: AUG-CC-PVTZ
  Basis Set: (AUG-CC-PVTZ AUX)
    Blend: AUG-CC-PVTZ-JKFIT
	 Reference Energy          =    -309.1444040898677486 [Eh]
	 Singles Energy            =      -0.0000000000000000 [Eh]
	 Same-Spin Energy          =      -0.3161836589826631 [Eh]
	 Opposite-Spin Energy      =      -1.1021554358649737 [Eh]
	 Correlation Energy        =      -1.4183390948476369 [Eh]
	 Total Energy              =    -310.5627431847153730 [Eh]

	 ================> DF-SCS-MP2 Energies <==================
	-----------------------------------------------------------
	 SCS Same-Spin Scale       =       0.3333333333333333 [-]
	 SCS Opposite-Spin Scale   =       1.2000000000000000 [-]
	 SCS Same-Spin Energy      =      -0.1053945529942210 [Eh]
	 SCS Opposite-Spin Energy  =      -1.3225865230379683 [Eh]
	 SCS Correlation Energy    =      -1.4279810760321894 [Eh]
	 SCS Total Energy          =    -310.5723851658999592 [Eh]
	-----------------------------------------------------------

  Dipole Moment: [D]
     X:    -0.1004      Y:     1.3666      Z:     0.7909     Total:     1.5822

*** Psi4 exiting successfully. Buy a developer a beer!
