                               Psi4 1.3.2 release

  ==> Input File <==

--------------------------------------------------------------------------
#psi4
#
memory 32 gb

molecule  {
0 1
  O       -2.3409430    -1.1152500    -0.1201430
  C       -1.5156830    -0.0261920     0.3177710
  C       -0.1702520    -0.2529640    -0.2898400
  C        2.3348890    -0.4444240    -0.1997250
  C        0.9740050    -0.2811540     0.4036300
  C       -2.1103090     1.3065560    -0.1212920
  C        3.2132980     0.7871720     0.0273270
  H       -1.4208040    -0.0402330     1.4151950
  H       -0.1609320    -0.3839550    -1.3725900
  H        2.2351040    -0.6390970    -1.2733090
  H        2.8261900    -1.3231820     0.2368400
  H        0.9367840    -0.1585690     1.4880300
  H       -1.4764410     2.1380570     0.1977940
  H       -2.2008650     1.3268630    -1.2105240
  H       -3.1068830     1.4512670     0.3117270
  H        3.3300870     0.9922950     1.0954650
  H        2.7636150     1.6688370    -0.4368240
  H        4.2103780     0.6456890    -0.3991480
  H       -3.0564505    -0.9796340     0.1442354
units angstrom
no_reorient  #important for SAPT in psi4, default
symmetry c1  #important for SAPT in psi4, default
}

set PROPERTIES_ORIGIN ["COM"]
properties('MP2/aug-cc-pvtz', properties = ['dipole'])
--------------------------------------------------------------------------

    Molecular point group: c1
  Charge       = 0
  Multiplicity = 1
  Basis Set: AUG-CC-PVTZ
    Blend: AUG-CC-PVTZ
  Basis Set: (AUG-CC-PVTZ AUX)
    Blend: AUG-CC-PVTZ-JKFIT

    Orbital Energies [Eh]
    ---------------------

    Doubly Occupied:

       1A    -20.533072     2A    -11.285159     3A    -11.228124
       4A    -11.224865     5A    -11.221600     6A    -11.220771
       7A    -11.215597     8A     -1.414318     9A     -1.094428
      10A     -1.041122    11A     -0.972493    12A     -0.883572
      13A     -0.821851    14A     -0.756397    15A     -0.711582
      16A     -0.639521    17A     -0.631452    18A     -0.599527
      19A     -0.590718    20A     -0.547813    21A     -0.540892
      22A     -0.533292    23A     -0.518229    24A     -0.506013
      25A     -0.482528    26A     -0.465710    27A     -0.449560
      28A     -0.350707

  @DF-RHF Final Energy:  -309.10468162045100

   => Energetics <=

    Nuclear Repulsion Energy =            300.6415163952970602
    One-Electron Energy =               -1014.5305723252749885
    Two-Electron Energy =                 404.7843743095269815
    Total Energy =                       -309.1046816204510037
  Basis Set: (AUG-CC-PVTZ AUX)
    Blend: AUG-CC-PVTZ-RI
    Molecular point group: c1

    Geometry (in Angstrom), charge = 0, multiplicity = 1:

       Center              X                  Y                   Z               Mass
    ------------   -----------------  -----------------  -----------------  -----------------
         O           -2.342802943502    -1.114897334388    -0.119455680987    15.994914619570
         C           -1.517542943502    -0.025839334388     0.318458319013    12.000000000000
         C           -0.172111943502    -0.252611334388    -0.289152680987    12.000000000000
         C            2.333029056498    -0.444071334388    -0.199037680987    12.000000000000
         C            0.972145056498    -0.280801334388     0.404317319013    12.000000000000
         C           -2.112168943502     1.306908665612    -0.120604680987    12.000000000000
         C            3.211438056498     0.787524665612     0.028014319013    12.000000000000
         H           -1.422663943502    -0.039880334388     1.415882319013     1.007825032230
         H           -0.162791943502    -0.383602334388    -1.371902680987     1.007825032230
         H            2.233244056498    -0.638744334388    -1.272621680987     1.007825032230
         H            2.824330056498    -1.322829334388     0.237527319013     1.007825032230
         H            0.934924056498    -0.158216334388     1.488717319013     1.007825032230
         H           -1.478300943502     2.138409665612     0.198481319013     1.007825032230
         H           -2.202724943502     1.327215665612    -1.209836680987     1.007825032230
         H           -3.108742943502     1.451619665612     0.312414319013     1.007825032230
         H            3.328227056498     0.992647665612     1.096152319013     1.007825032230
         H            2.761755056498     1.669189665612    -0.436136680987     1.007825032230
         H            4.208518056498     0.646041665612    -0.398460680987     1.007825032230
         H           -3.058310443502    -0.979281334388     0.144922719013     1.007825032230

  Basis Set: AUG-CC-PVTZ
    Blend: AUG-CC-PVTZ
  Basis Set: (AUG-CC-PVTZ AUX)
    Blend: AUG-CC-PVTZ-JKFIT
	 Reference Energy          =    -309.1046816204510037 [Eh]
	 Singles Energy            =      -0.0000000000000000 [Eh]
	 Same-Spin Energy          =      -0.3141261664063211 [Eh]
	 Opposite-Spin Energy      =      -1.0966917465322135 [Eh]
	 Correlation Energy        =      -1.4108179129385345 [Eh]
	 Total Energy              =    -310.5154995333895158 [Eh]

	 ================> DF-SCS-MP2 Energies <==================
	-----------------------------------------------------------
	 SCS Same-Spin Scale       =       0.3333333333333333 [-]
	 SCS Opposite-Spin Scale   =       1.2000000000000000 [-]
	 SCS Same-Spin Energy      =      -0.1047087221354404 [Eh]
	 SCS Opposite-Spin Energy  =      -1.3160300958386562 [Eh]
	 SCS Correlation Energy    =      -1.4207388179740965 [Eh]
	 SCS Total Energy          =    -310.5254204384251011 [Eh]
	-----------------------------------------------------------

  Dipole Moment: [D]
     X:     0.0417      Y:     1.4096      Z:     0.7785     Total:     1.6109

*** Psi4 exiting successfully. Buy a developer a beer!
