                               Psi4 1.4a3.dev225

  ==> Input File <==

--------------------------------------------------------------------------
#psi4
#
memory 32 gb

molecule  {
0 1
  O       -2.4334040    -1.0537050    -0.1031880
  C       -1.5599110     0.0061750     0.3163080
  C       -0.1806690    -0.2981375    -0.3109592
  C        2.2718840    -0.5904540    -0.1973150
  C        0.9184280    -0.3582560     0.4039980
  C       -2.0985830     1.3582810    -0.1413790
  C        3.2072160     0.6032460     0.0168350
  H       -1.4627270     0.0051460     1.4138490
  H       -0.2231950    -0.4335060    -1.3719210
  H        2.1635620    -0.7923810    -1.2691220
  H        2.7222980    -1.4861610     0.2495370
  H        0.8868390    -0.2195170     1.4869310
  H       -1.4287050     2.1666040     0.1650490
  H       -2.1908800     1.3667930    -1.2308750
  H       -3.0873820     1.5512680     0.2912850
  H        3.3343300     0.8133780     1.0831920
  H        2.7976640     1.4999730    -0.4563300
  H        4.1964720     0.4112550    -0.4090930
  H       -3.3235000    -0.8374140     0.2263080
units angstrom
no_reorient  #important for SAPT in psi4, default
symmetry c1  #important for SAPT in psi4, default
}

set PROPERTIES_ORIGIN ["COM"]
properties('MP2/aug-cc-pvtz', properties = ['dipole'])
--------------------------------------------------------------------------

    Molecular point group: c1
  Charge       = 0
  Multiplicity = 1
  Basis Set: AUG-CC-PVTZ
    Blend: AUG-CC-PVTZ
  Basis Set: (AUG-CC-PVTZ AUX)
    Blend: AUG-CC-PVTZ-JKFIT

    Orbital Energies [Eh]
    ---------------------

    Doubly Occupied:

       1A    -20.554922     2A    -11.285097     3A    -11.224124
       4A    -11.223183     5A    -11.219267     6A    -11.218604
       7A    -11.214933     8A     -1.352587     9A     -1.091117
      10A     -1.028516    11A     -0.973428    12A     -0.871032
      13A     -0.809633    14A     -0.757234    15A     -0.680395
      16A     -0.630709    17A     -0.624264    18A     -0.596690
      19A     -0.591490    20A     -0.545328    21A     -0.541425
      22A     -0.532833    23A     -0.515265    24A     -0.501472
      25A     -0.482678    26A     -0.451496    27A     -0.442815
      28A     -0.356625

  @DF-RHF Final Energy:  -309.14829302429644

   => Energetics <=

    Nuclear Repulsion Energy =            298.7301010189650583
    One-Electron Energy =               -1011.1224628582110654
    Two-Electron Energy =                 403.2440688149495145
    Total Energy =                       -309.1482930242964358
  Basis Set: (AUG-CC-PVTZ AUX)
    Blend: AUG-CC-PVTZ-RI
    Molecular point group: c1

    Geometry (in Angstrom), charge = 0, multiplicity = 1:

       Center              X                  Y                   Z               Mass
    ------------   -----------------  -----------------  -----------------  -----------------
         O           -2.395411521009    -1.012475879381    -0.098987526094    15.994914619570
         C           -1.521918521009     0.047404120619     0.320508473906    12.000000000000
         C           -0.142676521009    -0.256908379381    -0.306758726094    12.000000000000
         C            2.309876478991    -0.549224879381    -0.193114526094    12.000000000000
         C            0.956420478991    -0.317026879381     0.408198473906    12.000000000000
         C           -2.060590521009     1.399510120619    -0.137178526094    12.000000000000
         C            3.245208478991     0.644475120619     0.021035473906    12.000000000000
         H           -1.424734521009     0.046375120619     1.418049473906     1.007825032230
         H           -0.185202521009    -0.392276879381    -1.367720526094     1.007825032230
         H            2.201554478991    -0.751151879381    -1.264921526094     1.007825032230
         H            2.760290478991    -1.444931879381     0.253737473906     1.007825032230
         H            0.924831478991    -0.178287879381     1.491131473906     1.007825032230
         H           -1.390712521009     2.207833120619     0.169249473906     1.007825032230
         H           -2.152887521009     1.408022120619    -1.226674526094     1.007825032230
         H           -3.049389521009     1.592497120619     0.295485473906     1.007825032230
         H            3.372322478991     0.854607120619     1.087392473906     1.007825032230
         H            2.835656478991     1.541202120619    -0.452129526094     1.007825032230
         H            4.234464478991     0.452484120619    -0.404892526094     1.007825032230
         H           -3.285507521009    -0.796184879381     0.230508473906     1.007825032230

  Basis Set: AUG-CC-PVTZ
    Blend: AUG-CC-PVTZ
  Basis Set: (AUG-CC-PVTZ AUX)
    Blend: AUG-CC-PVTZ-JKFIT
	 Reference Energy          =    -309.1482930242964358 [Eh]
	 Singles Energy            =      -0.0000000000000000 [Eh]
	 Same-Spin Energy          =      -0.3158377014080553 [Eh]
	 Opposite-Spin Energy      =      -1.1014631160113484 [Eh]
	 Correlation Energy        =      -1.4173008174194037 [Eh]
	 Total Energy              =    -310.5655938417158382 [Eh]

	 ================> DF-SCS-MP2 Energies <==================
	-----------------------------------------------------------
	 SCS Same-Spin Scale       =       0.3333333333333333 [-]
	 SCS Opposite-Spin Scale   =       1.2000000000000000 [-]
	 SCS Same-Spin Energy      =      -0.1052792338026851 [Eh]
	 SCS Opposite-Spin Energy  =      -1.3217557392136181 [Eh]
	 SCS Correlation Energy    =      -1.4270349730163032 [Eh]
	 SCS Total Energy          =    -310.5753279973127405 [Eh]
	-----------------------------------------------------------

  Dipole Moment: [D]
     X:    -0.0457      Y:     1.3896      Z:     0.7864     Total:     1.5974

*** Psi4 exiting successfully. Buy a developer a beer!
