                               Psi4 1.3.2 release

  ==> Input File <==

--------------------------------------------------------------------------
#psi4
#
memory 32 gb

molecule  {
0 1
  O       -2.3409430    -1.1152500    -0.1201430
  C       -1.5156830    -0.0261920     0.3177710
  C       -0.1687885    -0.2758737    -0.2774899
  C        2.3348890    -0.4444240    -0.1997250
  C        0.9740050    -0.2811540     0.4036300
  C       -2.1318804     1.3015164    -0.1065694
  C        3.2132980     0.7871720     0.0273270
  H       -1.4208040    -0.0402330     1.4151950
  H       -0.1609320    -0.3839550    -1.3725900
  H        2.2351040    -0.6390970    -1.2733090
  H        2.8261900    -1.3231820     0.2368400
  H        0.9367840    -0.1585690     1.4880300
  H       -1.4764410     2.1380570     0.1977940
  H       -2.2008650     1.3268630    -1.2105240
  H       -3.1068830     1.4512670     0.3117270
  H        3.3300870     0.9922950     1.0954650
  H        2.7636150     1.6688370    -0.4368240
  H        4.2103780     0.6456890    -0.3991480
  H       -3.2411570    -0.9446250     0.2124840
units angstrom
no_reorient  #important for SAPT in psi4, default
symmetry c1  #important for SAPT in psi4, default
}

set PROPERTIES_ORIGIN ["COM"]
properties('MP2/aug-cc-pvtz', properties = ['dipole'])
--------------------------------------------------------------------------

    Molecular point group: c1
  Charge       = 0
  Multiplicity = 1
  Basis Set: AUG-CC-PVTZ
    Blend: AUG-CC-PVTZ
  Basis Set: (AUG-CC-PVTZ AUX)
    Blend: AUG-CC-PVTZ-JKFIT

    Orbital Energies [Eh]
    ---------------------

    Doubly Occupied:

       1A    -20.554456     2A    -11.282869     3A    -11.227004
       4A    -11.224749     5A    -11.220889     6A    -11.219790
       7A    -11.215520     8A     -1.353805     9A     -1.090830
      10A     -1.033002    11A     -0.972728    12A     -0.876702
      13A     -0.811280    14A     -0.753278    15A     -0.681200
      16A     -0.633700    17A     -0.624535    18A     -0.599567
      19A     -0.588580    20A     -0.545808    21A     -0.538765
      22A     -0.530138    23A     -0.516058    24A     -0.500020
      25A     -0.482300    26A     -0.463354    27A     -0.441790
      28A     -0.352371

  @DF-RHF Final Energy:  -309.14856794457120

   => Energetics <=

    Nuclear Repulsion Energy =            299.1891337833731086
    One-Electron Energy =               -1012.0052308908816485
    Two-Electron Energy =                 403.6675291629373419
    Total Energy =                       -309.1485679445711980
  Basis Set: (AUG-CC-PVTZ AUX)
    Blend: AUG-CC-PVTZ-RI
    Molecular point group: c1

    Geometry (in Angstrom), charge = 0, multiplicity = 1:

       Center              X                  Y                   Z               Mass
    ------------   -----------------  -----------------  -----------------  -----------------
         O           -2.338532270157    -1.111898910904    -0.123388738316    15.994914619570
         C           -1.513272270157    -0.022840910904     0.314525261684    12.000000000000
         C           -0.166377770157    -0.272522610904    -0.280735638316    12.000000000000
         C            2.337299729843    -0.441072910904    -0.202970738316    12.000000000000
         C            0.976415729843    -0.277802910904     0.400384261684    12.000000000000
         C           -2.129469670157     1.304867489096    -0.109815138316    12.000000000000
         C            3.215708729843     0.790523089096     0.024081261684    12.000000000000
         H           -1.418393270157    -0.036881910904     1.411949261684     1.007825032230
         H           -0.158521270157    -0.380603910904    -1.375835738316     1.007825032230
         H            2.237514729843    -0.635745910904    -1.276554738316     1.007825032230
         H            2.828600729843    -1.319830910904     0.233594261684     1.007825032230
         H            0.939194729843    -0.155217910904     1.484784261684     1.007825032230
         H           -1.474030270157     2.141408089096     0.194548261684     1.007825032230
         H           -2.198454270157     1.330214089096    -1.213769738316     1.007825032230
         H           -3.104472270157     1.454618089096     0.308481261684     1.007825032230
         H            3.332497729843     0.995646089096     1.092219261684     1.007825032230
         H            2.766025729843     1.672188089096    -0.440069738316     1.007825032230
         H            4.212788729843     0.649040089096    -0.402393738316     1.007825032230
         H           -3.238746270157    -0.941273910904     0.209238261684     1.007825032230

  Basis Set: AUG-CC-PVTZ
    Blend: AUG-CC-PVTZ
  Basis Set: (AUG-CC-PVTZ AUX)
    Blend: AUG-CC-PVTZ-JKFIT
	 Reference Energy          =    -309.1485679445711980 [Eh]
	 Singles Energy            =      -0.0000000000000000 [Eh]
	 Same-Spin Energy          =      -0.3164645631329500 [Eh]
	 Opposite-Spin Energy      =      -1.1022382746493475 [Eh]
	 Correlation Energy        =      -1.4187028377822974 [Eh]
	 Total Energy              =    -310.5672707823534893 [Eh]

	 ================> DF-SCS-MP2 Energies <==================
	-----------------------------------------------------------
	 SCS Same-Spin Scale       =       0.3333333333333333 [-]
	 SCS Opposite-Spin Scale   =       1.2000000000000000 [-]
	 SCS Same-Spin Energy      =      -0.1054881877109833 [Eh]
	 SCS Opposite-Spin Energy  =      -1.3226859295792170 [Eh]
	 SCS Correlation Energy    =      -1.4281741172902005 [Eh]
	 SCS Total Energy          =    -310.5767420618614096 [Eh]
	-----------------------------------------------------------

  Dipole Moment: [D]
     X:    -0.0876      Y:     1.4071      Z:     0.8233     Total:     1.6326

*** Psi4 exiting successfully. Buy a developer a beer!
