                               Psi4 1.3.2 release

  ==> Input File <==

--------------------------------------------------------------------------
#psi4
#
memory 32 gb

molecule  {
0 1
  O       -2.3409430    -1.1152500    -0.1201430
  C       -1.5156830    -0.0261920     0.3177710
  C       -0.1702520    -0.2529640    -0.2898400
  C        2.3348890    -0.4444240    -0.1997250
  C        0.9878693    -0.3449357     0.4470668
  C       -2.1103090     1.3065560    -0.1212920
  C        3.2132980     0.7871720     0.0273270
  H       -1.4208040    -0.0402330     1.4151950
  H       -0.1609320    -0.3839550    -1.3725900
  H        2.2351040    -0.6390970    -1.2733090
  H        2.7792577    -1.3316251     0.2688814
  H        0.9367840    -0.1585690     1.4880300
  H       -1.4764410     2.1380570     0.1977940
  H       -2.2008650     1.3268630    -1.2105240
  H       -3.1068830     1.4512670     0.3117270
  H        3.3300870     0.9922950     1.0954650
  H        2.7636150     1.6688370    -0.4368240
  H        4.2103780     0.6456890    -0.3991480
  H       -3.2411570    -0.9446250     0.2124840
units angstrom
no_reorient  #important for SAPT in psi4, default
symmetry c1  #important for SAPT in psi4, default
}

set PROPERTIES_ORIGIN ["COM"]
properties('MP2/aug-cc-pvtz', properties = ['dipole'])
--------------------------------------------------------------------------

    Molecular point group: c1
  Charge       = 0
  Multiplicity = 1
  Basis Set: AUG-CC-PVTZ
    Blend: AUG-CC-PVTZ
  Basis Set: (AUG-CC-PVTZ AUX)
    Blend: AUG-CC-PVTZ-JKFIT

    Orbital Energies [Eh]
    ---------------------

    Doubly Occupied:

       1A    -20.554678     2A    -11.282239     3A    -11.229957
       4A    -11.225792     5A    -11.224568     6A    -11.219279
       7A    -11.216444     8A     -1.353509     9A     -1.086171
      10A     -1.033124    11A     -0.967464    12A     -0.878089
      13A     -0.807618    14A     -0.759527    15A     -0.682235
      16A     -0.631099    17A     -0.624036    18A     -0.595812
      19A     -0.589709    20A     -0.543321    21A     -0.542188
      22A     -0.531929    23A     -0.518210    24A     -0.499804
      25A     -0.487188    26A     -0.460790    27A     -0.442670
      28A     -0.341061

  @DF-RHF Final Energy:  -309.14311092236255

   => Energetics <=

    Nuclear Repulsion Energy =            298.6638562762448714
    One-Electron Energy =               -1010.9569113034712018
    Two-Electron Energy =                 403.1499441048637209
    Total Energy =                       -309.1431109223625526
  Basis Set: (AUG-CC-PVTZ AUX)
    Blend: AUG-CC-PVTZ-RI
    Molecular point group: c1

    Geometry (in Angstrom), charge = 0, multiplicity = 1:

       Center              X                  Y                   Z               Mass
    ------------   -----------------  -----------------  -----------------  -----------------
         O           -2.342132740931    -1.107517822292    -0.125673322513    15.994914619570
         C           -1.516872740931    -0.018459822292     0.312240677487    12.000000000000
         C           -0.171441740931    -0.245231822292    -0.295370322513    12.000000000000
         C            2.333699259069    -0.436691822292    -0.205255322513    12.000000000000
         C            0.986679559069    -0.337203522292     0.441536477487    12.000000000000
         C           -2.111498740931     1.314288177708    -0.126822322513    12.000000000000
         C            3.212108259069     0.794904177708     0.021796677487    12.000000000000
         H           -1.421993740931    -0.032500822292     1.409664677487     1.007825032230
         H           -0.162121740931    -0.376222822292    -1.378120322513     1.007825032230
         H            2.233914259069    -0.631364822292    -1.278839322513     1.007825032230
         H            2.778067959069    -1.323892922292     0.263351077487     1.007825032230
         H            0.935594259069    -0.150836822292     1.482499677487     1.007825032230
         H           -1.477630740931     2.145789177708     0.192263677487     1.007825032230
         H           -2.202054740931     1.334595177708    -1.216054322513     1.007825032230
         H           -3.108072740931     1.458999177708     0.306196677487     1.007825032230
         H            3.328897259069     1.000027177708     1.089934677487     1.007825032230
         H            2.762425259069     1.676569177708    -0.442354322513     1.007825032230
         H            4.209188259069     0.653421177708    -0.404678322513     1.007825032230
         H           -3.242346740931    -0.936892822292     0.206953677487     1.007825032230

  Basis Set: AUG-CC-PVTZ
    Blend: AUG-CC-PVTZ
  Basis Set: (AUG-CC-PVTZ AUX)
    Blend: AUG-CC-PVTZ-JKFIT
	 Reference Energy          =    -309.1431109223625526 [Eh]
	 Singles Energy            =      -0.0000000000000000 [Eh]
	 Same-Spin Energy          =      -0.3170163195868508 [Eh]
	 Opposite-Spin Energy      =      -1.1036096494768517 [Eh]
	 Correlation Energy        =      -1.4206259690637024 [Eh]
	 Total Energy              =    -310.5637368914262311 [Eh]

	 ================> DF-SCS-MP2 Energies <==================
	-----------------------------------------------------------
	 SCS Same-Spin Scale       =       0.3333333333333333 [-]
	 SCS Opposite-Spin Scale   =       1.2000000000000000 [-]
	 SCS Same-Spin Energy      =      -0.1056721065289503 [Eh]
	 SCS Opposite-Spin Energy  =      -1.3243315793722219 [Eh]
	 SCS Correlation Energy    =      -1.4300036859011722 [Eh]
	 SCS Total Energy          =    -310.5731146082637224 [Eh]
	-----------------------------------------------------------

  Dipole Moment: [D]
     X:    -0.0707      Y:     1.4560      Z:     0.8268     Total:     1.6759

*** Psi4 exiting successfully. Buy a developer a beer!
