                               Psi4 1.3.2 release

  ==> Input File <==

--------------------------------------------------------------------------
#psi4
#
memory 32 gb

molecule  {
0 1
  O       -2.3018281    -1.1335330    -0.1455235
  C       -1.5156830    -0.0261920     0.3177710
  C       -0.1886619    -0.2963174    -0.3121882
  C        2.3348890    -0.4444240    -0.1997250
  C        0.9740050    -0.2811540     0.4036300
  C       -2.1103090     1.3065560    -0.1212920
  C        3.2132980     0.7871720     0.0273270
  H       -1.4208040    -0.0402330     1.4151950
  H       -0.1609320    -0.3839550    -1.3725900
  H        2.2351040    -0.6390970    -1.2733090
  H        2.8261900    -1.3231820     0.2368400
  H        0.9367840    -0.1585690     1.4880300
  H       -1.4764410     2.1380570     0.1977940
  H       -2.2008650     1.3268630    -1.2105240
  H       -3.1068830     1.4512670     0.3117270
  H        3.3300870     0.9922950     1.0954650
  H        2.7636150     1.6688370    -0.4368240
  H        4.2103780     0.6456890    -0.3991480
  H       -3.2411570    -0.9446250     0.2124840
units angstrom
no_reorient  #important for SAPT in psi4, default
symmetry c1  #important for SAPT in psi4, default
}

set PROPERTIES_ORIGIN ["COM"]
properties('MP2/aug-cc-pvtz', properties = ['dipole'])
--------------------------------------------------------------------------

    Molecular point group: c1
  Charge       = 0
  Multiplicity = 1
  Basis Set: AUG-CC-PVTZ
    Blend: AUG-CC-PVTZ
  Basis Set: (AUG-CC-PVTZ AUX)
    Blend: AUG-CC-PVTZ-JKFIT

    Orbital Energies [Eh]
    ---------------------

    Doubly Occupied:

       1A    -20.560474     2A    -11.282294     3A    -11.230108
       4A    -11.223500     5A    -11.221264     6A    -11.220593
       7A    -11.214726     8A     -1.347235     9A     -1.085027
      10A     -1.031547    11A     -0.968789    12A     -0.875150
      13A     -0.805163    14A     -0.759462    15A     -0.675986
      16A     -0.629675    17A     -0.620514    18A     -0.596931
      19A     -0.589938    20A     -0.543513    21A     -0.540051
      22A     -0.531400    23A     -0.514862    24A     -0.503215
      25A     -0.481288    26A     -0.463495    27A     -0.443960
      28A     -0.342392

  @DF-RHF Final Energy:  -309.13954790130009

   => Energetics <=

    Nuclear Repulsion Energy =            298.9675520371282573
    One-Electron Energy =               -1011.6090925405712824
    Two-Electron Energy =                 403.5019926021429342
    Total Energy =                       -309.1395479013000909
  Basis Set: (AUG-CC-PVTZ AUX)
    Blend: AUG-CC-PVTZ-RI
    Molecular point group: c1

    Geometry (in Angstrom), charge = 0, multiplicity = 1:

       Center              X                  Y                   Z               Mass
    ------------   -----------------  -----------------  -----------------  -----------------
         O           -2.305871792520    -1.125413303902    -0.138788005844    15.994914619570
         C           -1.519726692520    -0.018072303902     0.324506494156    12.000000000000
         C           -0.192705592520    -0.288197703902    -0.305452705844    12.000000000000
         C            2.330845307480    -0.436304303902    -0.192989505844    12.000000000000
         C            0.969961307480    -0.273034303902     0.410365494156    12.000000000000
         C           -2.114352692520     1.314675696098    -0.114556505844    12.000000000000
         C            3.209254307480     0.795291696098     0.034062494156    12.000000000000
         H           -1.424847692520    -0.032113303902     1.421930494156     1.007825032230
         H           -0.164975692520    -0.375835303902    -1.365854505844     1.007825032230
         H            2.231060307480    -0.630977303902    -1.266573505844     1.007825032230
         H            2.822146307480    -1.315062303902     0.243575494156     1.007825032230
         H            0.932740307480    -0.150449303902     1.494765494156     1.007825032230
         H           -1.480484692520     2.146176696098     0.204529494156     1.007825032230
         H           -2.204908692520     1.334982696098    -1.203788505844     1.007825032230
         H           -3.110926692520     1.459386696098     0.318462494156     1.007825032230
         H            3.326043307480     1.000414696098     1.102200494156     1.007825032230
         H            2.759571307480     1.676956696098    -0.430088505844     1.007825032230
         H            4.206334307480     0.653808696098    -0.392412505844     1.007825032230
         H           -3.245200692520    -0.936505303902     0.219219494156     1.007825032230

  Basis Set: AUG-CC-PVTZ
    Blend: AUG-CC-PVTZ
  Basis Set: (AUG-CC-PVTZ AUX)
    Blend: AUG-CC-PVTZ-JKFIT
	 Reference Energy          =    -309.1395479013000909 [Eh]
	 Singles Energy            =      -0.0000000000000000 [Eh]
	 Same-Spin Energy          =      -0.3176520958136414 [Eh]
	 Opposite-Spin Energy      =      -1.1052194213813684 [Eh]
	 Correlation Energy        =      -1.4228715171950097 [Eh]
	 Total Energy              =    -310.5624194184950966 [Eh]

	 ================> DF-SCS-MP2 Energies <==================
	-----------------------------------------------------------
	 SCS Same-Spin Scale       =       0.3333333333333333 [-]
	 SCS Opposite-Spin Scale   =       1.2000000000000000 [-]
	 SCS Same-Spin Energy      =      -0.1058840319378805 [Eh]
	 SCS Opposite-Spin Energy  =      -1.3262633056576421 [Eh]
	 SCS Correlation Energy    =      -1.4321473375955225 [Eh]
	 SCS Total Energy          =    -310.5716952388955860 [Eh]
	-----------------------------------------------------------

  Dipole Moment: [D]
     X:    -0.1745      Y:     1.4454      Z:     0.8279     Total:     1.6748

*** Psi4 exiting successfully. Buy a developer a beer!
