                               Psi4 1.3.2 release

  ==> Input File <==

--------------------------------------------------------------------------
#psi4
#
memory 32 gb

molecule  {
0 1
  O       -2.3721204    -1.0820772    -0.1410225
  C       -1.5156830    -0.0261920     0.3177710
  C       -0.1702520    -0.2529640    -0.2898400
  C        2.3348890    -0.4444240    -0.1997250
  C        0.9740050    -0.2811540     0.4036300
  C       -2.1504100     1.2800842    -0.1441141
  C        3.2132980     0.7871720     0.0273270
  H       -1.4208040    -0.0402330     1.4151950
  H       -0.1609320    -0.3839550    -1.3725900
  H        2.2351040    -0.6390970    -1.2733090
  H        2.8261900    -1.3231820     0.2368400
  H        0.9367840    -0.1585690     1.4880300
  H       -1.4764410     2.1380570     0.1977940
  H       -2.2008650     1.3268630    -1.2105240
  H       -3.1068830     1.4512670     0.3117270
  H        3.3300870     0.9922950     1.0954650
  H        2.7636150     1.6688370    -0.4368240
  H        4.2103780     0.6456890    -0.3991480
  H       -3.2411570    -0.9446250     0.2124840
units angstrom
no_reorient  #important for SAPT in psi4, default
symmetry c1  #important for SAPT in psi4, default
}

set PROPERTIES_ORIGIN ["COM"]
properties('MP2/aug-cc-pvtz', properties = ['dipole'])
--------------------------------------------------------------------------

    Molecular point group: c1
  Charge       = 0
  Multiplicity = 1
  Basis Set: AUG-CC-PVTZ
    Blend: AUG-CC-PVTZ
  Basis Set: (AUG-CC-PVTZ AUX)
    Blend: AUG-CC-PVTZ-JKFIT

    Orbital Energies [Eh]
    ---------------------

    Doubly Occupied:

       1A    -20.549683     2A    -11.283460     3A    -11.229219
       4A    -11.225301     5A    -11.222094     6A    -11.217653
       7A    -11.215760     8A     -1.358275     9A     -1.090973
      10A     -1.033688    11A     -0.971347    12A     -0.877206
      13A     -0.812359    14A     -0.755893    15A     -0.687366
      16A     -0.635613    17A     -0.621849    18A     -0.598036
      19A     -0.589446    20A     -0.548794    21A     -0.541949
      22A     -0.531196    23A     -0.515184    24A     -0.495025
      25A     -0.482485    26A     -0.464684    27A     -0.441279
      28A     -0.351152

  @DF-RHF Final Energy:  -309.14725138619826

   => Energetics <=

    Nuclear Repulsion Energy =            299.2965839016857217
    One-Electron Energy =               -1012.1937310994479731
    Two-Electron Energy =                 403.7498958115639880
    Total Energy =                       -309.1472513861982634
  Basis Set: (AUG-CC-PVTZ AUX)
    Blend: AUG-CC-PVTZ-RI
    Molecular point group: c1

    Geometry (in Angstrom), charge = 0, multiplicity = 1:

       Center              X                  Y                   Z               Mass
    ------------   -----------------  -----------------  -----------------  -----------------
         O           -2.362330253676    -1.084204506303    -0.134949480574    15.994914619570
         C           -1.505892853676    -0.028319306303     0.323844019426    12.000000000000
         C           -0.160461853676    -0.255091306303    -0.283766980574    12.000000000000
         C            2.344679146324    -0.446551306303    -0.193651980574    12.000000000000
         C            0.983795146324    -0.283281306303     0.409703019426    12.000000000000
         C           -2.140619853676     1.277956893697    -0.138041080574    12.000000000000
         C            3.223088146324     0.785044693697     0.033400019426    12.000000000000
         H           -1.411013853676    -0.042360306303     1.421268019426     1.007825032230
         H           -0.151141853676    -0.386082306303    -1.366516980574     1.007825032230
         H            2.244894146324    -0.641224306303    -1.267235980574     1.007825032230
         H            2.835980146324    -1.325309306303     0.242913019426     1.007825032230
         H            0.946574146324    -0.160696306303     1.494103019426     1.007825032230
         H           -1.466650853676     2.135929693697     0.203867019426     1.007825032230
         H           -2.191074853676     1.324735693697    -1.204450980574     1.007825032230
         H           -3.097092853676     1.449139693697     0.317800019426     1.007825032230
         H            3.339877146324     0.990167693697     1.101538019426     1.007825032230
         H            2.773405146324     1.666709693697    -0.430750980574     1.007825032230
         H            4.220168146324     0.643561693697    -0.393074980574     1.007825032230
         H           -3.231366853676    -0.946752306303     0.218557019426     1.007825032230

  Basis Set: AUG-CC-PVTZ
    Blend: AUG-CC-PVTZ
  Basis Set: (AUG-CC-PVTZ AUX)
    Blend: AUG-CC-PVTZ-JKFIT
	 Reference Energy          =    -309.1472513861982634 [Eh]
	 Singles Energy            =      -0.0000000000000000 [Eh]
	 Same-Spin Energy          =      -0.3161664881451609 [Eh]
	 Opposite-Spin Energy      =      -1.1014983055528318 [Eh]
	 Correlation Energy        =      -1.4176647936979927 [Eh]
	 Total Energy              =    -310.5649161798962723 [Eh]

	 ================> DF-SCS-MP2 Energies <==================
	-----------------------------------------------------------
	 SCS Same-Spin Scale       =       0.3333333333333333 [-]
	 SCS Opposite-Spin Scale   =       1.2000000000000000 [-]
	 SCS Same-Spin Energy      =      -0.1053888293817203 [Eh]
	 SCS Opposite-Spin Energy  =      -1.3217979666633981 [Eh]
	 SCS Correlation Energy    =      -1.4271867960451183 [Eh]
	 SCS Total Energy          =    -310.5744381822433979 [Eh]
	-----------------------------------------------------------

  Dipole Moment: [D]
     X:    -0.0088      Y:     1.2882      Z:     0.8705     Total:     1.5548

*** Psi4 exiting successfully. Buy a developer a beer!
