                               Psi4 1.3.2 release

  ==> Input File <==

--------------------------------------------------------------------------
#psi4
#
memory 32 gb

molecule  {
0 1
  O       -2.3409430    -1.1152500    -0.1201430
  C       -1.5355736    -0.0159216     0.3289976
  C       -0.1702520    -0.2529640    -0.2898400
  C        2.3348890    -0.4444240    -0.1997250
  C        0.9740050    -0.2811540     0.4036300
  C       -2.1103090     1.3065560    -0.1212920
  C        3.2132980     0.7871720     0.0273270
  H       -1.4208040    -0.0402330     1.4151950
  H       -0.1609320    -0.3839550    -1.3725900
  H        2.2351040    -0.6390970    -1.2733090
  H        2.8261900    -1.3231820     0.2368400
  H        0.9367840    -0.1585690     1.4880300
  H       -1.4764410     2.1380570     0.1977940
  H       -2.2008650     1.3268630    -1.2105240
  H       -3.1068830     1.4512670     0.3117270
  H        3.3300870     0.9922950     1.0954650
  H        2.7636150     1.6688370    -0.4368240
  H        4.2103780     0.6456890    -0.3991480
  H       -3.2356182    -0.9302250     0.2196522
units angstrom
no_reorient  #important for SAPT in psi4, default
symmetry c1  #important for SAPT in psi4, default
}

set PROPERTIES_ORIGIN ["COM"]
properties('MP2/aug-cc-pvtz', properties = ['dipole'])
--------------------------------------------------------------------------

    Molecular point group: c1
  Charge       = 0
  Multiplicity = 1
  Basis Set: AUG-CC-PVTZ
    Blend: AUG-CC-PVTZ
  Basis Set: (AUG-CC-PVTZ AUX)
    Blend: AUG-CC-PVTZ-JKFIT

    Orbital Energies [Eh]
    ---------------------

    Doubly Occupied:

       1A    -20.556781     2A    -11.282837     3A    -11.226470
       4A    -11.223886     5A    -11.221403     6A    -11.219591
       7A    -11.214826     8A     -1.355837     9A     -1.088127
      10A     -1.033606    11A     -0.972169    12A     -0.873711
      13A     -0.810063    14A     -0.754864    15A     -0.681867
      16A     -0.631863    17A     -0.625260    18A     -0.598409
      19A     -0.589846    20A     -0.545369    21A     -0.539140
      22A     -0.530978    23A     -0.516432    24A     -0.503070
      25A     -0.481412    26A     -0.458292    27A     -0.447262
      28A     -0.349461

  @DF-RHF Final Energy:  -309.14853591227359

   => Energetics <=

    Nuclear Repulsion Energy =            299.0670421981557752
    One-Electron Energy =               -1011.7654925536621704
    Two-Electron Energy =                 403.5499144432327512
    Total Energy =                       -309.1485359122735872
  Basis Set: (AUG-CC-PVTZ AUX)
    Blend: AUG-CC-PVTZ-RI
    Molecular point group: c1

    Geometry (in Angstrom), charge = 0, multiplicity = 1:

       Center              X                  Y                   Z               Mass
    ------------   -----------------  -----------------  -----------------  -----------------
         O           -2.338614094898    -1.116626203163    -0.121561072472    15.994914619570
         C           -1.533244694898    -0.017297803163     0.327579527528    12.000000000000
         C           -0.167923094898    -0.254340203163    -0.291258072472    12.000000000000
         C            2.337217905102    -0.445800203163    -0.201143072472    12.000000000000
         C            0.976333905102    -0.282530203163     0.402211927528    12.000000000000
         C           -2.107980094898     1.305179796837    -0.122710072472    12.000000000000
         C            3.215626905102     0.785795796837     0.025908927528    12.000000000000
         H           -1.418475094898    -0.041609203163     1.413776927528     1.007825032230
         H           -0.158603094898    -0.385331203163    -1.374008072472     1.007825032230
         H            2.237432905102    -0.640473203163    -1.274727072472     1.007825032230
         H            2.828518905102    -1.324558203163     0.235421927528     1.007825032230
         H            0.939112905102    -0.159945203163     1.486611927528     1.007825032230
         H           -1.474112094898     2.136680796837     0.196375927528     1.007825032230
         H           -2.198536094898     1.325486796837    -1.211942072472     1.007825032230
         H           -3.104554094898     1.449890796837     0.310308927528     1.007825032230
         H            3.332415905102     0.990918796837     1.094046927528     1.007825032230
         H            2.765943905102     1.667460796837    -0.438242072472     1.007825032230
         H            4.212706905102     0.644312796837    -0.400566072472     1.007825032230
         H           -3.233289294898    -0.931601203163     0.218234127528     1.007825032230

  Basis Set: AUG-CC-PVTZ
    Blend: AUG-CC-PVTZ
  Basis Set: (AUG-CC-PVTZ AUX)
    Blend: AUG-CC-PVTZ-JKFIT
	 Reference Energy          =    -309.1485359122735872 [Eh]
	 Singles Energy            =      -0.0000000000000000 [Eh]
	 Same-Spin Energy          =      -0.3165431688283756 [Eh]
	 Opposite-Spin Energy      =      -1.1025245987130188 [Eh]
	 Correlation Energy        =      -1.4190677675413943 [Eh]
	 Total Energy              =    -310.5676036798149653 [Eh]

	 ================> DF-SCS-MP2 Energies <==================
	-----------------------------------------------------------
	 SCS Same-Spin Scale       =       0.3333333333333333 [-]
	 SCS Opposite-Spin Scale   =       1.2000000000000000 [-]
	 SCS Same-Spin Energy      =      -0.1055143896094585 [Eh]
	 SCS Opposite-Spin Energy  =      -1.3230295184556224 [Eh]
	 SCS Correlation Energy    =      -1.4285439080650810 [Eh]
	 SCS Total Energy          =    -310.5770798203386676 [Eh]
	-----------------------------------------------------------

  Dipole Moment: [D]
     X:    -0.1382      Y:     1.4147      Z:     0.8243     Total:     1.6432

*** Psi4 exiting successfully. Buy a developer a beer!
