                               Psi4 1.3.2 release

  ==> Input File <==

--------------------------------------------------------------------------
#psi4
#
memory 32 gb

molecule  {
0 1
  O       -2.3409430    -1.1152500    -0.1201430
  C       -1.5156830    -0.0261920     0.3177710
  C       -0.1702520    -0.2529640    -0.2898400
  C        2.3348890    -0.4444240    -0.1997250
  C        0.9956596    -0.2098815     0.4280919
  C       -2.1103090     1.3065560    -0.1212920
  C        3.1521947     0.8209096     0.0665940
  H       -1.4208040    -0.0402330     1.4151950
  H       -0.1609320    -0.3839550    -1.3725900
  H        2.2351040    -0.6390970    -1.2733090
  H        2.8261900    -1.3231820     0.2368400
  H        0.9367840    -0.1585690     1.4880300
  H       -1.4764410     2.1380570     0.1977940
  H       -2.2008650     1.3268630    -1.2105240
  H       -3.1068830     1.4512670     0.3117270
  H        3.3300870     0.9922950     1.0954650
  H        2.7636150     1.6688370    -0.4368240
  H        4.2103780     0.6456890    -0.3991480
  H       -3.2411570    -0.9446250     0.2124840
units angstrom
no_reorient  #important for SAPT in psi4, default
symmetry c1  #important for SAPT in psi4, default
}

set PROPERTIES_ORIGIN ["COM"]
properties('MP2/aug-cc-pvtz', properties = ['dipole'])
--------------------------------------------------------------------------

    Molecular point group: c1
  Charge       = 0
  Multiplicity = 1
  Basis Set: AUG-CC-PVTZ
    Blend: AUG-CC-PVTZ
  Basis Set: (AUG-CC-PVTZ AUX)
    Blend: AUG-CC-PVTZ-JKFIT

    Orbital Energies [Eh]
    ---------------------

    Doubly Occupied:

       1A    -20.555254     2A    -11.282279     3A    -11.228917
       4A    -11.225291     5A    -11.224952     6A    -11.218731
       7A    -11.214982     8A     -1.353972     9A     -1.088403
      10A     -1.034154    11A     -0.966511    12A     -0.874687
      13A     -0.809400    14A     -0.759899    15A     -0.682994
      16A     -0.635402    17A     -0.623756    18A     -0.601124
      19A     -0.587363    20A     -0.544703    21A     -0.540845
      22A     -0.527196    23A     -0.519578    24A     -0.495961
      25A     -0.491708    26A     -0.455962    27A     -0.443731
      28A     -0.340903

  @DF-RHF Final Energy:  -309.13702399226179

   => Energetics <=

    Nuclear Repulsion Energy =            299.3601394121894259
    One-Electron Energy =               -1012.3370127328302033
    Two-Electron Energy =                 403.8398493283790458
    Total Energy =                       -309.1370239922617884
  Basis Set: (AUG-CC-PVTZ AUX)
    Blend: AUG-CC-PVTZ-RI
    Molecular point group: c1

    Geometry (in Angstrom), charge = 0, multiplicity = 1:

       Center              X                  Y                   Z               Mass
    ------------   -----------------  -----------------  -----------------  -----------------
         O           -2.336213433632    -1.127839880930    -0.127783579038    15.994914619570
         C           -1.510953433632    -0.038781880930     0.310130420962    12.000000000000
         C           -0.165522433632    -0.265553880930    -0.297480579038    12.000000000000
         C            2.339618566368    -0.457013880930    -0.207365579038    12.000000000000
         C            1.000389166368    -0.222471380930     0.420451320962    12.000000000000
         C           -2.105579433632     1.293966119070    -0.128932579038    12.000000000000
         C            3.156924266368     0.808319719070     0.058953420962    12.000000000000
         H           -1.416074433632    -0.052822880930     1.407554420962     1.007825032230
         H           -0.156202433632    -0.396544880930    -1.380230579038     1.007825032230
         H            2.239833566368    -0.651686880930    -1.280949579038     1.007825032230
         H            2.830919566368    -1.335771880930     0.229199420962     1.007825032230
         H            0.941513566368    -0.171158880930     1.480389420962     1.007825032230
         H           -1.471711433632     2.125467119070     0.190153420962     1.007825032230
         H           -2.196135433632     1.314273119070    -1.218164579038     1.007825032230
         H           -3.102153433632     1.438677119070     0.304086420962     1.007825032230
         H            3.334816566368     0.979705119070     1.087824420962     1.007825032230
         H            2.768344566368     1.656247119070    -0.444464579038     1.007825032230
         H            4.215107566368     0.633099119070    -0.406788579038     1.007825032230
         H           -3.236427433632    -0.957214880930     0.204843420962     1.007825032230

  Basis Set: AUG-CC-PVTZ
    Blend: AUG-CC-PVTZ
  Basis Set: (AUG-CC-PVTZ AUX)
    Blend: AUG-CC-PVTZ-JKFIT
	 Reference Energy          =    -309.1370239922617884 [Eh]
	 Singles Energy            =      -0.0000000000000000 [Eh]
	 Same-Spin Energy          =      -0.3172211226299880 [Eh]
	 Opposite-Spin Energy      =      -1.1040414619482948 [Eh]
	 Correlation Energy        =      -1.4212625845782827 [Eh]
	 Total Energy              =    -310.5582865768400893 [Eh]

	 ================> DF-SCS-MP2 Energies <==================
	-----------------------------------------------------------
	 SCS Same-Spin Scale       =       0.3333333333333333 [-]
	 SCS Opposite-Spin Scale   =       1.2000000000000000 [-]
	 SCS Same-Spin Energy      =      -0.1057403742099960 [Eh]
	 SCS Opposite-Spin Energy  =      -1.3248497543379536 [Eh]
	 SCS Correlation Energy    =      -1.4305901285479496 [Eh]
	 SCS Total Energy          =    -310.5676141208097647 [Eh]
	-----------------------------------------------------------

  Dipole Moment: [D]
     X:    -0.1292      Y:     1.2993      Z:     0.8515     Total:     1.5588

*** Psi4 exiting successfully. Buy a developer a beer!
