                               Psi4 1.3.2 release

  ==> Input File <==

--------------------------------------------------------------------------
#psi4
#
memory 32 gb

molecule  {
0 1
  O       -2.3409430    -1.1152500    -0.1201430
  C       -1.5156830    -0.0261920     0.3177710
  C       -0.1642227    -0.2543445    -0.2997463
  C        2.3294815    -0.4450723    -0.2116048
  C        0.9740050    -0.2811540     0.4036300
  C       -2.1103090     1.3065560    -0.1212920
  C        3.2132980     0.7871720     0.0273270
  H       -1.4208040    -0.0402330     1.4151950
  H       -0.1609320    -0.3839550    -1.3725900
  H        2.2351040    -0.6390970    -1.2733090
  H        2.8261900    -1.3231820     0.2368400
  H        0.9367840    -0.1585690     1.4880300
  H       -1.4764410     2.1380570     0.1977940
  H       -2.2008650     1.3268630    -1.2105240
  H       -3.1068830     1.4512670     0.3117270
  H        3.3300870     0.9922950     1.0954650
  H        2.7636150     1.6688370    -0.4368240
  H        4.2103780     0.6456890    -0.3991480
  H       -3.2411570    -0.9446250     0.2124840
units angstrom
no_reorient  #important for SAPT in psi4, default
symmetry c1  #important for SAPT in psi4, default
}

set PROPERTIES_ORIGIN ["COM"]
properties('MP2/aug-cc-pvtz', properties = ['dipole'])
--------------------------------------------------------------------------

    Molecular point group: c1
  Charge       = 0
  Multiplicity = 1
  Basis Set: AUG-CC-PVTZ
    Blend: AUG-CC-PVTZ
  Basis Set: (AUG-CC-PVTZ AUX)
    Blend: AUG-CC-PVTZ-JKFIT

    Orbital Energies [Eh]
    ---------------------

    Doubly Occupied:

       1A    -20.555070     2A    -11.283049     3A    -11.227628
       4A    -11.223913     5A    -11.220270     6A    -11.219093
       7A    -11.215253     8A     -1.353708     9A     -1.089553
      10A     -1.032185    11A     -0.970683    12A     -0.874864
      13A     -0.809940    14A     -0.756885    15A     -0.681616
      16A     -0.632223    17A     -0.624708    18A     -0.596951
      19A     -0.590534    20A     -0.542611    21A     -0.540743
      22A     -0.531525    23A     -0.514720    24A     -0.501401
      25A     -0.485204    26A     -0.460885    27A     -0.443540
      28A     -0.349400

  @DF-RHF Final Energy:  -309.14931342404537

   => Energetics <=

    Nuclear Repulsion Energy =            299.1205016286718319
    One-Electron Energy =               -1011.8833235766070402
    Two-Electron Energy =                 403.6135085238898341
    Total Energy =                       -309.1493134240453742
  Basis Set: (AUG-CC-PVTZ AUX)
    Blend: AUG-CC-PVTZ-RI
    Molecular point group: c1

    Geometry (in Angstrom), charge = 0, multiplicity = 1:

       Center              X                  Y                   Z               Mass
    ------------   -----------------  -----------------  -----------------  -----------------
         O           -2.341017626788    -1.115006610800    -0.117530884969    15.994914619570
         C           -1.515757626788    -0.025948610800     0.320383115031    12.000000000000
         C           -0.164297326788    -0.254101110800    -0.297134184969    12.000000000000
         C            2.329406873212    -0.444828910800    -0.208992684969    12.000000000000
         C            0.973930373212    -0.280910610800     0.406242115031    12.000000000000
         C           -2.110383626788     1.306799389200    -0.118679884969    12.000000000000
         C            3.213223373212     0.787415389200     0.029939115031    12.000000000000
         H           -1.420878626788    -0.039989610800     1.417807115031     1.007825032230
         H           -0.161006626788    -0.383711610800    -1.369977884969     1.007825032230
         H            2.235029373212    -0.638853610800    -1.270696884969     1.007825032230
         H            2.826115373212    -1.322938610800     0.239452115031     1.007825032230
         H            0.936709373212    -0.158325610800     1.490642115031     1.007825032230
         H           -1.476515626788     2.138300389200     0.200406115031     1.007825032230
         H           -2.200939626788     1.327106389200    -1.207911884969     1.007825032230
         H           -3.106957626788     1.451510389200     0.314339115031     1.007825032230
         H            3.330012373212     0.992538389200     1.098077115031     1.007825032230
         H            2.763540373212     1.669080389200    -0.434211884969     1.007825032230
         H            4.210303373212     0.645932389200    -0.396535884969     1.007825032230
         H           -3.241231626788    -0.944381610800     0.215096115031     1.007825032230

  Basis Set: AUG-CC-PVTZ
    Blend: AUG-CC-PVTZ
  Basis Set: (AUG-CC-PVTZ AUX)
    Blend: AUG-CC-PVTZ-JKFIT
	 Reference Energy          =    -309.1493134240453742 [Eh]
	 Singles Energy            =      -0.0000000000000000 [Eh]
	 Same-Spin Energy          =      -0.3164167586400473 [Eh]
	 Opposite-Spin Energy      =      -1.1022471531418321 [Eh]
	 Correlation Energy        =      -1.4186639117818793 [Eh]
	 Total Energy              =    -310.5679773358272655 [Eh]

	 ================> DF-SCS-MP2 Energies <==================
	-----------------------------------------------------------
	 SCS Same-Spin Scale       =       0.3333333333333333 [-]
	 SCS Opposite-Spin Scale   =       1.2000000000000000 [-]
	 SCS Same-Spin Energy      =      -0.1054722528800157 [Eh]
	 SCS Opposite-Spin Energy  =      -1.3226965837701985 [Eh]
	 SCS Correlation Energy    =      -1.4281688366502143 [Eh]
	 SCS Total Energy          =    -310.5774822606956036 [Eh]
	-----------------------------------------------------------

  Dipole Moment: [D]
     X:    -0.0968      Y:     1.3754      Z:     0.8070     Total:     1.5976

*** Psi4 exiting successfully. Buy a developer a beer!
