                               Psi4 1.3.2 release

  ==> Input File <==

--------------------------------------------------------------------------
#psi4
#
memory 32 gb

molecule  {
0 1
  O       -2.3409430    -1.1152500    -0.1201430
  C       -1.5156830    -0.0261920     0.3177710
  C       -0.1327856    -0.2612754    -0.3484596
  C        2.3009042    -0.4481257    -0.2702829
  C        0.9740050    -0.2811540     0.4036300
  C       -2.1103090     1.3065560    -0.1212920
  C        3.2132980     0.7871720     0.0273270
  H       -1.4208040    -0.0402330     1.4151950
  H       -0.1609320    -0.3839550    -1.3725900
  H        2.2351040    -0.6390970    -1.2733090
  H        2.8261900    -1.3231820     0.2368400
  H        0.9367840    -0.1585690     1.4880300
  H       -1.4764410     2.1380570     0.1977940
  H       -2.2008650     1.3268630    -1.2105240
  H       -3.1068830     1.4512670     0.3117270
  H        3.3300870     0.9922950     1.0954650
  H        2.7636150     1.6688370    -0.4368240
  H        4.2103780     0.6456890    -0.3991480
  H       -3.2411570    -0.9446250     0.2124840
units angstrom
no_reorient  #important for SAPT in psi4, default
symmetry c1  #important for SAPT in psi4, default
}

set PROPERTIES_ORIGIN ["COM"]
properties('MP2/aug-cc-pvtz', properties = ['dipole'])
--------------------------------------------------------------------------

    Molecular point group: c1
  Charge       = 0
  Multiplicity = 1
  Basis Set: AUG-CC-PVTZ
    Blend: AUG-CC-PVTZ
  Basis Set: (AUG-CC-PVTZ AUX)
    Blend: AUG-CC-PVTZ-JKFIT

    Orbital Energies [Eh]
    ---------------------

    Doubly Occupied:

       1A    -20.553977     2A    -11.284007     3A    -11.228301
       4A    -11.222168     5A    -11.217989     6A    -11.217806
       7A    -11.215705     8A     -1.351903     9A     -1.088184
      10A     -1.025721    11A     -0.968355    12A     -0.870676
      13A     -0.808635    14A     -0.767410    15A     -0.681711
      16A     -0.627358    17A     -0.625107    18A     -0.597539
      19A     -0.589795    20A     -0.550266    21A     -0.540359
      22A     -0.529532    23A     -0.511393    24A     -0.503200
      25A     -0.491162    26A     -0.448156    27A     -0.442349
      28A     -0.347223

  @DF-RHF Final Energy:  -309.13719313202984

   => Energetics <=

    Nuclear Repulsion Energy =            298.6772632344604403
    One-Electron Energy =               -1011.0169394946990451
    Two-Electron Energy =                 403.2024831282087121
    Total Energy =                       -309.1371931320298359
  Basis Set: (AUG-CC-PVTZ AUX)
    Blend: AUG-CC-PVTZ-RI
    Molecular point group: c1

    Geometry (in Angstrom), charge = 0, multiplicity = 1:

       Center              X                  Y                   Z               Mass
    ------------   -----------------  -----------------  -----------------  -----------------
         O           -2.341360498266    -1.113809557962    -0.104655352374    15.994914619570
         C           -1.516100498266    -0.024751557962     0.333258647626    12.000000000000
         C           -0.133203098266    -0.259834957962    -0.332971952374    12.000000000000
         C            2.300486701734    -0.446685257962    -0.254795252374    12.000000000000
         C            0.973587501734    -0.279713557962     0.419117647626    12.000000000000
         C           -2.110726498266     1.307996442038    -0.105804352374    12.000000000000
         C            3.212880501734     0.788612442038     0.042814647626    12.000000000000
         H           -1.421221498266    -0.038792557962     1.430682647626     1.007825032230
         H           -0.161349498266    -0.382514557962    -1.357102352374     1.007825032230
         H            2.234686501734    -0.637656557962    -1.257821352374     1.007825032230
         H            2.825772501734    -1.321741557962     0.252327647626     1.007825032230
         H            0.936366501734    -0.157128557962     1.503517647626     1.007825032230
         H           -1.476858498266     2.139497442038     0.213281647626     1.007825032230
         H           -2.201282498266     1.328303442038    -1.195036352374     1.007825032230
         H           -3.107300498266     1.452707442038     0.327214647626     1.007825032230
         H            3.329669501734     0.993735442038     1.110952647626     1.007825032230
         H            2.763197501734     1.670277442038    -0.421336352374     1.007825032230
         H            4.209960501734     0.647129442038    -0.383660352374     1.007825032230
         H           -3.241574498266    -0.943184557962     0.227971647626     1.007825032230

  Basis Set: AUG-CC-PVTZ
    Blend: AUG-CC-PVTZ
  Basis Set: (AUG-CC-PVTZ AUX)
    Blend: AUG-CC-PVTZ-JKFIT
	 Reference Energy          =    -309.1371931320298359 [Eh]
	 Singles Energy            =      -0.0000000000000000 [Eh]
	 Same-Spin Energy          =      -0.3161225538881636 [Eh]
	 Opposite-Spin Energy      =      -1.1023333162720301 [Eh]
	 Correlation Energy        =      -1.4184558701601937 [Eh]
	 Total Energy              =    -310.5556490021900231 [Eh]

	 ================> DF-SCS-MP2 Energies <==================
	-----------------------------------------------------------
	 SCS Same-Spin Scale       =       0.3333333333333333 [-]
	 SCS Opposite-Spin Scale   =       1.2000000000000000 [-]
	 SCS Same-Spin Energy      =      -0.1053741846293879 [Eh]
	 SCS Opposite-Spin Energy  =      -1.3227999795264360 [Eh]
	 SCS Correlation Energy    =      -1.4281741641558239 [Eh]
	 SCS Total Energy          =    -310.5653672961856842 [Eh]
	-----------------------------------------------------------

  Dipole Moment: [D]
     X:    -0.1017      Y:     1.3630      Z:     0.7843     Total:     1.5758

*** Psi4 exiting successfully. Buy a developer a beer!
