                               Psi4 1.3.2 release

  ==> Input File <==

--------------------------------------------------------------------------
#psi4
#
memory 32 gb

molecule  {
0 1
  O       -2.3409430    -1.1152500    -0.1201430
  C       -1.5156830    -0.0261920     0.3177710
  C       -0.1761941    -0.2515857    -0.2798809
  C        2.3401929    -0.4437632    -0.1877993
  C        0.9740050    -0.2811540     0.4036300
  C       -2.1103090     1.3065560    -0.1212920
  C        3.2132980     0.7871720     0.0273270
  H       -1.4208040    -0.0402330     1.4151950
  H       -0.1609320    -0.3839550    -1.3725900
  H        2.2351040    -0.6390970    -1.2733090
  H        2.8261900    -1.3231820     0.2368400
  H        0.9367840    -0.1585690     1.4880300
  H       -1.4764410     2.1380570     0.1977940
  H       -2.2008650     1.3268630    -1.2105240
  H       -3.1068830     1.4512670     0.3117270
  H        3.3300870     0.9922950     1.0954650
  H        2.7636150     1.6688370    -0.4368240
  H        4.2103780     0.6456890    -0.3991480
  H       -3.2411570    -0.9446250     0.2124840
units angstrom
no_reorient  #important for SAPT in psi4, default
symmetry c1  #important for SAPT in psi4, default
}

set PROPERTIES_ORIGIN ["COM"]
properties('MP2/aug-cc-pvtz', properties = ['dipole'])
--------------------------------------------------------------------------

    Molecular point group: c1
  Charge       = 0
  Multiplicity = 1
  Basis Set: AUG-CC-PVTZ
    Blend: AUG-CC-PVTZ
  Basis Set: (AUG-CC-PVTZ AUX)
    Blend: AUG-CC-PVTZ-JKFIT

    Orbital Energies [Eh]
    ---------------------

    Doubly Occupied:

       1A    -20.555524     2A    -11.282606     3A    -11.227796
       4A    -11.225080     5A    -11.221526     6A    -11.219563
       7A    -11.215267     8A     -1.354447     9A     -1.090568
      10A     -1.035008    11A     -0.971631    12A     -0.876944
      13A     -0.810935    14A     -0.753323    15A     -0.681612
      16A     -0.634828    17A     -0.624689    18A     -0.599630
      19A     -0.587953    20A     -0.543710    21A     -0.539282
      22A     -0.530515    23A     -0.518260    24A     -0.502357
      25A     -0.478799    26A     -0.463909    27A     -0.443845
      28A     -0.350251

  @DF-RHF Final Energy:  -309.14883193932303

   => Energetics <=

    Nuclear Repulsion Energy =            299.3059487758150681
    One-Electron Energy =               -1012.2298453797640150
    Two-Electron Energy =                 403.7750646646259156
    Total Energy =                       -309.1488319393230313
  Basis Set: (AUG-CC-PVTZ AUX)
    Blend: AUG-CC-PVTZ-RI
    Molecular point group: c1

    Geometry (in Angstrom), charge = 0, multiplicity = 1:

       Center              X                  Y                   Z               Mass
    ------------   -----------------  -----------------  -----------------  -----------------
         O           -2.340866560957    -1.115494325636    -0.122766742742    15.994914619570
         C           -1.515606560957    -0.026436325636     0.315147257258    12.000000000000
         C           -0.176117660957    -0.251830025636    -0.282504642742    12.000000000000
         C            2.340269339043    -0.444007525636    -0.190423042742    12.000000000000
         C            0.974081439043    -0.281398325636     0.401006257258    12.000000000000
         C           -2.110232560957     1.306311674364    -0.123915742742    12.000000000000
         C            3.213374439043     0.786927674364     0.024703257258    12.000000000000
         H           -1.420727560957    -0.040477325636     1.412571257258     1.007825032230
         H           -0.160855560957    -0.384199325636    -1.375213742742     1.007825032230
         H            2.235180439043    -0.639341325636    -1.275932742742     1.007825032230
         H            2.826266439043    -1.323426325636     0.234216257258     1.007825032230
         H            0.936860439043    -0.158813325636     1.485406257258     1.007825032230
         H           -1.476364560957     2.137812674364     0.195170257258     1.007825032230
         H           -2.200788560957     1.326618674364    -1.213147742742     1.007825032230
         H           -3.106806560957     1.451022674364     0.309103257258     1.007825032230
         H            3.330163439043     0.992050674364     1.092841257258     1.007825032230
         H            2.763691439043     1.668592674364    -0.439447742742     1.007825032230
         H            4.210454439043     0.645444674364    -0.401771742742     1.007825032230
         H           -3.241080560957    -0.944869325636     0.209860257258     1.007825032230

  Basis Set: AUG-CC-PVTZ
    Blend: AUG-CC-PVTZ
  Basis Set: (AUG-CC-PVTZ AUX)
    Blend: AUG-CC-PVTZ-JKFIT
	 Reference Energy          =    -309.1488319393230313 [Eh]
	 Singles Energy            =      -0.0000000000000000 [Eh]
	 Same-Spin Energy          =      -0.3166640169468447 [Eh]
	 Opposite-Spin Energy      =      -1.1025395853337203 [Eh]
	 Correlation Energy        =      -1.4192036022805650 [Eh]
	 Total Energy              =    -310.5680355416035923 [Eh]

	 ================> DF-SCS-MP2 Energies <==================
	-----------------------------------------------------------
	 SCS Same-Spin Scale       =       0.3333333333333333 [-]
	 SCS Opposite-Spin Scale   =       1.2000000000000000 [-]
	 SCS Same-Spin Energy      =      -0.1055546723156149 [Eh]
	 SCS Opposite-Spin Energy  =      -1.3230475024004644 [Eh]
	 SCS Correlation Energy    =      -1.4286021747160793 [Eh]
	 SCS Total Energy          =    -310.5774341140391357 [Eh]
	-----------------------------------------------------------

  Dipole Moment: [D]
     X:    -0.0936      Y:     1.3837      Z:     0.8221     Total:     1.6122

*** Psi4 exiting successfully. Buy a developer a beer!
