                               Psi4 1.3.2 release

  ==> Input File <==

--------------------------------------------------------------------------
#psi4
#
memory 32 gb

molecule  {
0 1
  O       -2.3409430    -1.1152500    -0.1201430
  C       -1.5210970    -0.0269923     0.3059417
  C       -0.1702520    -0.2529640    -0.2898400
  C        2.3348890    -0.4444240    -0.1997250
  C        0.9740050    -0.2811540     0.4036300
  C       -2.1103090     1.3065560    -0.1212920
  C        3.2132980     0.7871720     0.0273270
  H       -1.4208040    -0.0402330     1.4151950
  H       -0.1703891    -0.3828937    -1.3727580
  H        2.2351040    -0.6390970    -1.2733090
  H        2.8261900    -1.3231820     0.2368400
  H        0.9367840    -0.1585690     1.4880300
  H       -1.4764410     2.1380570     0.1977940
  H       -2.2008650     1.3268630    -1.2105240
  H       -3.1068830     1.4512670     0.3117270
  H        3.3300870     0.9922950     1.0954650
  H        2.7636150     1.6688370    -0.4368240
  H        4.2103780     0.6456890    -0.3991480
  H       -3.2411570    -0.9446250     0.2124840
units angstrom
no_reorient  #important for SAPT in psi4, default
symmetry c1  #important for SAPT in psi4, default
}

set PROPERTIES_ORIGIN ["COM"]
properties('MP2/aug-cc-pvtz', properties = ['dipole'])
--------------------------------------------------------------------------

    Molecular point group: c1
  Charge       = 0
  Multiplicity = 1
  Basis Set: AUG-CC-PVTZ
    Blend: AUG-CC-PVTZ
  Basis Set: (AUG-CC-PVTZ AUX)
    Blend: AUG-CC-PVTZ-JKFIT

    Orbital Energies [Eh]
    ---------------------

    Doubly Occupied:

       1A    -20.556195     2A    -11.283044     3A    -11.227898
       4A    -11.224463     5A    -11.220813     6A    -11.219179
       7A    -11.215209     8A     -1.357111     9A     -1.089828
      10A     -1.033856    11A     -0.971510    12A     -0.876008
      13A     -0.810187    14A     -0.754111    15A     -0.682117
      16A     -0.634523    17A     -0.626153    18A     -0.598693
      19A     -0.589300    20A     -0.543133    21A     -0.540301
      22A     -0.531377    23A     -0.516820    24A     -0.502008
      25A     -0.481945    26A     -0.461945    27A     -0.441950
      28A     -0.349916

  @DF-RHF Final Energy:  -309.14923432860274

   => Energetics <=

    Nuclear Repulsion Energy =            299.2971787199426785
    One-Electron Energy =               -1012.2136374084800536
    Two-Electron Energy =                 403.7672243599346871
    Total Energy =                       -309.1492343286027449
  Basis Set: (AUG-CC-PVTZ AUX)
    Blend: AUG-CC-PVTZ-RI
    Molecular point group: c1

    Geometry (in Angstrom), charge = 0, multiplicity = 1:

       Center              X                  Y                   Z               Mass
    ------------   -----------------  -----------------  -----------------  -----------------
         O           -2.340198747055    -1.115164586541    -0.118722949091    15.994914619570
         C           -1.520352747055    -0.026906886541     0.307361750909    12.000000000000
         C           -0.169507747055    -0.252878586541    -0.288419949091    12.000000000000
         C            2.335633252945    -0.444338586541    -0.198304949091    12.000000000000
         C            0.974749252945    -0.281068586541     0.405050050909    12.000000000000
         C           -2.109564747055     1.306641413459    -0.119871949091    12.000000000000
         C            3.214042252945     0.787257413459     0.028747050909    12.000000000000
         H           -1.420059747055    -0.040147586541     1.416615050909     1.007825032230
         H           -0.169644847055    -0.382808286541    -1.371337949091     1.007825032230
         H            2.235848252945    -0.639011586541    -1.271888949091     1.007825032230
         H            2.826934252945    -1.323096586541     0.238260050909     1.007825032230
         H            0.937528252945    -0.158483586541     1.489450050909     1.007825032230
         H           -1.475696747055     2.138142413459     0.199214050909     1.007825032230
         H           -2.200120747055     1.326948413459    -1.209103949091     1.007825032230
         H           -3.106138747055     1.451352413459     0.313147050909     1.007825032230
         H            3.330831252945     0.992380413459     1.096885050909     1.007825032230
         H            2.764359252945     1.668922413459    -0.435403949091     1.007825032230
         H            4.211122252945     0.645774413459    -0.397727949091     1.007825032230
         H           -3.240412747055    -0.944539586541     0.213904050909     1.007825032230

  Basis Set: AUG-CC-PVTZ
    Blend: AUG-CC-PVTZ
  Basis Set: (AUG-CC-PVTZ AUX)
    Blend: AUG-CC-PVTZ-JKFIT
	 Reference Energy          =    -309.1492343286027449 [Eh]
	 Singles Energy            =      -0.0000000000000000 [Eh]
	 Same-Spin Energy          =      -0.3165585362143715 [Eh]
	 Opposite-Spin Energy      =      -1.1023334068513286 [Eh]
	 Correlation Energy        =      -1.4188919430657001 [Eh]
	 Total Energy              =    -310.5681262716684614 [Eh]

	 ================> DF-SCS-MP2 Energies <==================
	-----------------------------------------------------------
	 SCS Same-Spin Scale       =       0.3333333333333333 [-]
	 SCS Opposite-Spin Scale   =       1.2000000000000000 [-]
	 SCS Same-Spin Energy      =      -0.1055195120714572 [Eh]
	 SCS Opposite-Spin Energy  =      -1.3228000882215942 [Eh]
	 SCS Correlation Energy    =      -1.4283196002930514 [Eh]
	 SCS Total Energy          =    -310.5775539288957816 [Eh]
	-----------------------------------------------------------

  Dipole Moment: [D]
     X:    -0.1167      Y:     1.3695      Z:     0.7953     Total:     1.5880

*** Psi4 exiting successfully. Buy a developer a beer!
