                               Psi4 1.3.2 release

  ==> Input File <==

--------------------------------------------------------------------------
#psi4
#
memory 32 gb

molecule  {
0 1
  O       -2.3487420    -1.1356510    -0.0482667
  C       -1.5156830    -0.0261920     0.3177710
  C       -0.1702520    -0.2529640    -0.2898400
  C        2.3348890    -0.4444240    -0.1997250
  C        0.9740050    -0.2811540     0.4036300
  C       -2.1103090     1.3065560    -0.1212920
  C        3.2132980     0.7871720     0.0273270
  H       -1.4544284    -0.0870838     1.4159871
  H       -0.1609320    -0.3839550    -1.3725900
  H        2.2351040    -0.6390970    -1.2733090
  H        2.8261900    -1.3231820     0.2368400
  H        0.9367840    -0.1585690     1.4880300
  H       -1.4764410     2.1380570     0.1977940
  H       -2.2008650     1.3268630    -1.2105240
  H       -3.1068830     1.4512670     0.3117270
  H        3.3300870     0.9922950     1.0954650
  H        2.7636150     1.6688370    -0.4368240
  H        4.2103780     0.6456890    -0.3991480
  H       -3.2411570    -0.9446250     0.2124840
units angstrom
no_reorient  #important for SAPT in psi4, default
symmetry c1  #important for SAPT in psi4, default
}

set PROPERTIES_ORIGIN ["COM"]
properties('MP2/aug-cc-pvtz', properties = ['dipole'])
--------------------------------------------------------------------------

    Molecular point group: c1
  Charge       = 0
  Multiplicity = 1
  Basis Set: AUG-CC-PVTZ
    Blend: AUG-CC-PVTZ
  Basis Set: (AUG-CC-PVTZ AUX)
    Blend: AUG-CC-PVTZ-JKFIT

    Orbital Energies [Eh]
    ---------------------

    Doubly Occupied:

       1A    -20.549580     2A    -11.282589     3A    -11.228497
       4A    -11.224866     5A    -11.221674     6A    -11.221119
       7A    -11.215553     8A     -1.357121     9A     -1.090639
      10A     -1.034435    11A     -0.971761    12A     -0.877049
      13A     -0.812911    14A     -0.754997    15A     -0.680279
      16A     -0.637456    17A     -0.627533    18A     -0.598595
      19A     -0.589764    20A     -0.543165    21A     -0.540923
      22A     -0.531722    23A     -0.516456    24A     -0.500722
      25A     -0.482317    26A     -0.463673    27A     -0.441019
      28A     -0.350631

  @DF-RHF Final Energy:  -309.14971411936904

   => Energetics <=

    Nuclear Repulsion Energy =            299.0624115564882572
    One-Electron Energy =               -1011.7301590309804169
    Two-Electron Energy =                 403.5180333551231797
    Total Energy =                       -309.1497141193690368
  Basis Set: (AUG-CC-PVTZ AUX)
    Blend: AUG-CC-PVTZ-RI
    Molecular point group: c1

    Geometry (in Angstrom), charge = 0, multiplicity = 1:

       Center              X                  Y                   Z               Mass
    ------------   -----------------  -----------------  -----------------  -----------------
         O           -2.347157166126    -1.131918868704    -0.059760924222    15.994914619570
         C           -1.514098166126    -0.022459868704     0.306276775778    12.000000000000
         C           -0.168667166126    -0.249231868704    -0.301334224222    12.000000000000
         C            2.336473833874    -0.440691868704    -0.211219224222    12.000000000000
         C            0.975589833874    -0.277421868704     0.392135775778    12.000000000000
         C           -2.108724166126     1.310288131296    -0.132786224222    12.000000000000
         C            3.214882833874     0.790904131296     0.015832775778    12.000000000000
         H           -1.452843566126    -0.083351668704     1.404492875778     1.007825032230
         H           -0.159347166126    -0.380222868704    -1.384084224222     1.007825032230
         H            2.236688833874    -0.635364868704    -1.284803224222     1.007825032230
         H            2.827774833874    -1.319449868704     0.225345775778     1.007825032230
         H            0.938368833874    -0.154836868704     1.476535775778     1.007825032230
         H           -1.474856166126     2.141789131296     0.186299775778     1.007825032230
         H           -2.199280166126     1.330595131296    -1.222018224222     1.007825032230
         H           -3.105298166126     1.454999131296     0.300232775778     1.007825032230
         H            3.331671833874     0.996027131296     1.083970775778     1.007825032230
         H            2.765199833874     1.672569131296    -0.448318224222     1.007825032230
         H            4.211962833874     0.649421131296    -0.410642224222     1.007825032230
         H           -3.239572166126    -0.940892868704     0.200989775778     1.007825032230

  Basis Set: AUG-CC-PVTZ
    Blend: AUG-CC-PVTZ
  Basis Set: (AUG-CC-PVTZ AUX)
    Blend: AUG-CC-PVTZ-JKFIT
	 Reference Energy          =    -309.1497141193690368 [Eh]
	 Singles Energy            =      -0.0000000000000000 [Eh]
	 Same-Spin Energy          =      -0.3160566148143157 [Eh]
	 Opposite-Spin Energy      =      -1.1013326073298806 [Eh]
	 Correlation Energy        =      -1.4173892221441964 [Eh]
	 Total Energy              =    -310.5671033415132456 [Eh]

	 ================> DF-SCS-MP2 Energies <==================
	-----------------------------------------------------------
	 SCS Same-Spin Scale       =       0.3333333333333333 [-]
	 SCS Opposite-Spin Scale   =       1.2000000000000000 [-]
	 SCS Same-Spin Energy      =      -0.1053522049381052 [Eh]
	 SCS Opposite-Spin Energy  =      -1.3215991287958566 [Eh]
	 SCS Correlation Energy    =      -1.4269513337339619 [Eh]
	 SCS Total Energy          =    -310.5766654531029758 [Eh]
	-----------------------------------------------------------

  Dipole Moment: [D]
     X:    -0.0683      Y:     1.4711      Z:     0.6710     Total:     1.6184

*** Psi4 exiting successfully. Buy a developer a beer!
