                               Psi4 1.3.2 release

  ==> Input File <==

--------------------------------------------------------------------------
#psi4
#
memory 32 gb

molecule  {
0 1
  O       -2.3409430    -1.1152500    -0.1201430
  C       -1.5156830    -0.0261920     0.3177710
  C       -0.1702520    -0.2529640    -0.2898400
  C        2.3348890    -0.4444240    -0.1997250
  C        0.9740050    -0.2811540     0.4036300
  C       -2.1103090     1.3065560    -0.1212920
  C        3.2132980     0.7871720     0.0273270
  H       -1.4208040    -0.0402330     1.4151950
  H       -0.1592230    -0.4079750    -1.5711350
  H        2.2351040    -0.6390970    -1.2733090
  H        2.8261900    -1.3231820     0.2368400
  H        0.9367840    -0.1585690     1.4880300
  H       -1.4764410     2.1380570     0.1977940
  H       -2.2008650     1.3268630    -1.2105240
  H       -3.1068830     1.4512670     0.3117270
  H        3.3300870     0.9922950     1.0954650
  H        2.7636150     1.6688370    -0.4368240
  H        4.2103780     0.6456890    -0.3991480
  H       -3.2411570    -0.9446250     0.2124840
units angstrom
no_reorient  #important for SAPT in psi4, default
symmetry c1  #important for SAPT in psi4, default
}

set PROPERTIES_ORIGIN ["COM"]
properties('MP2/aug-cc-pvtz', properties = ['dipole'])
--------------------------------------------------------------------------

    Molecular point group: c1
  Charge       = 0
  Multiplicity = 1
  Basis Set: AUG-CC-PVTZ
    Blend: AUG-CC-PVTZ
  Basis Set: (AUG-CC-PVTZ AUX)
    Blend: AUG-CC-PVTZ-JKFIT

    Orbital Energies [Eh]
    ---------------------

    Doubly Occupied:

       1A    -20.555730     2A    -11.285946     3A    -11.242789
       4A    -11.229911     5A    -11.224634     6A    -11.219636
       7A    -11.215356     8A     -1.354538     9A     -1.088646
      10A     -1.033607    11A     -0.970198    12A     -0.875676
      13A     -0.810944    14A     -0.737201    15A     -0.682243
      16A     -0.634304    17A     -0.622398    18A     -0.598592
      19A     -0.580094    20A     -0.543590    21A     -0.538070
      22A     -0.519089    23A     -0.514197    24A     -0.501659
      25A     -0.482024    26A     -0.456637    27A     -0.443491
      28A     -0.351880

  @DF-RHF Final Energy:  -309.12803568941013

   => Energetics <=

    Nuclear Repulsion Energy =            298.3538896279484334
    One-Electron Energy =               -1010.3376944858821389
    Two-Electron Energy =                 402.8557691685235795
    Total Energy =                       -309.1280356894101260
  Basis Set: (AUG-CC-PVTZ AUX)
    Blend: AUG-CC-PVTZ-RI
    Molecular point group: c1

    Geometry (in Angstrom), charge = 0, multiplicity = 1:

       Center              X                  Y                   Z               Mass
    ------------   -----------------  -----------------  -----------------  -----------------
         O           -2.340960285445    -1.115007986006    -0.118143686499    15.994914619570
         C           -1.515700285445    -0.025949986006     0.319770313501    12.000000000000
         C           -0.170269285445    -0.252721986006    -0.287840686499    12.000000000000
         C            2.334871714555    -0.444181986006    -0.197725686499    12.000000000000
         C            0.973987714555    -0.280911986006     0.405629313501    12.000000000000
         C           -2.110326285445     1.306798013994    -0.119292686499    12.000000000000
         C            3.213280714555     0.787414013994     0.029326313501    12.000000000000
         H           -1.420821285445    -0.039990986006     1.417194313501     1.007825032230
         H           -0.159240285445    -0.407732986006    -1.569135686499     1.007825032230
         H            2.235086714555    -0.638854986006    -1.271309686499     1.007825032230
         H            2.826172714555    -1.322939986006     0.238839313501     1.007825032230
         H            0.936766714555    -0.158326986006     1.490029313501     1.007825032230
         H           -1.476458285445     2.138299013994     0.199793313501     1.007825032230
         H           -2.200882285445     1.327105013994    -1.208524686499     1.007825032230
         H           -3.106900285445     1.451509013994     0.313726313501     1.007825032230
         H            3.330069714555     0.992537013994     1.097464313501     1.007825032230
         H            2.763597714555     1.669079013994    -0.434824686499     1.007825032230
         H            4.210360714555     0.645931013994    -0.397148686499     1.007825032230
         H           -3.241174285445    -0.944382986006     0.214483313501     1.007825032230

  Basis Set: AUG-CC-PVTZ
    Blend: AUG-CC-PVTZ
  Basis Set: (AUG-CC-PVTZ AUX)
    Blend: AUG-CC-PVTZ-JKFIT
	 Reference Energy          =    -309.1280356894101260 [Eh]
	 Singles Energy            =      -0.0000000000000000 [Eh]
	 Same-Spin Energy          =      -0.3170631635200734 [Eh]
	 Opposite-Spin Energy      =      -1.1044276577751160 [Eh]
	 Correlation Energy        =      -1.4214908212951893 [Eh]
	 Total Energy              =    -310.5495265107053342 [Eh]

	 ================> DF-SCS-MP2 Energies <==================
	-----------------------------------------------------------
	 SCS Same-Spin Scale       =       0.3333333333333333 [-]
	 SCS Opposite-Spin Scale   =       1.2000000000000000 [-]
	 SCS Same-Spin Energy      =      -0.1056877211733578 [Eh]
	 SCS Opposite-Spin Energy  =      -1.3253131893301391 [Eh]
	 SCS Correlation Energy    =      -1.4310009105034969 [Eh]
	 SCS Total Energy          =    -310.5590365999136111 [Eh]
	-----------------------------------------------------------

  Dipole Moment: [D]
     X:    -0.1155      Y:     1.3893      Z:     0.9129     Total:     1.6664

*** Psi4 exiting successfully. Buy a developer a beer!
