                               Psi4 1.3.2 release

  ==> Input File <==

--------------------------------------------------------------------------
#psi4
#
memory 32 gb

molecule  {
0 1
  O       -2.3409430    -1.1152500    -0.1201430
  C       -1.4929079    -0.0222725     0.3645024
  C       -0.1702520    -0.2529640    -0.2898400
  C        2.3348890    -0.4444240    -0.1997250
  C        0.9495930    -0.2732287     0.4426598
  C       -2.1103090     1.3065560    -0.1212920
  C        3.2132980     0.7871720     0.0273270
  H       -1.4208040    -0.0402330     1.4151950
  H       -0.1609320    -0.3839550    -1.3725900
  H        2.2351040    -0.6390970    -1.2733090
  H        2.8261900    -1.3231820     0.2368400
  H        0.9367840    -0.1585690     1.4880300
  H       -1.4764410     2.1380570     0.1977940
  H       -2.2008650     1.3268630    -1.2105240
  H       -3.1068830     1.4512670     0.3117270
  H        3.3300870     0.9922950     1.0954650
  H        2.7636150     1.6688370    -0.4368240
  H        4.2103780     0.6456890    -0.3991480
  H       -3.2411570    -0.9446250     0.2124840
units angstrom
no_reorient  #important for SAPT in psi4, default
symmetry c1  #important for SAPT in psi4, default
}

set PROPERTIES_ORIGIN ["COM"]
properties('MP2/aug-cc-pvtz', properties = ['dipole'])
--------------------------------------------------------------------------

    Molecular point group: c1
  Charge       = 0
  Multiplicity = 1
  Basis Set: AUG-CC-PVTZ
    Blend: AUG-CC-PVTZ
  Basis Set: (AUG-CC-PVTZ AUX)
    Blend: AUG-CC-PVTZ-JKFIT

    Orbital Energies [Eh]
    ---------------------

    Doubly Occupied:

       1A    -20.551230     2A    -11.280624     3A    -11.226116
       4A    -11.225436     5A    -11.222400     6A    -11.219807
       7A    -11.214403     8A     -1.341508     9A     -1.088266
      10A     -1.030475    11A     -0.969572    12A     -0.872715
      13A     -0.810009    14A     -0.765673    15A     -0.681501
      16A     -0.627198    17A     -0.618720    18A     -0.594365
      19A     -0.588239    20A     -0.545058    21A     -0.542382
      22A     -0.532717    23A     -0.512779    24A     -0.500215
      25A     -0.484855    26A     -0.459360    27A     -0.444973
      28A     -0.350719

  @DF-RHF Final Energy:  -309.14403609539414

   => Energetics <=

    Nuclear Repulsion Energy =            298.6763413185191780
    One-Electron Energy =               -1011.0381245320697872
    Two-Electron Energy =                 403.2177471181564101
    Total Energy =                       -309.1440360953941422
  Basis Set: (AUG-CC-PVTZ AUX)
    Blend: AUG-CC-PVTZ-RI
    Molecular point group: c1

    Geometry (in Angstrom), charge = 0, multiplicity = 1:

       Center              X                  Y                   Z               Mass
    ------------   -----------------  -----------------  -----------------  -----------------
         O           -2.340746823302    -1.116669965491    -0.130425108963    15.994914619570
         C           -1.492711723302    -0.023692465491     0.354220291037    12.000000000000
         C           -0.170055823302    -0.254383965491    -0.300122108963    12.000000000000
         C            2.335085176698    -0.445843965491    -0.210007108963    12.000000000000
         C            0.949789176698    -0.274648665491     0.432377691037    12.000000000000
         C           -2.110112823302     1.305136034509    -0.131574108963    12.000000000000
         C            3.213494176698     0.785752034509     0.017044891037    12.000000000000
         H           -1.420607823302    -0.041652965491     1.404912891037     1.007825032230
         H           -0.160735823302    -0.385374965491    -1.382872108963     1.007825032230
         H            2.235300176698    -0.640516965491    -1.283591108963     1.007825032230
         H            2.826386176698    -1.324601965491     0.226557891037     1.007825032230
         H            0.936980176698    -0.159988965491     1.477747891037     1.007825032230
         H           -1.476244823302     2.136637034509     0.187511891037     1.007825032230
         H           -2.200668823302     1.325443034509    -1.220806108963     1.007825032230
         H           -3.106686823302     1.449847034509     0.301444891037     1.007825032230
         H            3.330283176698     0.990875034509     1.085182891037     1.007825032230
         H            2.763811176698     1.667417034509    -0.447106108963     1.007825032230
         H            4.210574176698     0.644269034509    -0.409430108963     1.007825032230
         H           -3.240960823302    -0.946044965491     0.202201891037     1.007825032230

  Basis Set: AUG-CC-PVTZ
    Blend: AUG-CC-PVTZ
  Basis Set: (AUG-CC-PVTZ AUX)
    Blend: AUG-CC-PVTZ-JKFIT
	 Reference Energy          =    -309.1440360953941422 [Eh]
	 Singles Energy            =      -0.0000000000000000 [Eh]
	 Same-Spin Energy          =      -0.3162141069268622 [Eh]
	 Opposite-Spin Energy      =      -1.1026069084088954 [Eh]
	 Correlation Energy        =      -1.4188210153357577 [Eh]
	 Total Energy              =    -310.5628571107299081 [Eh]

	 ================> DF-SCS-MP2 Energies <==================
	-----------------------------------------------------------
	 SCS Same-Spin Scale       =       0.3333333333333333 [-]
	 SCS Opposite-Spin Scale   =       1.2000000000000000 [-]
	 SCS Same-Spin Energy      =      -0.1054047023089541 [Eh]
	 SCS Opposite-Spin Energy  =      -1.3231282900906745 [Eh]
	 SCS Correlation Energy    =      -1.4285329923996286 [Eh]
	 SCS Total Energy          =    -310.5725690877937950 [Eh]
	-----------------------------------------------------------

  Dipole Moment: [D]
     X:    -0.0439      Y:     1.4142      Z:     0.8936     Total:     1.6735

*** Psi4 exiting successfully. Buy a developer a beer!
