                               Psi4 1.3.2 release

  ==> Input File <==

--------------------------------------------------------------------------
#psi4
#
memory 32 gb

molecule  {
0 1
  O       -2.3409430    -1.1152500    -0.1201430
  C       -1.5557095    -0.0059861     0.3400873
  C       -0.1702520    -0.2529640    -0.2898400
  C        2.3348890    -0.4444240    -0.1997250
  C        0.9740050    -0.2811540     0.4036300
  C       -2.1103090     1.3065560    -0.1212920
  C        3.2132980     0.7871720     0.0273270
  H       -1.4208040    -0.0402330     1.4151950
  H       -0.1609320    -0.3839550    -1.3725900
  H        2.2351040    -0.6390970    -1.2733090
  H        2.8261900    -1.3231820     0.2368400
  H        0.9367840    -0.1585690     1.4880300
  H       -1.4764410     2.1380570     0.1977940
  H       -2.2008650     1.3268630    -1.2105240
  H       -3.1068830     1.4512670     0.3117270
  H        3.3300870     0.9922950     1.0954650
  H        2.7636150     1.6688370    -0.4368240
  H        4.2103780     0.6456890    -0.3991480
  H       -3.2298070    -0.9158814     0.2267170
units angstrom
no_reorient  #important for SAPT in psi4, default
symmetry c1  #important for SAPT in psi4, default
}

set PROPERTIES_ORIGIN ["COM"]
properties('MP2/aug-cc-pvtz', properties = ['dipole'])
--------------------------------------------------------------------------

    Molecular point group: c1
  Charge       = 0
  Multiplicity = 1
  Basis Set: AUG-CC-PVTZ
    Blend: AUG-CC-PVTZ
  Basis Set: (AUG-CC-PVTZ AUX)
    Blend: AUG-CC-PVTZ-JKFIT

    Orbital Energies [Eh]
    ---------------------

    Doubly Occupied:

       1A    -20.558276     2A    -11.283042     3A    -11.225325
       4A    -11.223312     5A    -11.221771     6A    -11.219914
       7A    -11.214409     8A     -1.357672     9A     -1.086388
      10A     -1.033997    11A     -0.972949    12A     -0.871610
      13A     -0.809817    14A     -0.754609    15A     -0.682084
      16A     -0.631962    17A     -0.624619    18A     -0.598562
      19A     -0.590273    20A     -0.548301    21A     -0.538259
      22A     -0.530604    23A     -0.516816    24A     -0.503724
      25A     -0.480876    26A     -0.454192    27A     -0.449788
      28A     -0.348960

  @DF-RHF Final Energy:  -309.14610115302742

   => Energetics <=

    Nuclear Repulsion Energy =            298.9242507843051726
    One-Electron Energy =               -1011.4764811873602639
    Two-Electron Energy =                 403.4061292500276750
    Total Energy =                       -309.1461011530274163
  Basis Set: (AUG-CC-PVTZ AUX)
    Blend: AUG-CC-PVTZ-RI
    Molecular point group: c1

    Geometry (in Angstrom), charge = 0, multiplicity = 1:

       Center              X                  Y                   Z               Mass
    ------------   -----------------  -----------------  -----------------  -----------------
         O           -2.336258445796    -1.117961835313    -0.122961793245    15.994914619570
         C           -1.551024945796    -0.008697935313     0.337268506755    12.000000000000
         C           -0.165567445796    -0.255675835313    -0.292658793245    12.000000000000
         C            2.339573554204    -0.447135835313    -0.202543793245    12.000000000000
         C            0.978689554204    -0.283865835313     0.400811206755    12.000000000000
         C           -2.105624445796     1.303844164687    -0.124110793245    12.000000000000
         C            3.217982554204     0.784460164687     0.024508206755    12.000000000000
         H           -1.416119445796    -0.042944835313     1.412376206755     1.007825032230
         H           -0.156247445796    -0.386666835313    -1.375408793245     1.007825032230
         H            2.239788554204    -0.641808835313    -1.276127793245     1.007825032230
         H            2.830874554204    -1.325893835313     0.234021206755     1.007825032230
         H            0.941468554204    -0.161280835313     1.485211206755     1.007825032230
         H           -1.471756445796     2.135345164687     0.194975206755     1.007825032230
         H           -2.196180445796     1.324151164687    -1.213342793245     1.007825032230
         H           -3.102198445796     1.448555164687     0.308908206755     1.007825032230
         H            3.334771554204     0.989583164687     1.092646206755     1.007825032230
         H            2.768299554204     1.666125164687    -0.439642793245     1.007825032230
         H            4.215062554204     0.642977164687    -0.401966793245     1.007825032230
         H           -3.225122445796    -0.918593235313     0.223898206755     1.007825032230

  Basis Set: AUG-CC-PVTZ
    Blend: AUG-CC-PVTZ
  Basis Set: (AUG-CC-PVTZ AUX)
    Blend: AUG-CC-PVTZ-JKFIT
	 Reference Energy          =    -309.1461011530274163 [Eh]
	 Singles Energy            =      -0.0000000000000000 [Eh]
	 Same-Spin Energy          =      -0.3166286086290109 [Eh]
	 Opposite-Spin Energy      =      -1.1028020061700861 [Eh]
	 Correlation Energy        =      -1.4194306147990969 [Eh]
	 Total Energy              =    -310.5655317678264851 [Eh]

	 ================> DF-SCS-MP2 Energies <==================
	-----------------------------------------------------------
	 SCS Same-Spin Scale       =       0.3333333333333333 [-]
	 SCS Opposite-Spin Scale   =       1.2000000000000000 [-]
	 SCS Same-Spin Energy      =      -0.1055428695430036 [Eh]
	 SCS Opposite-Spin Energy  =      -1.3233624074041033 [Eh]
	 SCS Correlation Energy    =      -1.4289052769471069 [Eh]
	 SCS Total Energy          =    -310.5750064299745077 [Eh]
	-----------------------------------------------------------

  Dipole Moment: [D]
     X:    -0.1799      Y:     1.4489      Z:     0.8336     Total:     1.6812

*** Psi4 exiting successfully. Buy a developer a beer!
