                               Psi4 1.4a3.dev225

  ==> Input File <==

--------------------------------------------------------------------------
#psi4
#
memory 32 gb

molecule  {
0 1
  O       -2.4334040    -1.0537050    -0.1031880
  C       -1.5599110     0.0061750     0.3163080
  C       -0.2252920    -0.2882920    -0.2906650
  C        2.2718840    -0.5904540    -0.1973150
  C        0.9184280    -0.3582560     0.4039980
  C       -2.0985830     1.3582810    -0.1413790
  C        3.2072160     0.6032460     0.0168350
  H       -1.4627270     0.0051460     1.4138490
  H       -0.2231950    -0.4335060    -1.3719210
  H        2.1635620    -0.7923810    -1.2691220
  H        2.7222980    -1.4861610     0.2495370
  H        0.8868390    -0.2195170     1.4869310
  H       -1.4287050     2.1666040     0.1650490
  H       -2.1908800     1.3667930    -1.2308750
  H       -3.0873820     1.5512680     0.2912850
  H        3.3343300     0.8133780     1.0831920
  H        2.7976640     1.4999730    -0.4563300
  H        4.1964720     0.4112550    -0.4090930
  H       -3.3417873    -0.8329702     0.2330776
units angstrom
no_reorient  #important for SAPT in psi4, default
symmetry c1  #important for SAPT in psi4, default
}

set PROPERTIES_ORIGIN ["COM"]
properties('MP2/aug-cc-pvtz', properties = ['dipole'])
--------------------------------------------------------------------------

    Molecular point group: c1
  Charge       = 0
  Multiplicity = 1
  Basis Set: AUG-CC-PVTZ
    Blend: AUG-CC-PVTZ
  Basis Set: (AUG-CC-PVTZ AUX)
    Blend: AUG-CC-PVTZ-JKFIT

    Orbital Energies [Eh]
    ---------------------

    Doubly Occupied:

       1A    -20.557066     2A    -11.283157     3A    -11.228263
       4A    -11.224931     5A    -11.221463     6A    -11.219563
       7A    -11.215583     8A     -1.349755     9A     -1.089009
      10A     -1.032442    11A     -0.970696    12A     -0.875196
      13A     -0.809442    14A     -0.754779    15A     -0.678645
      16A     -0.632500    17A     -0.623286    18A     -0.597886
      19A     -0.588938    20A     -0.542527    21A     -0.539693
      22A     -0.530867    23A     -0.516066    24A     -0.501503
      25A     -0.482050    26A     -0.462301    27A     -0.443215
      28A     -0.349549

  @DF-RHF Final Energy:  -309.14773137663553

   => Energetics <=

    Nuclear Repulsion Energy =            298.8050707472162344
    One-Electron Energy =               -1011.2648606110861920
    Two-Electron Energy =                 403.3120584872343670
    Total Energy =                       -309.1477313766355337
  Basis Set: (AUG-CC-PVTZ AUX)
    Blend: AUG-CC-PVTZ-RI
    Molecular point group: c1

    Geometry (in Angstrom), charge = 0, multiplicity = 1:

       Center              X                  Y                   Z               Mass
    ------------   -----------------  -----------------  -----------------  -----------------
         O           -2.389877372176    -1.013701036986    -0.101488834280    15.994914619570
         C           -1.516384372176     0.046178963014     0.318007165720    12.000000000000
         C           -0.181765372176    -0.248288036986    -0.288965834280    12.000000000000
         C            2.315410627824    -0.550450036986    -0.195615834280    12.000000000000
         C            0.961954627824    -0.318252036986     0.405697165720    12.000000000000
         C           -2.055056372176     1.398284963014    -0.139679834280    12.000000000000
         C            3.250742627824     0.643249963014     0.018534165720    12.000000000000
         H           -1.419200372176     0.045149963014     1.415548165720     1.007825032230
         H           -0.179668372176    -0.393502036986    -1.370221834280     1.007825032230
         H            2.207088627824    -0.752377036986    -1.267422834280     1.007825032230
         H            2.765824627824    -1.446157036986     0.251236165720     1.007825032230
         H            0.930365627824    -0.179513036986     1.488630165720     1.007825032230
         H           -1.385178372176     2.206607963014     0.166748165720     1.007825032230
         H           -2.147353372176     1.406796963014    -1.229175834280     1.007825032230
         H           -3.043855372176     1.591271963014     0.292984165720     1.007825032230
         H            3.377856627824     0.853381963014     1.084891165720     1.007825032230
         H            2.841190627824     1.539976963014    -0.454630834280     1.007825032230
         H            4.239998627824     0.451258963014    -0.407393834280     1.007825032230
         H           -3.298260672176    -0.792966236986     0.234776765720     1.007825032230

  Basis Set: AUG-CC-PVTZ
    Blend: AUG-CC-PVTZ
  Basis Set: (AUG-CC-PVTZ AUX)
    Blend: AUG-CC-PVTZ-JKFIT
	 Reference Energy          =    -309.1477313766355337 [Eh]
	 Singles Energy            =      -0.0000000000000000 [Eh]
	 Same-Spin Energy          =      -0.3167064064739669 [Eh]
	 Opposite-Spin Energy      =      -1.1030424791075000 [Eh]
	 Correlation Energy        =      -1.4197488855814668 [Eh]
	 Total Energy              =    -310.5674802622169750 [Eh]

	 ================> DF-SCS-MP2 Energies <==================
	-----------------------------------------------------------
	 SCS Same-Spin Scale       =       0.3333333333333333 [-]
	 SCS Opposite-Spin Scale   =       1.2000000000000000 [-]
	 SCS Same-Spin Energy      =      -0.1055688021579890 [Eh]
	 SCS Opposite-Spin Energy  =      -1.3236509749290000 [Eh]
	 SCS Correlation Energy    =      -1.4292197770869890 [Eh]
	 SCS Total Energy          =    -310.5769511537225185 [Eh]
	-----------------------------------------------------------

  Dipole Moment: [D]
     X:    -0.0391      Y:     1.3979      Z:     0.7945     Total:     1.6084

*** Psi4 exiting successfully. Buy a developer a beer!
