                               Psi4 1.4a3.dev225

  ==> Input File <==

--------------------------------------------------------------------------
#psi4
#
memory 32 gb

molecule  {
0 1
  O       -2.4334040    -1.0537050    -0.1031880
  C       -1.5599110     0.0061750     0.3163080
  C       -0.2431412    -0.2843538    -0.2825473
  C        2.2718840    -0.5904540    -0.1973150
  C        0.9184280    -0.3582560     0.4039980
  C       -2.0985830     1.3582810    -0.1413790
  C        3.2072160     0.6032460     0.0168350
  H       -1.4627270     0.0051460     1.4138490
  H       -0.2231950    -0.4335060    -1.3719210
  H        2.1635620    -0.7923810    -1.2691220
  H        2.7222980    -1.4861610     0.2495370
  H        0.8868390    -0.2195170     1.4869310
  H       -1.4287050     2.1666040     0.1650490
  H       -2.1908800     1.3667930    -1.2308750
  H       -3.0873820     1.5512680     0.2912850
  H        3.3343300     0.8133780     1.0831920
  H        2.7976640     1.4999730    -0.4563300
  H        4.1964720     0.4112550    -0.4090930
  H       -3.3235000    -0.8374140     0.2263080
units angstrom
no_reorient  #important for SAPT in psi4, default
symmetry c1  #important for SAPT in psi4, default
}

set PROPERTIES_ORIGIN ["COM"]
properties('MP2/aug-cc-pvtz', properties = ['dipole'])
--------------------------------------------------------------------------

    Molecular point group: c1
  Charge       = 0
  Multiplicity = 1
  Basis Set: AUG-CC-PVTZ
    Blend: AUG-CC-PVTZ
  Basis Set: (AUG-CC-PVTZ AUX)
    Blend: AUG-CC-PVTZ-JKFIT

    Orbital Energies [Eh]
    ---------------------

    Doubly Occupied:

       1A    -20.555349     2A    -11.282491     3A    -11.230064
       4A    -11.225652     5A    -11.222731     6A    -11.219880
       7A    -11.215883     8A     -1.354453     9A     -1.088939
      10A     -1.034990    11A     -0.969705    12A     -0.877698
      13A     -0.810558    14A     -0.754016    15A     -0.681818
      16A     -0.634121    17A     -0.624769    18A     -0.598630
      19A     -0.588034    20A     -0.543475    21A     -0.538944
      22A     -0.529056    23A     -0.516595    24A     -0.502090
      25A     -0.481832    26A     -0.466582    27A     -0.443946
      28A     -0.346783

  @DF-RHF Final Energy:  -309.14803072406437

   => Energetics <=

    Nuclear Repulsion Energy =            299.0106651617468287
    One-Electron Energy =               -1011.6392222365357156
    Two-Electron Energy =                 403.4805263507245172
    Total Energy =                       -309.1480307240643697
  Basis Set: (AUG-CC-PVTZ AUX)
    Blend: AUG-CC-PVTZ-RI
    Molecular point group: c1

    Geometry (in Angstrom), charge = 0, multiplicity = 1:

       Center              X                  Y                   Z               Mass
    ------------   -----------------  -----------------  -----------------  -----------------
         O           -2.387921509263    -1.014128455646    -0.102393928697    15.994914619570
         C           -1.514428509263     0.045751544354     0.317102071303    12.000000000000
         C           -0.197658709263    -0.244777255646    -0.281753228697    12.000000000000
         C            2.317366490737    -0.550877455646    -0.196520928697    12.000000000000
         C            0.963910490737    -0.318679455646     0.404792071303    12.000000000000
         C           -2.053100509263     1.397857544354    -0.140584928697    12.000000000000
         C            3.252698490737     0.642822544354     0.017629071303    12.000000000000
         H           -1.417244509263     0.044722544354     1.414643071303     1.007825032230
         H           -0.177712509263    -0.393929455646    -1.371126928697     1.007825032230
         H            2.209044490737    -0.752804455646    -1.268327928697     1.007825032230
         H            2.767780490737    -1.446584455646     0.250331071303     1.007825032230
         H            0.932321490737    -0.179940455646     1.487725071303     1.007825032230
         H           -1.383222509263     2.206180544354     0.165843071303     1.007825032230
         H           -2.145397509263     1.406369544354    -1.230080928697     1.007825032230
         H           -3.041899509263     1.590844544354     0.292079071303     1.007825032230
         H            3.379812490737     0.852954544354     1.083986071303     1.007825032230
         H            2.843146490737     1.539549544354    -0.455535928697     1.007825032230
         H            4.241954490737     0.450831544354    -0.408298928697     1.007825032230
         H           -3.278017509263    -0.797837455646     0.227102071303     1.007825032230

  Basis Set: AUG-CC-PVTZ
    Blend: AUG-CC-PVTZ
  Basis Set: (AUG-CC-PVTZ AUX)
    Blend: AUG-CC-PVTZ-JKFIT
	 Reference Energy          =    -309.1480307240643697 [Eh]
	 Singles Energy            =      -0.0000000000000000 [Eh]
	 Same-Spin Energy          =      -0.3167949044460130 [Eh]
	 Opposite-Spin Energy      =      -1.1029104507552900 [Eh]
	 Correlation Energy        =      -1.4197053552013030 [Eh]
	 Total Energy              =    -310.5677360792656714 [Eh]

	 ================> DF-SCS-MP2 Energies <==================
	-----------------------------------------------------------
	 SCS Same-Spin Scale       =       0.3333333333333333 [-]
	 SCS Opposite-Spin Scale   =       1.2000000000000000 [-]
	 SCS Same-Spin Energy      =      -0.1055983014820043 [Eh]
	 SCS Opposite-Spin Energy  =      -1.3234925409063480 [Eh]
	 SCS Correlation Energy    =      -1.4290908423883524 [Eh]
	 SCS Total Energy          =    -310.5771215664527176 [Eh]
	-----------------------------------------------------------

  Dipole Moment: [D]
     X:    -0.0205      Y:     1.4027      Z:     0.7926     Total:     1.6113

*** Psi4 exiting successfully. Buy a developer a beer!
