                               Psi4 1.3.2 release

  ==> Input File <==

--------------------------------------------------------------------------
#psi4
#
memory 32 gb

molecule  {
0 1
  O       -2.3409430    -1.1152500    -0.1201430
  C       -1.5156830    -0.0261920     0.3177710
  C       -0.1702520    -0.2529640    -0.2898400
  C        2.3348890    -0.4444240    -0.1997250
  C        0.9740050    -0.2811540     0.4036300
  C       -2.1103090     1.3065560    -0.1212920
  C        3.2132980     0.7871720     0.0273270
  H       -1.4294168    -0.0389584     1.3155747
  H       -0.1609320    -0.3839550    -1.3725900
  H        2.2351040    -0.6390970    -1.2733090
  H        2.8261900    -1.3231820     0.2368400
  H        0.9367840    -0.1585690     1.4880300
  H       -1.4764410     2.1380570     0.1977940
  H       -2.2008650     1.3268630    -1.2105240
  H       -3.1068830     1.4512670     0.3117270
  H        3.3300870     0.9922950     1.0954650
  H        2.7636150     1.6688370    -0.4368240
  H        4.2103780     0.6456890    -0.3991480
  H       -3.2411570    -0.9446250     0.2124840
units angstrom
no_reorient  #important for SAPT in psi4, default
symmetry c1  #important for SAPT in psi4, default
}

set PROPERTIES_ORIGIN ["COM"]
properties('MP2/aug-cc-pvtz', properties = ['dipole'])
--------------------------------------------------------------------------

    Molecular point group: c1
  Charge       = 0
  Multiplicity = 1
  Basis Set: AUG-CC-PVTZ
    Blend: AUG-CC-PVTZ
  Basis Set: (AUG-CC-PVTZ AUX)
    Blend: AUG-CC-PVTZ-JKFIT

    Orbital Energies [Eh]
    ---------------------

    Doubly Occupied:

       1A    -20.553652     2A    -11.270045     3A    -11.227502
       4A    -11.224413     5A    -11.220288     6A    -11.218413
       7A    -11.215181     8A     -1.353338     9A     -1.090909
      10A     -1.035937    11A     -0.971179    12A     -0.877781
      13A     -0.815951    14A     -0.762199    15A     -0.686918
      16A     -0.633068    17A     -0.624621    18A     -0.598007
      19A     -0.590603    20A     -0.543160    21A     -0.539526
      22A     -0.531047    23A     -0.516807    24A     -0.504078
      25A     -0.481946    26A     -0.462933    27A     -0.447984
      28A     -0.349721

  @DF-RHF Final Energy:  -309.14444191809889

   => Energetics <=

    Nuclear Repulsion Energy =            299.7289899181481587
    One-Electron Energy =               -1013.0524478114558633
    Two-Electron Energy =                 404.1790159752088130
    Total Energy =                       -309.1444419180988916
  Basis Set: (AUG-CC-PVTZ AUX)
    Blend: AUG-CC-PVTZ-RI
    Molecular point group: c1

    Geometry (in Angstrom), charge = 0, multiplicity = 1:

       Center              X                  Y                   Z               Mass
    ------------   -----------------  -----------------  -----------------  -----------------
         O           -2.340856352069    -1.115262685105    -0.119139789700    15.994914619570
         C           -1.515596352069    -0.026204685105     0.318774210300    12.000000000000
         C           -0.170165352069    -0.252976685105    -0.288836789700    12.000000000000
         C            2.334975647931    -0.444436685105    -0.198721789700    12.000000000000
         C            0.974091647931    -0.281166685105     0.404633210300    12.000000000000
         C           -2.110222352069     1.306543314895    -0.120288789700    12.000000000000
         C            3.213384647931     0.787159314895     0.028330210300    12.000000000000
         H           -1.429330152069    -0.038971085105     1.316577910300     1.007825032230
         H           -0.160845352069    -0.383967685105    -1.371586789700     1.007825032230
         H            2.235190647931    -0.639109685105    -1.272305789700     1.007825032230
         H            2.826276647931    -1.323194685105     0.237843210300     1.007825032230
         H            0.936870647931    -0.158581685105     1.489033210300     1.007825032230
         H           -1.476354352069     2.138044314895     0.198797210300     1.007825032230
         H           -2.200778352069     1.326850314895    -1.209520789700     1.007825032230
         H           -3.106796352069     1.451254314895     0.312730210300     1.007825032230
         H            3.330173647931     0.992282314895     1.096468210300     1.007825032230
         H            2.763701647931     1.668824314895    -0.435820789700     1.007825032230
         H            4.210464647931     0.645676314895    -0.398144789700     1.007825032230
         H           -3.241070352069    -0.944637685105     0.213487210300     1.007825032230

  Basis Set: AUG-CC-PVTZ
    Blend: AUG-CC-PVTZ
  Basis Set: (AUG-CC-PVTZ AUX)
    Blend: AUG-CC-PVTZ-JKFIT
	 Reference Energy          =    -309.1444419180988916 [Eh]
	 Singles Energy            =      -0.0000000000000000 [Eh]
	 Same-Spin Energy          =      -0.3163679105266002 [Eh]
	 Opposite-Spin Energy      =      -1.1016341232027997 [Eh]
	 Correlation Energy        =      -1.4180020337293999 [Eh]
	 Total Energy              =    -310.5624439518282998 [Eh]

	 ================> DF-SCS-MP2 Energies <==================
	-----------------------------------------------------------
	 SCS Same-Spin Scale       =       0.3333333333333333 [-]
	 SCS Opposite-Spin Scale   =       1.2000000000000000 [-]
	 SCS Same-Spin Energy      =      -0.1054559701755334 [Eh]
	 SCS Opposite-Spin Energy  =      -1.3219609478433596 [Eh]
	 SCS Correlation Energy    =      -1.4274169180188929 [Eh]
	 SCS Total Energy          =    -310.5718588361177694 [Eh]
	-----------------------------------------------------------

  Dipole Moment: [D]
     X:    -0.0813      Y:     1.3935      Z:     0.8831     Total:     1.6517

*** Psi4 exiting successfully. Buy a developer a beer!
