                               Psi4 1.3.2 release

  ==> Input File <==

--------------------------------------------------------------------------
#psi4
#
memory 32 gb

molecule  {
0 1
  O       -2.3409430    -1.1152500    -0.1201430
  C       -1.5156830    -0.0261920     0.3177710
  C       -0.1702520    -0.2529640    -0.2898400
  C        2.3348890    -0.4444240    -0.1997250
  C        0.9740050    -0.2811540     0.4036300
  C       -2.1103090     1.3065560    -0.1212920
  C        3.2132980     0.7871720     0.0273270
  H       -1.4208040    -0.0402330     1.4151950
  H       -0.1626410    -0.3599350    -1.1740450
  H        2.2351040    -0.6390970    -1.2733090
  H        2.8261900    -1.3231820     0.2368400
  H        0.9367840    -0.1585690     1.4880300
  H       -1.4764410     2.1380570     0.1977940
  H       -2.2008650     1.3268630    -1.2105240
  H       -3.1068830     1.4512670     0.3117270
  H        3.3300870     0.9922950     1.0954650
  H        2.7636150     1.6688370    -0.4368240
  H        4.2103780     0.6456890    -0.3991480
  H       -3.2411570    -0.9446250     0.2124840
units angstrom
no_reorient  #important for SAPT in psi4, default
symmetry c1  #important for SAPT in psi4, default
}

set PROPERTIES_ORIGIN ["COM"]
properties('MP2/aug-cc-pvtz', properties = ['dipole'])
--------------------------------------------------------------------------

    Molecular point group: c1
  Charge       = 0
  Multiplicity = 1
  Basis Set: AUG-CC-PVTZ
    Blend: AUG-CC-PVTZ
  Basis Set: (AUG-CC-PVTZ AUX)
    Blend: AUG-CC-PVTZ-JKFIT

    Orbital Energies [Eh]
    ---------------------

    Doubly Occupied:

       1A    -20.554996     2A    -11.280659     3A    -11.226661
       4A    -11.224624     5A    -11.219112     6A    -11.215425
       7A    -11.196779     8A     -1.353828     9A     -1.095367
      10A     -1.034878    11A     -0.974844    12A     -0.878298
      13A     -0.812634    14A     -0.784013    15A     -0.681436
      16A     -0.634191    17A     -0.629812    18A     -0.602361
      19A     -0.596396    20A     -0.546761    21A     -0.542701
      22A     -0.535043    23A     -0.516527    24A     -0.501745
      25A     -0.482036    26A     -0.465008    27A     -0.443355
      28A     -0.349026

  @DF-RHF Final Energy:  -309.11517806863799

   => Energetics <=

    Nuclear Repulsion Energy =            300.2889685700515656
    One-Electron Energy =               -1014.0512597664503573
    Two-Electron Energy =                 404.6471131277608038
    Total Energy =                       -309.1151780686379880
  Basis Set: (AUG-CC-PVTZ AUX)
    Blend: AUG-CC-PVTZ-RI
    Molecular point group: c1

    Geometry (in Angstrom), charge = 0, multiplicity = 1:

       Center              X                  Y                   Z               Mass
    ------------   -----------------  -----------------  -----------------  -----------------
         O           -2.340925868553    -1.115491715527    -0.122142107722    15.994914619570
         C           -1.515665868553    -0.026433715527     0.315771892278    12.000000000000
         C           -0.170234868553    -0.253205715527    -0.291839107722    12.000000000000
         C            2.334906131447    -0.444665715527    -0.201724107722    12.000000000000
         C            0.974022131447    -0.281395715527     0.401630892278    12.000000000000
         C           -2.110291868553     1.306314284473    -0.123291107722    12.000000000000
         C            3.213315131447     0.786930284473     0.025327892278    12.000000000000
         H           -1.420786868553    -0.040474715527     1.413195892278     1.007825032230
         H           -0.162623868553    -0.360176715527    -1.176044107722     1.007825032230
         H            2.235121131447    -0.639338715527    -1.275308107722     1.007825032230
         H            2.826207131447    -1.323423715527     0.234840892278     1.007825032230
         H            0.936801131447    -0.158810715527     1.486030892278     1.007825032230
         H           -1.476423868553     2.137815284473     0.195794892278     1.007825032230
         H           -2.200847868553     1.326621284473    -1.212523107722     1.007825032230
         H           -3.106865868553     1.451025284473     0.309727892278     1.007825032230
         H            3.330104131447     0.992053284473     1.093465892278     1.007825032230
         H            2.763632131447     1.668595284473    -0.438823107722     1.007825032230
         H            4.210395131447     0.645447284473    -0.401147107722     1.007825032230
         H           -3.241139868553    -0.944866715527     0.210484892278     1.007825032230

  Basis Set: AUG-CC-PVTZ
    Blend: AUG-CC-PVTZ
  Basis Set: (AUG-CC-PVTZ AUX)
    Blend: AUG-CC-PVTZ-JKFIT
	 Reference Energy          =    -309.1151780686379880 [Eh]
	 Singles Energy            =      -0.0000000000000000 [Eh]
	 Same-Spin Energy          =      -0.3162642432611391 [Eh]
	 Opposite-Spin Energy      =      -1.1018773621154831 [Eh]
	 Correlation Energy        =      -1.4181416053766223 [Eh]
	 Total Energy              =    -310.5333196740145922 [Eh]

	 ================> DF-SCS-MP2 Energies <==================
	-----------------------------------------------------------
	 SCS Same-Spin Scale       =       0.3333333333333333 [-]
	 SCS Opposite-Spin Scale   =       1.2000000000000000 [-]
	 SCS Same-Spin Energy      =      -0.1054214144203797 [Eh]
	 SCS Opposite-Spin Energy  =      -1.3222528345385798 [Eh]
	 SCS Correlation Energy    =      -1.4276742489589596 [Eh]
	 SCS Total Energy          =    -310.5428523175969531 [Eh]
	-----------------------------------------------------------

  Dipole Moment: [D]
     X:    -0.0678      Y:     1.3761      Z:     0.7660     Total:     1.5764

*** Psi4 exiting successfully. Buy a developer a beer!
