                               Psi4 1.4a3.dev225

  ==> Input File <==

--------------------------------------------------------------------------
#psi4
#
memory 32 gb

molecule  {
0 1
  O       -2.4334040    -1.0537050    -0.1031880
  C       -1.5599110     0.0061750     0.3163080
  C       -0.2252920    -0.2882920    -0.2906650
  C        2.2718840    -0.5904540    -0.1973150
  C        0.9184280    -0.3582560     0.4039980
  C       -2.0985830     1.3582810    -0.1413790
  C        3.2072160     0.6032460     0.0168350
  H       -1.4627270     0.0051460     1.4138490
  H       -0.2231566    -0.4361681    -1.3917430
  H        2.1635620    -0.7923810    -1.2691220
  H        2.7222980    -1.4861610     0.2495370
  H        0.8868390    -0.2195170     1.4869310
  H       -1.4287050     2.1666040     0.1650490
  H       -2.1908800     1.3667930    -1.2308750
  H       -3.0873820     1.5512680     0.2912850
  H        3.3343300     0.8133780     1.0831920
  H        2.7976640     1.4999730    -0.4563300
  H        4.1964720     0.4112550    -0.4090930
  H       -3.3235000    -0.8374140     0.2263080
units angstrom
no_reorient  #important for SAPT in psi4, default
symmetry c1  #important for SAPT in psi4, default
}

set PROPERTIES_ORIGIN ["COM"]
properties('MP2/aug-cc-pvtz', properties = ['dipole'])
--------------------------------------------------------------------------

    Molecular point group: c1
  Charge       = 0
  Multiplicity = 1
  Basis Set: AUG-CC-PVTZ
    Blend: AUG-CC-PVTZ
  Basis Set: (AUG-CC-PVTZ AUX)
    Blend: AUG-CC-PVTZ-JKFIT

    Orbital Energies [Eh]
    ---------------------

    Doubly Occupied:

       1A    -20.555270     2A    -11.283620     3A    -11.228492
       4A    -11.224953     5A    -11.223774     6A    -11.219723
       7A    -11.215598     8A     -1.353933     9A     -1.089030
      10A     -1.033001    11A     -0.970606    12A     -0.875623
      13A     -0.810327    14A     -0.752544    15A     -0.681435
      16A     -0.633086    17A     -0.624107    18A     -0.597967
      19A     -0.587952    20A     -0.542991    21A     -0.539358
      22A     -0.530061    23A     -0.516186    24A     -0.501945
      25A     -0.482091    26A     -0.462289    27A     -0.443697
      28A     -0.349758

  @DF-RHF Final Energy:  -309.14873896026972

   => Energetics <=

    Nuclear Repulsion Energy =            298.8289294760750749
    One-Electron Energy =               -1011.2965040743649752
    Two-Electron Energy =                 403.3188356380202322
    Total Energy =                       -309.1487389602697249
  Basis Set: (AUG-CC-PVTZ AUX)
    Blend: AUG-CC-PVTZ-RI
    Molecular point group: c1

    Geometry (in Angstrom), charge = 0, multiplicity = 1:

       Center              X                  Y                   Z               Mass
    ------------   -----------------  -----------------  -----------------  -----------------
         O           -2.390061899280    -1.013629485496    -0.101221075289    15.994914619570
         C           -1.516568899280     0.046250514504     0.318274924711    12.000000000000
         C           -0.181949899280    -0.248216485496    -0.288698075289    12.000000000000
         C            2.315226100720    -0.550378485496    -0.195348075289    12.000000000000
         C            0.961770100720    -0.318180485496     0.405964924711    12.000000000000
         C           -2.055240899280     1.398356514504    -0.139412075289    12.000000000000
         C            3.250558100720     0.643321514504     0.018801924711    12.000000000000
         H           -1.419384899280     0.045221514504     1.415815924711     1.007825032230
         H           -0.179814499280    -0.396092585496    -1.389776075289     1.007825032230
         H            2.206904100720    -0.752305485496    -1.267155075289     1.007825032230
         H            2.765640100720    -1.446085485496     0.251503924711     1.007825032230
         H            0.930181100720    -0.179441485496     1.488897924711     1.007825032230
         H           -1.385362899280     2.206679514504     0.167015924711     1.007825032230
         H           -2.147537899280     1.406868514504    -1.228908075289     1.007825032230
         H           -3.044039899280     1.591343514504     0.293251924711     1.007825032230
         H            3.377672100720     0.853453514504     1.085158924711     1.007825032230
         H            2.841006100720     1.540048514504    -0.454363075289     1.007825032230
         H            4.239814100720     0.451330514504    -0.407126075289     1.007825032230
         H           -3.280157899280    -0.797338485496     0.228274924711     1.007825032230

  Basis Set: AUG-CC-PVTZ
    Blend: AUG-CC-PVTZ
  Basis Set: (AUG-CC-PVTZ AUX)
    Blend: AUG-CC-PVTZ-JKFIT
	 Reference Energy          =    -309.1487389602697249 [Eh]
	 Singles Energy            =      -0.0000000000000000 [Eh]
	 Same-Spin Energy          =      -0.3165110280883079 [Eh]
	 Opposite-Spin Energy      =      -1.1025493392946824 [Eh]
	 Correlation Energy        =      -1.4190603673829902 [Eh]
	 Total Energy              =    -310.5677993276527218 [Eh]

	 ================> DF-SCS-MP2 Energies <==================
	-----------------------------------------------------------
	 SCS Same-Spin Scale       =       0.3333333333333333 [-]
	 SCS Opposite-Spin Scale   =       1.2000000000000000 [-]
	 SCS Same-Spin Energy      =      -0.1055036760294360 [Eh]
	 SCS Opposite-Spin Energy  =      -1.3230592071536187 [Eh]
	 SCS Correlation Energy    =      -1.4285628831830546 [Eh]
	 SCS Total Energy          =    -310.5773018434528012 [Eh]
	-----------------------------------------------------------

  Dipole Moment: [D]
     X:    -0.0310      Y:     1.3999      Z:     0.7985     Total:     1.6119

*** Psi4 exiting successfully. Buy a developer a beer!
