                               Psi4 1.4a3.dev225

  ==> Input File <==

--------------------------------------------------------------------------
#psi4
#
memory 32 gb

molecule  {
0 1
  O       -2.4334040    -1.0537050    -0.1031880
  C       -1.5599110     0.0061750     0.3163080
  C       -0.2252920    -0.2882920    -0.2906650
  C        2.2718840    -0.5904540    -0.1973150
  C        0.9184280    -0.3582560     0.4039980
  C       -2.0985830     1.3582810    -0.1413790
  C        3.2072160     0.6032460     0.0168350
  H       -1.4627270     0.0051460     1.4138490
  H       -0.2231950    -0.4335060    -1.3719210
  H        2.1635620    -0.7923810    -1.2691220
  H        2.7222980    -1.4861610     0.2495370
  H        0.8862606    -0.2169766     1.5067606
  H       -1.4287050     2.1666040     0.1650490
  H       -2.1908800     1.3667930    -1.2308750
  H       -3.0873820     1.5512680     0.2912850
  H        3.3343300     0.8133780     1.0831920
  H        2.7976640     1.4999730    -0.4563300
  H        4.1964720     0.4112550    -0.4090930
  H       -3.3235000    -0.8374140     0.2263080
units angstrom
no_reorient  #important for SAPT in psi4, default
symmetry c1  #important for SAPT in psi4, default
}

set PROPERTIES_ORIGIN ["COM"]
properties('MP2/aug-cc-pvtz', properties = ['dipole'])
--------------------------------------------------------------------------

    Molecular point group: c1
  Charge       = 0
  Multiplicity = 1
  Basis Set: AUG-CC-PVTZ
    Blend: AUG-CC-PVTZ
  Basis Set: (AUG-CC-PVTZ AUX)
    Blend: AUG-CC-PVTZ-JKFIT

    Orbital Energies [Eh]
    ---------------------

    Doubly Occupied:

       1A    -20.555235     2A    -11.283352     3A    -11.230642
       4A    -11.225244     5A    -11.221725     6A    -11.219698
       7A    -11.215638     8A     -1.353905     9A     -1.088962
      10A     -1.033104    11A     -0.970634    12A     -0.875582
      13A     -0.810257    14A     -0.752870    15A     -0.680591
      16A     -0.632764    17A     -0.624451    18A     -0.598085
      19A     -0.588794    20A     -0.542976    21A     -0.539147
      22A     -0.530434    23A     -0.516278    24A     -0.501961
      25A     -0.481633    26A     -0.462439    27A     -0.443659
      28A     -0.349785

  @DF-RHF Final Energy:  -309.14875254703725

   => Energetics <=

    Nuclear Repulsion Energy =            298.8322060024930806
    One-Electron Energy =               -1011.3022268797832339
    Two-Electron Energy =                 403.3212683302529058
    Total Energy =                       -309.1487525470372475
  Basis Set: (AUG-CC-PVTZ AUX)
    Blend: AUG-CC-PVTZ-RI
    Molecular point group: c1

    Geometry (in Angstrom), charge = 0, multiplicity = 1:

       Center              X                  Y                   Z               Mass
    ------------   -----------------  -----------------  -----------------  -----------------
         O           -2.390055688532    -1.013681871067    -0.101620339433    15.994914619570
         C           -1.516562688532     0.046198128933     0.317875660567    12.000000000000
         C           -0.181943688532    -0.248268871067    -0.289097339433    12.000000000000
         C            2.315232311468    -0.550430871067    -0.195747339433    12.000000000000
         C            0.961776311468    -0.318232871067     0.405565660567    12.000000000000
         C           -2.055234688532     1.398304128933    -0.139811339433    12.000000000000
         C            3.250564311468     0.643269128933     0.018402660567    12.000000000000
         H           -1.419378688532     0.045169128933     1.415416660567     1.007825032230
         H           -0.179846688532    -0.393482871067    -1.370353339433     1.007825032230
         H            2.206910311468    -0.752357871067    -1.267554339433     1.007825032230
         H            2.765646311468    -1.446137871067     0.251104660567     1.007825032230
         H            0.929608911468    -0.176953471067     1.508328260567     1.007825032230
         H           -1.385356688532     2.206627128933     0.166616660567     1.007825032230
         H           -2.147531688532     1.406816128933    -1.229307339433     1.007825032230
         H           -3.044033688532     1.591291128933     0.292852660567     1.007825032230
         H            3.377678311468     0.853401128933     1.084759660567     1.007825032230
         H            2.841012311468     1.539996128933    -0.454762339433     1.007825032230
         H            4.239820311468     0.451278128933    -0.407525339433     1.007825032230
         H           -3.280151688532    -0.797390871067     0.227875660567     1.007825032230

  Basis Set: AUG-CC-PVTZ
    Blend: AUG-CC-PVTZ
  Basis Set: (AUG-CC-PVTZ AUX)
    Blend: AUG-CC-PVTZ-JKFIT
	 Reference Energy          =    -309.1487525470372475 [Eh]
	 Singles Energy            =      -0.0000000000000000 [Eh]
	 Same-Spin Energy          =      -0.3165031008280724 [Eh]
	 Opposite-Spin Energy      =      -1.1025496069786647 [Eh]
	 Correlation Energy        =      -1.4190527078067370 [Eh]
	 Total Energy              =    -310.5678052548439609 [Eh]

	 ================> DF-SCS-MP2 Energies <==================
	-----------------------------------------------------------
	 SCS Same-Spin Scale       =       0.3333333333333333 [-]
	 SCS Opposite-Spin Scale   =       1.2000000000000000 [-]
	 SCS Same-Spin Energy      =      -0.1055010336093575 [Eh]
	 SCS Opposite-Spin Energy  =      -1.3230595283743976 [Eh]
	 SCS Correlation Energy    =      -1.4285605619837549 [Eh]
	 SCS Total Energy          =    -310.5773131090210200 [Eh]
	-----------------------------------------------------------

  Dipole Moment: [D]
     X:    -0.0263      Y:     1.3977      Z:     0.7803     Total:     1.6010

*** Psi4 exiting successfully. Buy a developer a beer!
