                               Psi4 1.3.2 release

  ==> Input File <==

--------------------------------------------------------------------------
#psi4
#
memory 32 gb

molecule  {
0 1
  O       -2.3409430    -1.1152500    -0.1201430
  C       -1.5156830    -0.0261920     0.3177710
  C       -0.1755358    -0.2520978    -0.3017234
  C        2.3348890    -0.4444240    -0.1997250
  C        0.9740050    -0.2811540     0.4036300
  C       -2.1103090     1.3065560    -0.1212920
  C        3.2132980     0.7871720     0.0273270
  H       -1.4302521    -0.0386465     1.4159900
  H       -0.1609320    -0.3839550    -1.3725900
  H        2.2351040    -0.6390970    -1.2733090
  H        2.8261900    -1.3231820     0.2368400
  H        0.9367840    -0.1585690     1.4880300
  H       -1.4764410     2.1380570     0.1977940
  H       -2.2008650     1.3268630    -1.2105240
  H       -3.1068830     1.4512670     0.3117270
  H        3.3300870     0.9922950     1.0954650
  H        2.7636150     1.6688370    -0.4368240
  H        4.2103780     0.6456890    -0.3991480
  H       -3.2411570    -0.9446250     0.2124840
units angstrom
no_reorient  #important for SAPT in psi4, default
symmetry c1  #important for SAPT in psi4, default
}

set PROPERTIES_ORIGIN ["COM"]
properties('MP2/aug-cc-pvtz', properties = ['dipole'])
--------------------------------------------------------------------------

    Molecular point group: c1
  Charge       = 0
  Multiplicity = 1
  Basis Set: AUG-CC-PVTZ
    Blend: AUG-CC-PVTZ
  Basis Set: (AUG-CC-PVTZ AUX)
    Blend: AUG-CC-PVTZ-JKFIT

    Orbital Energies [Eh]
    ---------------------

    Doubly Occupied:

       1A    -20.554958     2A    -11.282764     3A    -11.229272
       4A    -11.224402     5A    -11.221513     6A    -11.219033
       7A    -11.215203     8A     -1.353960     9A     -1.088745
      10A     -1.033580    11A     -0.970013    12A     -0.875784
      13A     -0.809442    14A     -0.757107    15A     -0.681648
      16A     -0.633049    17A     -0.624566    18A     -0.597919
      19A     -0.589858    20A     -0.542693    21A     -0.539976
      22A     -0.531944    23A     -0.516147    24A     -0.501809
      25A     -0.481913    26A     -0.463914    27A     -0.443499
      28A     -0.347286

  @DF-RHF Final Energy:  -309.14872867627241

   => Energetics <=

    Nuclear Repulsion Energy =            299.1127347910759227
    One-Electron Energy =               -1011.8589366604074939
    Two-Electron Energy =                 403.5974731930591588
    Total Energy =                       -309.1487286762724125
  Basis Set: (AUG-CC-PVTZ AUX)
    Blend: AUG-CC-PVTZ-RI
    Molecular point group: c1

    Geometry (in Angstrom), charge = 0, multiplicity = 1:

       Center              X                  Y                   Z               Mass
    ------------   -----------------  -----------------  -----------------  -----------------
         O           -2.340214447814    -1.115369677486    -0.118726159595    15.994914619570
         C           -1.514954447814    -0.026311677486     0.319187840405    12.000000000000
         C           -0.174807247814    -0.252217477486    -0.300306559595    12.000000000000
         C            2.335617552186    -0.444543677486    -0.198308159595    12.000000000000
         C            0.974733552186    -0.281273677486     0.405046840405    12.000000000000
         C           -2.109580447814     1.306436322514    -0.119875159595    12.000000000000
         C            3.214026552186     0.787052322514     0.028743840405    12.000000000000
         H           -1.429523547814    -0.038766177486     1.417406840405     1.007825032230
         H           -0.160203447814    -0.384074677486    -1.371173159595     1.007825032230
         H            2.235832552186    -0.639216677486    -1.271892159595     1.007825032230
         H            2.826918552186    -1.323301677486     0.238256840405     1.007825032230
         H            0.937512552186    -0.158688677486     1.489446840405     1.007825032230
         H           -1.475712447814     2.137937322514     0.199210840405     1.007825032230
         H           -2.200136447814     1.326743322514    -1.209107159595     1.007825032230
         H           -3.106154447814     1.451147322514     0.313143840405     1.007825032230
         H            3.330815552186     0.992175322514     1.096881840405     1.007825032230
         H            2.764343552186     1.668717322514    -0.435407159595     1.007825032230
         H            4.211106552186     0.645569322514    -0.397731159595     1.007825032230
         H           -3.240428447814    -0.944744677486     0.213900840405     1.007825032230

  Basis Set: AUG-CC-PVTZ
    Blend: AUG-CC-PVTZ
  Basis Set: (AUG-CC-PVTZ AUX)
    Blend: AUG-CC-PVTZ-JKFIT
	 Reference Energy          =    -309.1487286762724125 [Eh]
	 Singles Energy            =      -0.0000000000000000 [Eh]
	 Same-Spin Energy          =      -0.3166190260649796 [Eh]
	 Opposite-Spin Energy      =      -1.1026225777589931 [Eh]
	 Correlation Energy        =      -1.4192416038239726 [Eh]
	 Total Energy              =    -310.5679702800964037 [Eh]

	 ================> DF-SCS-MP2 Energies <==================
	-----------------------------------------------------------
	 SCS Same-Spin Scale       =       0.3333333333333333 [-]
	 SCS Opposite-Spin Scale   =       1.2000000000000000 [-]
	 SCS Same-Spin Energy      =      -0.1055396753549932 [Eh]
	 SCS Opposite-Spin Energy  =      -1.3231470933107916 [Eh]
	 SCS Correlation Energy    =      -1.4286867686657847 [Eh]
	 SCS Total Energy          =    -310.5774154449381967 [Eh]
	-----------------------------------------------------------

  Dipole Moment: [D]
     X:    -0.0927      Y:     1.3759      Z:     0.8122     Total:     1.6004

*** Psi4 exiting successfully. Buy a developer a beer!
