                               Psi4 1.3.2 release

  ==> Input File <==

--------------------------------------------------------------------------
#psi4
#
memory 32 gb

molecule  {
0 1
  O       -2.3409430    -1.1152500    -0.1201430
  C       -1.5156830    -0.0261920     0.3177710
  C       -0.1702520    -0.2529640    -0.2898400
  C        2.3348890    -0.4444240    -0.1997250
  C        0.9740050    -0.2811540     0.4036300
  C       -2.1103090     1.3065560    -0.1212920
  C        3.2132980     0.7871720     0.0273270
  H       -1.4035784    -0.0427822     1.6144355
  H       -0.1609320    -0.3839550    -1.3725900
  H        2.2351040    -0.6390970    -1.2733090
  H        2.8261900    -1.3231820     0.2368400
  H        0.9367840    -0.1585690     1.4880300
  H       -1.4764410     2.1380570     0.1977940
  H       -2.2008650     1.3268630    -1.2105240
  H       -3.1068830     1.4512670     0.3117270
  H        3.3300870     0.9922950     1.0954650
  H        2.7636150     1.6688370    -0.4368240
  H        4.2103780     0.6456890    -0.3991480
  H       -3.2411570    -0.9446250     0.2124840
units angstrom
no_reorient  #important for SAPT in psi4, default
symmetry c1  #important for SAPT in psi4, default
}

set PROPERTIES_ORIGIN ["COM"]
properties('MP2/aug-cc-pvtz', properties = ['dipole'])
--------------------------------------------------------------------------

    Molecular point group: c1
  Charge       = 0
  Multiplicity = 1
  Basis Set: AUG-CC-PVTZ
    Blend: AUG-CC-PVTZ
  Basis Set: (AUG-CC-PVTZ AUX)
    Blend: AUG-CC-PVTZ-JKFIT

    Orbital Energies [Eh]
    ---------------------

    Doubly Occupied:

       1A    -20.560116     2A    -11.306459     3A    -11.228481
       4A    -11.224802     5A    -11.222686     6A    -11.222120
       7A    -11.215548     8A     -1.357253     9A     -1.089699
      10A     -1.031851    11A     -0.972006    12A     -0.875020
      13A     -0.806307    14A     -0.744807    15A     -0.672156
      16A     -0.635351    17A     -0.624589    18A     -0.599271
      19A     -0.586741    20A     -0.544002    21A     -0.540854
      22A     -0.531993    23A     -0.516512    24A     -0.498692
      25A     -0.482215    26A     -0.463608    27A     -0.429180
      28A     -0.350373

  @DF-RHF Final Energy:  -309.12932972170614

   => Energetics <=

    Nuclear Repulsion Energy =            298.3305076590416434
    One-Electron Energy =               -1010.2542872750727838
    Two-Electron Energy =                 402.7944498943250551
    Total Energy =                       -309.1293297217061422
  Basis Set: (AUG-CC-PVTZ AUX)
    Blend: AUG-CC-PVTZ-RI
    Molecular point group: c1

    Geometry (in Angstrom), charge = 0, multiplicity = 1:

       Center              X                  Y                   Z               Mass
    ------------   -----------------  -----------------  -----------------  -----------------
         O           -2.341116526858    -1.115224182088    -0.122149110925    15.994914619570
         C           -1.515856526858    -0.026166182088     0.315764889075    12.000000000000
         C           -0.170425526858    -0.252938182088    -0.291846110925    12.000000000000
         C            2.334715473142    -0.444398182088    -0.201731110925    12.000000000000
         C            0.973831473142    -0.281128182088     0.401623889075    12.000000000000
         C           -2.110482526858     1.306581817912    -0.123298110925    12.000000000000
         C            3.213124473142     0.787197817912     0.025320889075    12.000000000000
         H           -1.403751926858    -0.042756382088     1.612429389075     1.007825032230
         H           -0.161105526858    -0.383929182088    -1.374596110925     1.007825032230
         H            2.234930473142    -0.639071182088    -1.275315110925     1.007825032230
         H            2.826016473142    -1.323156182088     0.234833889075     1.007825032230
         H            0.936610473142    -0.158543182088     1.486023889075     1.007825032230
         H           -1.476614526858     2.138082817912     0.195787889075     1.007825032230
         H           -2.201038526858     1.326888817912    -1.212530110925     1.007825032230
         H           -3.107056526858     1.451292817912     0.309720889075     1.007825032230
         H            3.329913473142     0.992320817912     1.093458889075     1.007825032230
         H            2.763441473142     1.668862817912    -0.438830110925     1.007825032230
         H            4.210204473142     0.645714817912    -0.401154110925     1.007825032230
         H           -3.241330526858    -0.944599182088     0.210477889075     1.007825032230

  Basis Set: AUG-CC-PVTZ
    Blend: AUG-CC-PVTZ
  Basis Set: (AUG-CC-PVTZ AUX)
    Blend: AUG-CC-PVTZ-JKFIT
	 Reference Energy          =    -309.1293297217061422 [Eh]
	 Singles Energy            =      -0.0000000000000000 [Eh]
	 Same-Spin Energy          =      -0.3169860595116877 [Eh]
	 Opposite-Spin Energy      =      -1.1045592957234018 [Eh]
	 Correlation Energy        =      -1.4215453552350894 [Eh]
	 Total Energy              =    -310.5508750769412245 [Eh]

	 ================> DF-SCS-MP2 Energies <==================
	-----------------------------------------------------------
	 SCS Same-Spin Scale       =       0.3333333333333333 [-]
	 SCS Opposite-Spin Scale   =       1.2000000000000000 [-]
	 SCS Same-Spin Energy      =      -0.1056620198372292 [Eh]
	 SCS Opposite-Spin Energy  =      -1.3254711548680822 [Eh]
	 SCS Correlation Energy    =      -1.4311331747053115 [Eh]
	 SCS Total Energy          =    -310.5604628964114795 [Eh]
	-----------------------------------------------------------

  Dipole Moment: [D]
     X:    -0.1276      Y:     1.3501      Z:     0.5963     Total:     1.4814

*** Psi4 exiting successfully. Buy a developer a beer!
