                               Psi4 1.3.2 release

  ==> Input File <==

--------------------------------------------------------------------------
#psi4
#
memory 32 gb

molecule  {
0 1
  O       -2.3409430    -1.1152500    -0.1201430
  C       -1.5156830    -0.0261920     0.3177710
  C       -0.1702520    -0.2529640    -0.2898400
  C        2.3348890    -0.4444240    -0.1997250
  C        0.9828356    -0.3236362     0.4327791
  C       -2.1103090     1.3065560    -0.1212920
  C        3.2132980     0.7871720     0.0273270
  H       -1.4208040    -0.0402330     1.4151950
  H       -0.1609320    -0.3839550    -1.3725900
  H        2.2351040    -0.6390970    -1.2733090
  H        2.7950436    -1.3290799     0.2583394
  H        0.9367840    -0.1585690     1.4880300
  H       -1.4764410     2.1380570     0.1977940
  H       -2.2008650     1.3268630    -1.2105240
  H       -3.1068830     1.4512670     0.3117270
  H        3.3300870     0.9922950     1.0954650
  H        2.7636150     1.6688370    -0.4368240
  H        4.2103780     0.6456890    -0.3991480
  H       -3.2411570    -0.9446250     0.2124840
units angstrom
no_reorient  #important for SAPT in psi4, default
symmetry c1  #important for SAPT in psi4, default
}

set PROPERTIES_ORIGIN ["COM"]
properties('MP2/aug-cc-pvtz', properties = ['dipole'])
--------------------------------------------------------------------------

    Molecular point group: c1
  Charge       = 0
  Multiplicity = 1
  Basis Set: AUG-CC-PVTZ
    Blend: AUG-CC-PVTZ
  Basis Set: (AUG-CC-PVTZ AUX)
    Blend: AUG-CC-PVTZ-JKFIT

    Orbital Energies [Eh]
    ---------------------

    Doubly Occupied:

       1A    -20.554846     2A    -11.282380     3A    -11.229046
       4A    -11.224529     5A    -11.223967     6A    -11.219246
       7A    -11.216067     8A     -1.353658     9A     -1.087402
      10A     -1.033235    11A     -0.968697    12A     -0.877302
      13A     -0.808516    14A     -0.758064    15A     -0.682051
      16A     -0.631875    17A     -0.624248    18A     -0.596301
      19A     -0.589799    20A     -0.543137    21A     -0.541394
      22A     -0.531800    23A     -0.517626    24A     -0.500520
      25A     -0.485443    26A     -0.461852    27A     -0.443000
      28A     -0.344040

  @DF-RHF Final Energy:  -309.14634689220486

   => Energetics <=

    Nuclear Repulsion Energy =            298.8543884407504265
    One-Electron Energy =               -1011.3413922890940739
    Two-Electron Energy =                 403.3406569561387869
    Total Energy =                       -309.1463468922048605
  Basis Set: (AUG-CC-PVTZ AUX)
    Blend: AUG-CC-PVTZ-RI
    Molecular point group: c1

    Geometry (in Angstrom), charge = 0, multiplicity = 1:

       Center              X                  Y                   Z               Mass
    ------------   -----------------  -----------------  -----------------  -----------------
         O           -2.341688186015    -1.110097122649    -0.123854169279    15.994914619570
         C           -1.516428186015    -0.021039122649     0.314059830721    12.000000000000
         C           -0.170997186015    -0.247811122649    -0.293551169279    12.000000000000
         C            2.334143813985    -0.439271122649    -0.203436169279    12.000000000000
         C            0.982090413985    -0.318483322649     0.429067930721    12.000000000000
         C           -2.111054186015     1.311708877351    -0.125003169279    12.000000000000
         C            3.212552813985     0.792324877351     0.023615830721    12.000000000000
         H           -1.421549186015    -0.035080122649     1.411483830721     1.007825032230
         H           -0.161677186015    -0.378802122649    -1.376301169279     1.007825032230
         H            2.234358813985    -0.633944122649    -1.277020169279     1.007825032230
         H            2.794298413985    -1.323927022649     0.254628230721     1.007825032230
         H            0.936038813985    -0.153416122649     1.484318830721     1.007825032230
         H           -1.477186186015     2.143209877351     0.194082830721     1.007825032230
         H           -2.201610186015     1.332015877351    -1.214235169279     1.007825032230
         H           -3.107628186015     1.456419877351     0.308015830721     1.007825032230
         H            3.329341813985     0.997447877351     1.091753830721     1.007825032230
         H            2.762869813985     1.673989877351    -0.440535169279     1.007825032230
         H            4.209632813985     0.650841877351    -0.402859169279     1.007825032230
         H           -3.241902186015    -0.939472122649     0.208772830721     1.007825032230

  Basis Set: AUG-CC-PVTZ
    Blend: AUG-CC-PVTZ
  Basis Set: (AUG-CC-PVTZ AUX)
    Blend: AUG-CC-PVTZ-JKFIT
	 Reference Energy          =    -309.1463468922048605 [Eh]
	 Singles Energy            =      -0.0000000000000000 [Eh]
	 Same-Spin Energy          =      -0.3168061002274051 [Eh]
	 Opposite-Spin Energy      =      -1.1030828617145865 [Eh]
	 Correlation Energy        =      -1.4198889619419917 [Eh]
	 Total Energy              =    -310.5662358541468393 [Eh]

	 ================> DF-SCS-MP2 Energies <==================
	-----------------------------------------------------------
	 SCS Same-Spin Scale       =       0.3333333333333333 [-]
	 SCS Opposite-Spin Scale   =       1.2000000000000000 [-]
	 SCS Same-Spin Energy      =      -0.1056020334091350 [Eh]
	 SCS Opposite-Spin Energy  =      -1.3236994340575037 [Eh]
	 SCS Correlation Energy    =      -1.4293014674666387 [Eh]
	 SCS Total Energy          =    -310.5756483596715043 [Eh]
	-----------------------------------------------------------

  Dipole Moment: [D]
     X:    -0.0759      Y:     1.4300      Z:     0.8245     Total:     1.6524

*** Psi4 exiting successfully. Buy a developer a beer!
