                               Psi4 1.4a3.dev225

  ==> Input File <==

--------------------------------------------------------------------------
#psi4
#
memory 32 gb

molecule  {
0 1
  O       -2.4334040    -1.0537050    -0.1031880
  C       -1.5599110     0.0061750     0.3163080
  C       -0.2074428    -0.2922302    -0.2987827
  C        2.2718840    -0.5904540    -0.1973150
  C        0.9184280    -0.3582560     0.4039980
  C       -2.0985830     1.3582810    -0.1413790
  C        3.2072160     0.6032460     0.0168350
  H       -1.4627270     0.0051460     1.4138490
  H       -0.2231950    -0.4335060    -1.3719210
  H        2.1635620    -0.7923810    -1.2691220
  H        2.7222980    -1.4861610     0.2495370
  H        0.8868390    -0.2195170     1.4869310
  H       -1.4287050     2.1666040     0.1650490
  H       -2.1908800     1.3667930    -1.2308750
  H       -3.0873820     1.5512680     0.2912850
  H        3.3343300     0.8133780     1.0831920
  H        2.7976640     1.4999730    -0.4563300
  H        4.1964720     0.4112550    -0.4090930
  H       -3.3235000    -0.8374140     0.2263080
units angstrom
no_reorient  #important for SAPT in psi4, default
symmetry c1  #important for SAPT in psi4, default
}

set PROPERTIES_ORIGIN ["COM"]
properties('MP2/aug-cc-pvtz', properties = ['dipole'])
--------------------------------------------------------------------------

    Molecular point group: c1
  Charge       = 0
  Multiplicity = 1
  Basis Set: AUG-CC-PVTZ
    Blend: AUG-CC-PVTZ
  Basis Set: (AUG-CC-PVTZ AUX)
    Blend: AUG-CC-PVTZ-JKFIT

    Orbital Energies [Eh]
    ---------------------

    Doubly Occupied:

       1A    -20.555116     2A    -11.284116     3A    -11.226536
       4A    -11.224253     5A    -11.220295     6A    -11.219523
       7A    -11.215326     8A     -1.353363     9A     -1.089888
      10A     -1.031179    11A     -0.971878    12A     -0.873792
      13A     -0.810080    14A     -0.755788    15A     -0.680987
      16A     -0.632038    17A     -0.624287    18A     -0.597395
      19A     -0.590085    20A     -0.542733    21A     -0.541172
      22A     -0.532292    23A     -0.515803    24A     -0.501761
      25A     -0.482342    26A     -0.458400    27A     -0.443362
      28A     -0.352422

  @DF-RHF Final Energy:  -309.14965412922493

   => Energetics <=

    Nuclear Repulsion Energy =            298.8411863355732407
    One-Electron Energy =               -1011.3292556150131531
    Two-Electron Energy =                 403.3384151502150416
    Total Energy =                       -309.1496541292249276
  Basis Set: (AUG-CC-PVTZ AUX)
    Blend: AUG-CC-PVTZ-RI
    Molecular point group: c1

    Geometry (in Angstrom), charge = 0, multiplicity = 1:

       Center              X                  Y                   Z               Mass
    ------------   -----------------  -----------------  -----------------  -----------------
         O           -2.392201515975    -1.013184126352    -0.100447409498    15.994914619570
         C           -1.518708515975     0.046695873648     0.319048590502    12.000000000000
         C           -0.166240315975    -0.251709326352    -0.296042109498    12.000000000000
         C            2.313086484025    -0.549933126352    -0.194574409498    12.000000000000
         C            0.959630484025    -0.317735126352     0.406738590502    12.000000000000
         C           -2.057380515975     1.398801873648    -0.138638409498    12.000000000000
         C            3.248418484025     0.643766873648     0.019575590502    12.000000000000
         H           -1.421524515975     0.045666873648     1.416589590502     1.007825032230
         H           -0.181992515975    -0.392985126352    -1.369180409498     1.007825032230
         H            2.204764484025    -0.751860126352    -1.266381409498     1.007825032230
         H            2.763500484025    -1.445640126352     0.252277590502     1.007825032230
         H            0.928041484025    -0.178996126352     1.489671590502     1.007825032230
         H           -1.387502515975     2.207124873648     0.167789590502     1.007825032230
         H           -2.149677515975     1.407313873648    -1.228134409498     1.007825032230
         H           -3.046179515975     1.591788873648     0.294025590502     1.007825032230
         H            3.375532484025     0.853898873648     1.085932590502     1.007825032230
         H            2.838866484025     1.540493873648    -0.453589409498     1.007825032230
         H            4.237674484025     0.451775873648    -0.406352409498     1.007825032230
         H           -3.282297515975    -0.796893126352     0.229048590502     1.007825032230

  Basis Set: AUG-CC-PVTZ
    Blend: AUG-CC-PVTZ
  Basis Set: (AUG-CC-PVTZ AUX)
    Blend: AUG-CC-PVTZ-JKFIT
	 Reference Energy          =    -309.1496541292249276 [Eh]
	 Singles Energy            =      -0.0000000000000000 [Eh]
	 Same-Spin Energy          =      -0.3161812409104056 [Eh]
	 Opposite-Spin Energy      =      -1.1019705046804944 [Eh]
	 Correlation Energy        =      -1.4181517455909001 [Eh]
	 Total Energy              =    -310.5678058748158037 [Eh]

	 ================> DF-SCS-MP2 Energies <==================
	-----------------------------------------------------------
	 SCS Same-Spin Scale       =       0.3333333333333333 [-]
	 SCS Opposite-Spin Scale   =       1.2000000000000000 [-]
	 SCS Same-Spin Energy      =      -0.1053937469701352 [Eh]
	 SCS Opposite-Spin Energy  =      -1.3223646056165932 [Eh]
	 SCS Correlation Energy    =      -1.4277583525867283 [Eh]
	 SCS Total Energy          =    -310.5774124818116775 [Eh]
	-----------------------------------------------------------

  Dipole Moment: [D]
     X:    -0.0363      Y:     1.3952      Z:     0.7892     Total:     1.6034

*** Psi4 exiting successfully. Buy a developer a beer!
