                               Psi4 1.3.2 release

  ==> Input File <==

--------------------------------------------------------------------------
#psi4
#
memory 32 gb

molecule  {
0 1
  O       -2.3790525    -1.0956401    -0.0942289
  C       -1.5156830    -0.0261920     0.3177710
  C       -0.1534813    -0.2093343    -0.2667515
  C        2.3348890    -0.4444240    -0.1997250
  C        0.9740050    -0.2811540     0.4036300
  C       -2.1103090     1.3065560    -0.1212920
  C        3.2132980     0.7871720     0.0273270
  H       -1.4208040    -0.0402330     1.4151950
  H       -0.1609320    -0.3839550    -1.3725900
  H        2.2351040    -0.6390970    -1.2733090
  H        2.8261900    -1.3231820     0.2368400
  H        0.9367840    -0.1585690     1.4880300
  H       -1.4764410     2.1380570     0.1977940
  H       -2.2008650     1.3268630    -1.2105240
  H       -3.1068830     1.4512670     0.3117270
  H        3.3300870     0.9922950     1.0954650
  H        2.7636150     1.6688370    -0.4368240
  H        4.2103780     0.6456890    -0.3991480
  H       -3.2411570    -0.9446250     0.2124840
units angstrom
no_reorient  #important for SAPT in psi4, default
symmetry c1  #important for SAPT in psi4, default
}

set PROPERTIES_ORIGIN ["COM"]
properties('MP2/aug-cc-pvtz', properties = ['dipole'])
--------------------------------------------------------------------------

    Molecular point group: c1
  Charge       = 0
  Multiplicity = 1
  Basis Set: AUG-CC-PVTZ
    Blend: AUG-CC-PVTZ
  Basis Set: (AUG-CC-PVTZ AUX)
    Blend: AUG-CC-PVTZ-JKFIT

    Orbital Energies [Eh]
    ---------------------

    Doubly Occupied:

       1A    -20.549838     2A    -11.283886     3A    -11.226155
       4A    -11.225448     5A    -11.221209     6A    -11.218048
       7A    -11.215949     8A     -1.362639     9A     -1.095265
      10A     -1.035846    11A     -0.973801    12A     -0.876841
      13A     -0.816288    14A     -0.750718    15A     -0.688818
      16A     -0.640713    17A     -0.625340    18A     -0.599687
      19A     -0.588378    20A     -0.543240    21A     -0.538474
      22A     -0.531255    23A     -0.517753    24A     -0.500681
      25A     -0.482718    26A     -0.459751    27A     -0.443275
      28A     -0.356941

  @DF-RHF Final Energy:  -309.14919963618280

   => Energetics <=

    Nuclear Repulsion Energy =            299.4879817996395559
    One-Electron Energy =               -1012.5364514055970631
    Two-Electron Energy =                 403.8992699697747071
    Total Energy =                       -309.1491996361828001
  Basis Set: (AUG-CC-PVTZ AUX)
    Blend: AUG-CC-PVTZ-RI
    Molecular point group: c1

    Geometry (in Angstrom), charge = 0, multiplicity = 1:

       Center              X                  Y                   Z               Mass
    ------------   -----------------  -----------------  -----------------  -----------------
         O           -2.374973102198    -1.104004672400    -0.101138218677    15.994914619570
         C           -1.511603602198    -0.034556572400     0.310861681323    12.000000000000
         C           -0.149401902198    -0.217698872400    -0.273660818677    12.000000000000
         C            2.338968397802    -0.452788572400    -0.206634318677    12.000000000000
         C            0.978084397802    -0.289518572400     0.396720681323    12.000000000000
         C           -2.106229602198     1.298191427600    -0.128201318677    12.000000000000
         C            3.217377397802     0.778807427600     0.020417681323    12.000000000000
         H           -1.416724602198    -0.048597572400     1.408285681323     1.007825032230
         H           -0.156852602198    -0.392319572400    -1.379499318677     1.007825032230
         H            2.239183397802    -0.647461572400    -1.280218318677     1.007825032230
         H            2.830269397802    -1.331546572400     0.229930681323     1.007825032230
         H            0.940863397802    -0.166933572400     1.481120681323     1.007825032230
         H           -1.472361602198     2.129692427600     0.190884681323     1.007825032230
         H           -2.196785602198     1.318498427600    -1.217433318677     1.007825032230
         H           -3.102803602198     1.442902427600     0.304817681323     1.007825032230
         H            3.334166397802     0.983930427600     1.088555681323     1.007825032230
         H            2.767694397802     1.660472427600    -0.443733318677     1.007825032230
         H            4.214457397802     0.637324427600    -0.406057318677     1.007825032230
         H           -3.237077602198    -0.952989572400     0.205574681323     1.007825032230

  Basis Set: AUG-CC-PVTZ
    Blend: AUG-CC-PVTZ
  Basis Set: (AUG-CC-PVTZ AUX)
    Blend: AUG-CC-PVTZ-JKFIT
	 Reference Energy          =    -309.1491996361828001 [Eh]
	 Singles Energy            =      -0.0000000000000000 [Eh]
	 Same-Spin Energy          =      -0.3156857648089020 [Eh]
	 Opposite-Spin Energy      =      -1.1002171040687525 [Eh]
	 Correlation Energy        =      -1.4159028688776545 [Eh]
	 Total Energy              =    -310.5651025050604517 [Eh]

	 ================> DF-SCS-MP2 Energies <==================
	-----------------------------------------------------------
	 SCS Same-Spin Scale       =       0.3333333333333333 [-]
	 SCS Opposite-Spin Scale   =       1.2000000000000000 [-]
	 SCS Same-Spin Energy      =      -0.1052285882696340 [Eh]
	 SCS Opposite-Spin Energy  =      -1.3202605248825030 [Eh]
	 SCS Correlation Energy    =      -1.4254891131521370 [Eh]
	 SCS Total Energy          =    -310.5746887493349391 [Eh]
	-----------------------------------------------------------

  Dipole Moment: [D]
     X:     0.0033      Y:     1.3136      Z:     0.8036     Total:     1.5399

*** Psi4 exiting successfully. Buy a developer a beer!
