                               Psi4 1.4a3.dev225

  ==> Input File <==

--------------------------------------------------------------------------
#psi4
#
memory 32 gb

molecule  {
0 1
  O       -2.4334040    -1.0537050    -0.1031880
  C       -1.5599110     0.0061750     0.3163080
  C       -0.2252920    -0.2882920    -0.2906650
  C        2.2718840    -0.5904540    -0.1973150
  C        0.9184280    -0.3582560     0.4039980
  C       -2.0985830     1.3582810    -0.1413790
  C        3.2072160     0.6032460     0.0168350
  H       -1.4583169     0.0050993     1.4636541
  H       -0.2231950    -0.4335060    -1.3719210
  H        2.1635620    -0.7923810    -1.2691220
  H        2.7222980    -1.4861610     0.2495370
  H        0.8868390    -0.2195170     1.4869310
  H       -1.4287050     2.1666040     0.1650490
  H       -2.1908800     1.3667930    -1.2308750
  H       -3.0873820     1.5512680     0.2912850
  H        3.3343300     0.8133780     1.0831920
  H        2.7976640     1.4999730    -0.4563300
  H        4.1964720     0.4112550    -0.4090930
  H       -3.3235000    -0.8374140     0.2263080
units angstrom
no_reorient  #important for SAPT in psi4, default
symmetry c1  #important for SAPT in psi4, default
}

set PROPERTIES_ORIGIN ["COM"]
properties('MP2/aug-cc-pvtz', properties = ['dipole'])
--------------------------------------------------------------------------

    Molecular point group: c1
  Charge       = 0
  Multiplicity = 1
  Basis Set: AUG-CC-PVTZ
    Blend: AUG-CC-PVTZ
  Basis Set: (AUG-CC-PVTZ AUX)
    Blend: AUG-CC-PVTZ-JKFIT

    Orbital Energies [Eh]
    ---------------------

    Doubly Occupied:

       1A    -20.556247     2A    -11.289533     3A    -11.228410
       4A    -11.225000     5A    -11.221864     6A    -11.220275
       7A    -11.215652     8A     -1.354487     9A     -1.089068
      10A     -1.032285    11A     -0.970907    12A     -0.875212
      13A     -0.808615    14A     -0.751695    15A     -0.678732
      16A     -0.633380    17A     -0.624458    18A     -0.598183
      19A     -0.588382    20A     -0.543044    21A     -0.539983
      22A     -0.531229    23A     -0.516113    24A     -0.500935
      25A     -0.482121    26A     -0.462720    27A     -0.440809
      28A     -0.349703

  @DF-RHF Final Energy:  -309.14700566315310

   => Energetics <=

    Nuclear Repulsion Energy =            298.6857767526212228
    One-Electron Energy =               -1011.0074843408550578
    Two-Electron Energy =                 403.1747019250807398
    Total Energy =                       -309.1470056631530952
  Basis Set: (AUG-CC-PVTZ AUX)
    Blend: AUG-CC-PVTZ-RI
    Molecular point group: c1

    Geometry (in Angstrom), charge = 0, multiplicity = 1:

       Center              X                  Y                   Z               Mass
    ------------   -----------------  -----------------  -----------------  -----------------
         O           -2.390105919271    -1.013655820762    -0.101922171953    15.994914619570
         C           -1.516612919271     0.046224179238     0.317573828047    12.000000000000
         C           -0.181993919271    -0.248242820762    -0.289399171953    12.000000000000
         C            2.315182080729    -0.550404820762    -0.196049171953    12.000000000000
         C            0.961726080729    -0.318206820762     0.405263828047    12.000000000000
         C           -2.055284919271     1.398330179238    -0.140113171953    12.000000000000
         C            3.250514080729     0.643295179238     0.018100828047    12.000000000000
         H           -1.415018819271     0.045148479238     1.464919928047     1.007825032230
         H           -0.179896919271    -0.393456820762    -1.370655171953     1.007825032230
         H            2.206860080729    -0.752331820762    -1.267856171953     1.007825032230
         H            2.765596080729    -1.446111820762     0.250802828047     1.007825032230
         H            0.930137080729    -0.179467820762     1.488196828047     1.007825032230
         H           -1.385406919271     2.206653179238     0.166314828047     1.007825032230
         H           -2.147581919271     1.406842179238    -1.229609171953     1.007825032230
         H           -3.044083919271     1.591317179238     0.292550828047     1.007825032230
         H            3.377628080729     0.853427179238     1.084457828047     1.007825032230
         H            2.840962080729     1.540022179238    -0.455064171953     1.007825032230
         H            4.239770080729     0.451304179238    -0.407827171953     1.007825032230
         H           -3.280201919271    -0.797364820762     0.227573828047     1.007825032230

  Basis Set: AUG-CC-PVTZ
    Blend: AUG-CC-PVTZ
  Basis Set: (AUG-CC-PVTZ AUX)
    Blend: AUG-CC-PVTZ-JKFIT
	 Reference Energy          =    -309.1470056631530952 [Eh]
	 Singles Energy            =      -0.0000000000000000 [Eh]
	 Same-Spin Energy          =      -0.3165691675939363 [Eh]
	 Opposite-Spin Energy      =      -1.1028805177844752 [Eh]
	 Correlation Energy        =      -1.4194496853784115 [Eh]
	 Total Energy              =    -310.5664553485315196 [Eh]

	 ================> DF-SCS-MP2 Energies <==================
	-----------------------------------------------------------
	 SCS Same-Spin Scale       =       0.3333333333333333 [-]
	 SCS Opposite-Spin Scale   =       1.2000000000000000 [-]
	 SCS Same-Spin Energy      =      -0.1055230558646454 [Eh]
	 SCS Opposite-Spin Energy  =      -1.3234566213413701 [Eh]
	 SCS Correlation Energy    =      -1.4289796772060155 [Eh]
	 SCS Total Energy          =    -310.5759853403591251 [Eh]
	-----------------------------------------------------------

  Dipole Moment: [D]
     X:    -0.0367      Y:     1.3915      Z:     0.7466     Total:     1.5795

*** Psi4 exiting successfully. Buy a developer a beer!
