                               Psi4 1.4a3.dev225

  ==> Input File <==

--------------------------------------------------------------------------
#psi4
#
memory 32 gb

molecule  {
0 1
  O       -2.4334040    -1.0537050    -0.1031880
  C       -1.5477460     0.0209358     0.3221503
  C       -0.2252920    -0.2882920    -0.2906650
  C        2.2718840    -0.5904540    -0.1973150
  C        0.9184280    -0.3582560     0.4039980
  C       -2.0985830     1.3582810    -0.1413790
  C        3.2072160     0.6032460     0.0168350
  H       -1.4627270     0.0051460     1.4138490
  H       -0.2231950    -0.4335060    -1.3719210
  H        2.1635620    -0.7923810    -1.2691220
  H        2.7222980    -1.4861610     0.2495370
  H        0.8868390    -0.2195170     1.4869310
  H       -1.4287050     2.1666040     0.1650490
  H       -2.1908800     1.3667930    -1.2308750
  H       -3.0873820     1.5512680     0.2912850
  H        3.3343300     0.8133780     1.0831920
  H        2.7976640     1.4999730    -0.4563300
  H        4.1964720     0.4112550    -0.4090930
  H       -3.3235000    -0.8374140     0.2263080
units angstrom
no_reorient  #important for SAPT in psi4, default
symmetry c1  #important for SAPT in psi4, default
}

set PROPERTIES_ORIGIN ["COM"]
properties('MP2/aug-cc-pvtz', properties = ['dipole'])
--------------------------------------------------------------------------

    Molecular point group: c1
  Charge       = 0
  Multiplicity = 1
  Basis Set: AUG-CC-PVTZ
    Blend: AUG-CC-PVTZ
  Basis Set: (AUG-CC-PVTZ AUX)
    Blend: AUG-CC-PVTZ-JKFIT

    Orbital Energies [Eh]
    ---------------------

    Doubly Occupied:

       1A    -20.552639     2A    -11.283201     3A    -11.228809
       4A    -11.225253     5A    -11.221807     6A    -11.220106
       7A    -11.215951     8A     -1.345932     9A     -1.090499
      10A     -1.034728    11A     -0.971981    12A     -0.876110
      13A     -0.809904    14A     -0.755849    15A     -0.678354
      16A     -0.631728    17A     -0.623049    18A     -0.597933
      19A     -0.589009    20A     -0.544133    21A     -0.539786
      22A     -0.530639    23A     -0.515123    24A     -0.500166
      25A     -0.482458    26A     -0.464840    27A     -0.445274
      28A     -0.350238

  @DF-RHF Final Energy:  -309.14863541350019

   => Energetics <=

    Nuclear Repulsion Energy =            298.8641097744423405
    One-Electron Energy =               -1011.3744902101926755
    Two-Electron Energy =                 403.3617450222501475
    Total Energy =                       -309.1486354135001875
  Basis Set: (AUG-CC-PVTZ AUX)
    Blend: AUG-CC-PVTZ-RI
    Molecular point group: c1

    Geometry (in Angstrom), charge = 0, multiplicity = 1:

       Center              X                  Y                   Z               Mass
    ------------   -----------------  -----------------  -----------------  -----------------
         O           -2.391520017248    -1.015426015218    -0.102121122989    15.994914619570
         C           -1.505862017248     0.059214784782     0.323217177011    12.000000000000
         C           -0.183408017248    -0.250013015218    -0.289598122989    12.000000000000
         C            2.313767982752    -0.552175015218    -0.196248122989    12.000000000000
         C            0.960311982752    -0.319977015218     0.405064877011    12.000000000000
         C           -2.056699017248     1.396559984782    -0.140312122989    12.000000000000
         C            3.249099982752     0.641524984782     0.017901877011    12.000000000000
         H           -1.420843017248     0.043424984782     1.414915877011     1.007825032230
         H           -0.181311017248    -0.395227015218    -1.370854122989     1.007825032230
         H            2.205445982752    -0.754102015218    -1.268055122989     1.007825032230
         H            2.764181982752    -1.447882015218     0.250603877011     1.007825032230
         H            0.928722982752    -0.181238015218     1.487997877011     1.007825032230
         H           -1.386821017248     2.204882984782     0.166115877011     1.007825032230
         H           -2.148996017248     1.405071984782    -1.229808122989     1.007825032230
         H           -3.045498017248     1.589546984782     0.292351877011     1.007825032230
         H            3.376213982752     0.851656984782     1.084258877011     1.007825032230
         H            2.839547982752     1.538251984782    -0.455263122989     1.007825032230
         H            4.238355982752     0.449533984782    -0.408026122989     1.007825032230
         H           -3.281616017248    -0.799135015218     0.227374877011     1.007825032230

  Basis Set: AUG-CC-PVTZ
    Blend: AUG-CC-PVTZ
  Basis Set: (AUG-CC-PVTZ AUX)
    Blend: AUG-CC-PVTZ-JKFIT
	 Reference Energy          =    -309.1486354135001875 [Eh]
	 Singles Energy            =      -0.0000000000000000 [Eh]
	 Same-Spin Energy          =      -0.3165781623166892 [Eh]
	 Opposite-Spin Energy      =      -1.1027573380865858 [Eh]
	 Correlation Energy        =      -1.4193355004032751 [Eh]
	 Total Energy              =    -310.5679709139034799 [Eh]

	 ================> DF-SCS-MP2 Energies <==================
	-----------------------------------------------------------
	 SCS Same-Spin Scale       =       0.3333333333333333 [-]
	 SCS Opposite-Spin Scale   =       1.2000000000000000 [-]
	 SCS Same-Spin Energy      =      -0.1055260541055631 [Eh]
	 SCS Opposite-Spin Energy  =      -1.3233088057039029 [Eh]
	 SCS Correlation Energy    =      -1.4288348598094660 [Eh]
	 SCS Total Energy          =    -310.5774702733096433 [Eh]
	-----------------------------------------------------------

  Dipole Moment: [D]
     X:     0.0332      Y:     1.4577      Z:     0.8047     Total:     1.6654

*** Psi4 exiting successfully. Buy a developer a beer!
