                               Psi4 1.3.2 release

  ==> Input File <==

--------------------------------------------------------------------------
#psi4
#
memory 32 gb

molecule  {
0 1
  O       -2.3409430    -1.1152500    -0.1201430
  C       -1.5156830    -0.0261920     0.3177710
  C       -0.1702520    -0.2529640    -0.2898400
  C        2.3348890    -0.4444240    -0.1997250
  C        0.9760576    -0.2917579     0.4109876
  C       -2.1103090     1.3065560    -0.1212920
  C        3.2132980     0.7871720     0.0273270
  H       -1.4208040    -0.0402330     1.4151950
  H       -0.1609320    -0.3839550    -1.3725900
  H        2.2351040    -0.6390970    -1.2733090
  H        2.8184580    -1.3247571     0.2422658
  H        0.9367840    -0.1585690     1.4880300
  H       -1.4764410     2.1380570     0.1977940
  H       -2.2008650     1.3268630    -1.2105240
  H       -3.1068830     1.4512670     0.3117270
  H        3.3300870     0.9922950     1.0954650
  H        2.7636150     1.6688370    -0.4368240
  H        4.2103780     0.6456890    -0.3991480
  H       -3.2411570    -0.9446250     0.2124840
units angstrom
no_reorient  #important for SAPT in psi4, default
symmetry c1  #important for SAPT in psi4, default
}

set PROPERTIES_ORIGIN ["COM"]
properties('MP2/aug-cc-pvtz', properties = ['dipole'])
--------------------------------------------------------------------------

    Molecular point group: c1
  Charge       = 0
  Multiplicity = 1
  Basis Set: AUG-CC-PVTZ
    Blend: AUG-CC-PVTZ
  Basis Set: (AUG-CC-PVTZ AUX)
    Blend: AUG-CC-PVTZ-JKFIT

    Orbital Energies [Eh]
    ---------------------

    Doubly Occupied:

       1A    -20.555170     2A    -11.282697     3A    -11.227963
       4A    -11.224472     5A    -11.221583     6A    -11.219288
       7A    -11.215458     8A     -1.353957     9A     -1.089353
      10A     -1.033479    11A     -0.970544    12A     -0.876214
      13A     -0.809924    14A     -0.755811    15A     -0.681726
      16A     -0.633110    17A     -0.624551    18A     -0.597699
      19A     -0.589435    20A     -0.543083    21A     -0.540178
      22A     -0.531393    23A     -0.516763    24A     -0.501548
      25A     -0.482782    26A     -0.462664    27A     -0.443521
      28A     -0.348405

  @DF-RHF Final Energy:  -309.14908870766419

   => Energetics <=

    Nuclear Repulsion Energy =            299.1261676773108320
    One-Electron Energy =               -1011.8849683618692552
    Two-Electron Energy =                 403.6097119768942321
    Total Energy =                       -309.1490887076641911
  Basis Set: (AUG-CC-PVTZ AUX)
    Blend: AUG-CC-PVTZ-RI
    Molecular point group: c1

    Geometry (in Angstrom), charge = 0, multiplicity = 1:

       Center              X                  Y                   Z               Mass
    ------------   -----------------  -----------------  -----------------  -----------------
         O           -2.341111314547    -1.113962651740    -0.121079659695    15.994914619570
         C           -1.515851314547    -0.024904651740     0.316834340305    12.000000000000
         C           -0.170420314547    -0.251676651740    -0.290776659695    12.000000000000
         C            2.334720685453    -0.443136651740    -0.200661659695    12.000000000000
         C            0.975889285453    -0.290470551740     0.410050940305    12.000000000000
         C           -2.110477314547     1.307843348260    -0.122228659695    12.000000000000
         C            3.213129685453     0.788459348260     0.026390340305    12.000000000000
         H           -1.420972314547    -0.038945651740     1.414258340305     1.007825032230
         H           -0.161100314547    -0.382667651740    -1.373526659695     1.007825032230
         H            2.234935685453    -0.637809651740    -1.274245659695     1.007825032230
         H            2.818289685453    -1.323469751740     0.241329140305     1.007825032230
         H            0.936615685453    -0.157281651740     1.487093340305     1.007825032230
         H           -1.476609314547     2.139344348260     0.196857340305     1.007825032230
         H           -2.201033314547     1.328150348260    -1.211460659695     1.007825032230
         H           -3.107051314547     1.452554348260     0.310790340305     1.007825032230
         H            3.329918685453     0.993582348260     1.094528340305     1.007825032230
         H            2.763446685453     1.670124348260    -0.437760659695     1.007825032230
         H            4.210209685453     0.646976348260    -0.400084659695     1.007825032230
         H           -3.241325314547    -0.943337651740     0.211547340305     1.007825032230

  Basis Set: AUG-CC-PVTZ
    Blend: AUG-CC-PVTZ
  Basis Set: (AUG-CC-PVTZ AUX)
    Blend: AUG-CC-PVTZ-JKFIT
	 Reference Energy          =    -309.1490887076641911 [Eh]
	 Singles Energy            =      -0.0000000000000000 [Eh]
	 Same-Spin Energy          =      -0.3165820738500603 [Eh]
	 Opposite-Spin Energy      =      -1.1025068456962253 [Eh]
	 Correlation Energy        =      -1.4190889195462857 [Eh]
	 Total Energy              =    -310.5681776272105026 [Eh]

	 ================> DF-SCS-MP2 Energies <==================
	-----------------------------------------------------------
	 SCS Same-Spin Scale       =       0.3333333333333333 [-]
	 SCS Opposite-Spin Scale   =       1.2000000000000000 [-]
	 SCS Same-Spin Energy      =      -0.1055273579500201 [Eh]
	 SCS Opposite-Spin Energy  =      -1.3230082148354703 [Eh]
	 SCS Correlation Energy    =      -1.4285355727854903 [Eh]
	 SCS Total Energy          =    -310.5776242804496974 [Eh]
	-----------------------------------------------------------

  Dipole Moment: [D]
     X:    -0.0894      Y:     1.3918      Z:     0.8174     Total:     1.6166

*** Psi4 exiting successfully. Buy a developer a beer!
