                               Psi4 1.3.2 release

  ==> Input File <==

--------------------------------------------------------------------------
#psi4
#
memory 32 gb

molecule  {
0 1
  O       -2.3409430    -1.1152500    -0.1201430
  C       -1.5156830    -0.0261920     0.3177710
  C       -0.1702520    -0.2529640    -0.2898400
  C        2.3348890    -0.4444240    -0.1997250
  C        0.9619287    -0.2776132     0.4233071
  C       -2.1103090     1.3065560    -0.1212920
  C        3.2132980     0.7871720     0.0273270
  H       -1.4208040    -0.0402330     1.4151950
  H       -0.1798793    -0.3821346    -1.3728060
  H        2.2351040    -0.6390970    -1.2733090
  H        2.8261900    -1.3231820     0.2368400
  H        0.9367840    -0.1585690     1.4880300
  H       -1.4764410     2.1380570     0.1977940
  H       -2.2008650     1.3268630    -1.2105240
  H       -3.1068830     1.4512670     0.3117270
  H        3.3300870     0.9922950     1.0954650
  H        2.7636150     1.6688370    -0.4368240
  H        4.2103780     0.6456890    -0.3991480
  H       -3.2411570    -0.9446250     0.2124840
units angstrom
no_reorient  #important for SAPT in psi4, default
symmetry c1  #important for SAPT in psi4, default
}

set PROPERTIES_ORIGIN ["COM"]
properties('MP2/aug-cc-pvtz', properties = ['dipole'])
--------------------------------------------------------------------------

    Molecular point group: c1
  Charge       = 0
  Multiplicity = 1
  Basis Set: AUG-CC-PVTZ
    Blend: AUG-CC-PVTZ
  Basis Set: (AUG-CC-PVTZ AUX)
    Blend: AUG-CC-PVTZ-JKFIT

    Orbital Energies [Eh]
    ---------------------

    Doubly Occupied:

       1A    -20.555084     2A    -11.281848     3A    -11.227141
       4A    -11.224986     5A    -11.221319     6A    -11.219121
       7A    -11.214731     8A     -1.353879     9A     -1.088486
      10A     -1.032422    11A     -0.971033    12A     -0.874350
      13A     -0.809363    14A     -0.758196    15A     -0.682262
      16A     -0.632425    17A     -0.624642    18A     -0.596686
      19A     -0.589128    20A     -0.542804    21A     -0.542333
      22A     -0.532664    23A     -0.515184    24A     -0.500814
      25A     -0.483524    26A     -0.459162    27A     -0.443464
      28A     -0.350436

  @DF-RHF Final Energy:  -309.14899676785774

   => Energetics <=

    Nuclear Repulsion Energy =            299.1111998337161708
    One-Electron Energy =               -1011.8654177415482991
    Two-Electron Energy =                 403.6052211399743328
    Total Energy =                       -309.1489967678577386
  Basis Set: (AUG-CC-PVTZ AUX)
    Blend: AUG-CC-PVTZ-RI
    Molecular point group: c1

    Geometry (in Angstrom), charge = 0, multiplicity = 1:

       Center              X                  Y                   Z               Mass
    ------------   -----------------  -----------------  -----------------  -----------------
         O           -2.339304420739    -1.115692699896    -0.122499878855    15.994914619570
         C           -1.514044420739    -0.026634699896     0.315414121145    12.000000000000
         C           -0.168613420739    -0.253406699896    -0.292196878855    12.000000000000
         C            2.336527579261    -0.444866699896    -0.202081878855    12.000000000000
         C            0.963567279261    -0.278055899896     0.420950221145    12.000000000000
         C           -2.108670420739     1.306113300104    -0.123648878855    12.000000000000
         C            3.214936579261     0.786729300104     0.024970121145    12.000000000000
         H           -1.419165420739    -0.040675699896     1.412838121145     1.007825032230
         H           -0.178240720739    -0.382577299896    -1.375162878855     1.007825032230
         H            2.236742579261    -0.639539699896    -1.275665878855     1.007825032230
         H            2.827828579261    -1.323624699896     0.234483121145     1.007825032230
         H            0.938422579261    -0.159011699896     1.485673121145     1.007825032230
         H           -1.474802420739     2.137614300104     0.195437121145     1.007825032230
         H           -2.199226420739     1.326420300104    -1.212880878855     1.007825032230
         H           -3.105244420739     1.450824300104     0.309370121145     1.007825032230
         H            3.331725579261     0.991852300104     1.093108121145     1.007825032230
         H            2.765253579261     1.668394300104    -0.439180878855     1.007825032230
         H            4.212016579261     0.645246300104    -0.401504878855     1.007825032230
         H           -3.239518420739    -0.945067699896     0.210127121145     1.007825032230

  Basis Set: AUG-CC-PVTZ
    Blend: AUG-CC-PVTZ
  Basis Set: (AUG-CC-PVTZ AUX)
    Blend: AUG-CC-PVTZ-JKFIT
	 Reference Energy          =    -309.1489967678577386 [Eh]
	 Singles Energy            =      -0.0000000000000000 [Eh]
	 Same-Spin Energy          =      -0.3163606991880702 [Eh]
	 Opposite-Spin Energy      =      -1.1022397221274600 [Eh]
	 Correlation Energy        =      -1.4186004213155301 [Eh]
	 Total Energy              =    -310.5675971891732843 [Eh]

	 ================> DF-SCS-MP2 Energies <==================
	-----------------------------------------------------------
	 SCS Same-Spin Scale       =       0.3333333333333333 [-]
	 SCS Opposite-Spin Scale   =       1.2000000000000000 [-]
	 SCS Same-Spin Energy      =      -0.1054535663960234 [Eh]
	 SCS Opposite-Spin Energy  =      -1.3226876665529519 [Eh]
	 SCS Correlation Energy    =      -1.4281412329489753 [Eh]
	 SCS Total Energy          =    -310.5771380008067126 [Eh]
	-----------------------------------------------------------

  Dipole Moment: [D]
     X:    -0.1133      Y:     1.3766      Z:     0.8219     Total:     1.6073

*** Psi4 exiting successfully. Buy a developer a beer!
