                               Psi4 1.3.2 release

  ==> Input File <==

--------------------------------------------------------------------------
#psi4
#
memory 32 gb

molecule  {
0 1
  O       -2.3409430    -1.1152500    -0.1201430
  C       -1.5044987    -0.0241974     0.3412328
  C       -0.1702520    -0.2529640    -0.2898400
  C        2.3348890    -0.4444240    -0.1997250
  C        0.9619714    -0.2771951     0.4232535
  C       -2.1103090     1.3065560    -0.1212920
  C        3.2132980     0.7871720     0.0273270
  H       -1.4208040    -0.0402330     1.4151950
  H       -0.1609320    -0.3839550    -1.3725900
  H        2.2351040    -0.6390970    -1.2733090
  H        2.8261900    -1.3231820     0.2368400
  H        0.9367840    -0.1585690     1.4880300
  H       -1.4764410     2.1380570     0.1977940
  H       -2.2008650     1.3268630    -1.2105240
  H       -3.1068830     1.4512670     0.3117270
  H        3.3300870     0.9922950     1.0954650
  H        2.7636150     1.6688370    -0.4368240
  H        4.2103780     0.6456890    -0.3991480
  H       -3.2411570    -0.9446250     0.2124840
units angstrom
no_reorient  #important for SAPT in psi4, default
symmetry c1  #important for SAPT in psi4, default
}

set PROPERTIES_ORIGIN ["COM"]
properties('MP2/aug-cc-pvtz', properties = ['dipole'])
--------------------------------------------------------------------------

    Molecular point group: c1
  Charge       = 0
  Multiplicity = 1
  Basis Set: AUG-CC-PVTZ
    Blend: AUG-CC-PVTZ
  Basis Set: (AUG-CC-PVTZ AUX)
    Blend: AUG-CC-PVTZ-JKFIT

    Orbital Energies [Eh]
    ---------------------

    Doubly Occupied:

       1A    -20.553255     2A    -11.281598     3A    -11.226759
       4A    -11.224991     5A    -11.221540     6A    -11.219505
       7A    -11.214810     8A     -1.347736     9A     -1.088973
      10A     -1.031994    11A     -0.970353    12A     -0.874170
      13A     -0.810014    14A     -0.760221    15A     -0.681351
      16A     -0.630384    17A     -0.621636    18A     -0.595994
      19A     -0.588980    20A     -0.542870    21A     -0.541313
      22A     -0.532491    23A     -0.514544    24A     -0.500802
      25A     -0.483603    26A     -0.461063    27A     -0.445419
      28A     -0.350256

  @DF-RHF Final Energy:  -309.14822540231523

   => Energetics <=

    Nuclear Repulsion Energy =            298.9421276868330324
    One-Electron Energy =               -1011.5474546132551268
    Two-Electron Energy =                 403.4571015241068608
    Total Energy =                       -309.1482254023152336
  Basis Set: (AUG-CC-PVTZ AUX)
    Blend: AUG-CC-PVTZ-RI
    Molecular point group: c1

    Geometry (in Angstrom), charge = 0, multiplicity = 1:

       Center              X                  Y                   Z               Mass
    ------------   -----------------  -----------------  -----------------  -----------------
         O           -2.340841251435    -1.115963636817    -0.125308545240    15.994914619570
         C           -1.504396951435    -0.024911036817     0.336067254760    12.000000000000
         C           -0.170150251435    -0.253677636817    -0.295005545240    12.000000000000
         C            2.334990748565    -0.445137636817    -0.204890545240    12.000000000000
         C            0.962073148565    -0.277908736817     0.418087954760    12.000000000000
         C           -2.110207251435     1.305842363183    -0.126457545240    12.000000000000
         C            3.213399748565     0.786458363183     0.022161454760    12.000000000000
         H           -1.420702251435    -0.040946636817     1.410029454760     1.007825032230
         H           -0.160830251435    -0.384668636817    -1.377755545240     1.007825032230
         H            2.235205748565    -0.639810636817    -1.278474545240     1.007825032230
         H            2.826291748565    -1.323895636817     0.231674454760     1.007825032230
         H            0.936885748565    -0.159282636817     1.482864454760     1.007825032230
         H           -1.476339251435     2.137343363183     0.192628454760     1.007825032230
         H           -2.200763251435     1.326149363183    -1.215689545240     1.007825032230
         H           -3.106781251435     1.450553363183     0.306561454760     1.007825032230
         H            3.330188748565     0.991581363183     1.090299454760     1.007825032230
         H            2.763716748565     1.668123363183    -0.441989545240     1.007825032230
         H            4.210479748565     0.644975363183    -0.404313545240     1.007825032230
         H           -3.241055251435    -0.945338636817     0.207318454760     1.007825032230

  Basis Set: AUG-CC-PVTZ
    Blend: AUG-CC-PVTZ
  Basis Set: (AUG-CC-PVTZ AUX)
    Blend: AUG-CC-PVTZ-JKFIT
	 Reference Energy          =    -309.1482254023152336 [Eh]
	 Singles Energy            =      -0.0000000000000000 [Eh]
	 Same-Spin Energy          =      -0.3163352221680398 [Eh]
	 Opposite-Spin Energy      =      -1.1023943178375066 [Eh]
	 Correlation Energy        =      -1.4187295400055464 [Eh]
	 Total Energy              =    -310.5669549423207627 [Eh]

	 ================> DF-SCS-MP2 Energies <==================
	-----------------------------------------------------------
	 SCS Same-Spin Scale       =       0.3333333333333333 [-]
	 SCS Opposite-Spin Scale   =       1.2000000000000000 [-]
	 SCS Same-Spin Energy      =      -0.1054450740560132 [Eh]
	 SCS Opposite-Spin Energy  =      -1.3228731814050079 [Eh]
	 SCS Correlation Energy    =      -1.4283182554610212 [Eh]
	 SCS Total Energy          =    -310.5765436577762557 [Eh]
	-----------------------------------------------------------

  Dipole Moment: [D]
     X:    -0.0695      Y:     1.3970      Z:     0.8566     Total:     1.6402

*** Psi4 exiting successfully. Buy a developer a beer!
