                               Psi4 1.3.2 release

  ==> Input File <==

--------------------------------------------------------------------------
#psi4
#
memory 32 gb

molecule  {
0 1
  O       -2.3409430    -1.1152500    -0.1201430
  C       -1.5156830    -0.0261920     0.3177710
  C       -0.1702520    -0.2529640    -0.2898400
  C        2.3348890    -0.4444240    -0.1997250
  C        0.9971084    -0.2882088     0.3636482
  C       -2.1103090     1.3065560    -0.1212920
  C        3.2132980     0.7871720     0.0273270
  H       -1.4208040    -0.0402330     1.4151950
  H       -0.1230516    -0.3874756    -1.3711687
  H        2.2351040    -0.6390970    -1.2733090
  H        2.8261900    -1.3231820     0.2368400
  H        0.9367840    -0.1585690     1.4880300
  H       -1.4764410     2.1380570     0.1977940
  H       -2.2008650     1.3268630    -1.2105240
  H       -3.1068830     1.4512670     0.3117270
  H        3.3300870     0.9922950     1.0954650
  H        2.7636150     1.6688370    -0.4368240
  H        4.2103780     0.6456890    -0.3991480
  H       -3.2411570    -0.9446250     0.2124840
units angstrom
no_reorient  #important for SAPT in psi4, default
symmetry c1  #important for SAPT in psi4, default
}

set PROPERTIES_ORIGIN ["COM"]
properties('MP2/aug-cc-pvtz', properties = ['dipole'])
--------------------------------------------------------------------------

    Molecular point group: c1
  Charge       = 0
  Multiplicity = 1
  Basis Set: AUG-CC-PVTZ
    Blend: AUG-CC-PVTZ
  Basis Set: (AUG-CC-PVTZ AUX)
    Blend: AUG-CC-PVTZ-JKFIT

    Orbital Energies [Eh]
    ---------------------

    Doubly Occupied:

       1A    -20.555786     2A    -11.284879     3A    -11.229142
       4A    -11.223453     5A    -11.220374     6A    -11.219790
       7A    -11.216346     8A     -1.354548     9A     -1.093876
      10A     -1.035831    11A     -0.971582    12A     -0.879310
      13A     -0.812861    14A     -0.749023    15A     -0.680752
      16A     -0.636192    17A     -0.624842    18A     -0.601810
      19A     -0.589024    20A     -0.544158    21A     -0.539093
      22A     -0.525329    23A     -0.519169    24A     -0.504137
      25A     -0.478587    26A     -0.466327    27A     -0.444202
      28A     -0.348794

  @DF-RHF Final Energy:  -309.14611865523722

   => Energetics <=

    Nuclear Repulsion Energy =            299.4303829397819641
    One-Electron Energy =               -1012.4545715456195012
    Two-Electron Energy =                 403.8780699506002634
    Total Energy =                       -309.1461186552372169
  Basis Set: (AUG-CC-PVTZ AUX)
    Blend: AUG-CC-PVTZ-RI
    Molecular point group: c1

    Geometry (in Angstrom), charge = 0, multiplicity = 1:

       Center              X                  Y                   Z               Mass
    ------------   -----------------  -----------------  -----------------  -----------------
         O           -2.344094454257    -1.114368575982    -0.115363650016    15.994914619570
         C           -1.518834454257    -0.025310575982     0.322550349984    12.000000000000
         C           -0.173403454257    -0.252082575982    -0.285060650016    12.000000000000
         C            2.331737545743    -0.443542575982    -0.194945650016    12.000000000000
         C            0.993956945743    -0.287327375982     0.368427549984    12.000000000000
         C           -2.113460454257     1.307437424018    -0.116512650016    12.000000000000
         C            3.210146545743     0.788053424018     0.032106349984    12.000000000000
         H           -1.423955454257    -0.039351575982     1.419974349984     1.007825032230
         H           -0.126203054257    -0.386594175982    -1.366389350016     1.007825032230
         H            2.231952545743    -0.638215575982    -1.268529650016     1.007825032230
         H            2.823038545743    -1.322300575982     0.241619349984     1.007825032230
         H            0.933632545743    -0.157687575982     1.492809349984     1.007825032230
         H           -1.479592454257     2.138938424018     0.202573349984     1.007825032230
         H           -2.204016454257     1.327744424018    -1.205744650016     1.007825032230
         H           -3.110034454257     1.452148424018     0.316506349984     1.007825032230
         H            3.326935545743     0.993176424018     1.100244349984     1.007825032230
         H            2.760463545743     1.669718424018    -0.432044650016     1.007825032230
         H            4.207226545743     0.646570424018    -0.394368650016     1.007825032230
         H           -3.244308454257    -0.943743575982     0.217263349984     1.007825032230

  Basis Set: AUG-CC-PVTZ
    Blend: AUG-CC-PVTZ
  Basis Set: (AUG-CC-PVTZ AUX)
    Blend: AUG-CC-PVTZ-JKFIT
	 Reference Energy          =    -309.1461186552372169 [Eh]
	 Singles Energy            =      -0.0000000000000000 [Eh]
	 Same-Spin Energy          =      -0.3170002371964106 [Eh]
	 Opposite-Spin Energy      =      -1.1029159218102738 [Eh]
	 Correlation Energy        =      -1.4199161590066844 [Eh]
	 Total Energy              =    -310.5660348142438920 [Eh]

	 ================> DF-SCS-MP2 Energies <==================
	-----------------------------------------------------------
	 SCS Same-Spin Scale       =       0.3333333333333333 [-]
	 SCS Opposite-Spin Scale   =       1.2000000000000000 [-]
	 SCS Same-Spin Energy      =      -0.1056667457321369 [Eh]
	 SCS Opposite-Spin Energy  =      -1.3234991061723285 [Eh]
	 SCS Correlation Energy    =      -1.4291658519044654 [Eh]
	 SCS Total Energy          =    -310.5752845071417028 [Eh]
	-----------------------------------------------------------

  Dipole Moment: [D]
     X:    -0.0611      Y:     1.3848      Z:     0.7919     Total:     1.5965

*** Psi4 exiting successfully. Buy a developer a beer!
