                               Psi4 1.3.2 release

  ==> Input File <==

--------------------------------------------------------------------------
#psi4
#
memory 32 gb

molecule  {
0 1
  O       -2.3437952    -1.1223849    -0.0963079
  C       -1.5156830    -0.0261920     0.3177710
  C       -0.1702520    -0.2529640    -0.2898400
  C        2.3348890    -0.4444240    -0.1997250
  C        0.9740050    -0.2811540     0.4036300
  C       -2.1103090     1.3065560    -0.1212920
  C        3.2132980     0.7871720     0.0273270
  H       -1.4319878    -0.0558606     1.4157935
  H       -0.1609320    -0.3839550    -1.3725900
  H        2.2351040    -0.6390970    -1.2733090
  H        2.8261900    -1.3231820     0.2368400
  H        0.9367840    -0.1585690     1.4880300
  H       -1.4764410     2.1380570     0.1977940
  H       -2.2008650     1.3268630    -1.2105240
  H       -3.1068830     1.4512670     0.3117270
  H        3.3300870     0.9922950     1.0954650
  H        2.7636150     1.6688370    -0.4368240
  H        4.2103780     0.6456890    -0.3991480
  H       -3.2411570    -0.9446250     0.2124840
units angstrom
no_reorient  #important for SAPT in psi4, default
symmetry c1  #important for SAPT in psi4, default
}

set PROPERTIES_ORIGIN ["COM"]
properties('MP2/aug-cc-pvtz', properties = ['dipole'])
--------------------------------------------------------------------------

    Molecular point group: c1
  Charge       = 0
  Multiplicity = 1
  Basis Set: AUG-CC-PVTZ
    Blend: AUG-CC-PVTZ
  Basis Set: (AUG-CC-PVTZ AUX)
    Blend: AUG-CC-PVTZ-JKFIT

    Orbital Energies [Eh]
    ---------------------

    Doubly Occupied:

       1A    -20.553308     2A    -11.282774     3A    -11.227962
       4A    -11.224604     5A    -11.221157     6A    -11.219929
       7A    -11.215352     8A     -1.355116     9A     -1.090247
      10A     -1.033887    11A     -0.971363    12A     -0.876275
      13A     -0.811242    14A     -0.754997    15A     -0.681350
      16A     -0.634489    17A     -0.626001    18A     -0.598369
      19A     -0.589447    20A     -0.543120    21A     -0.540175
      22A     -0.531349    23A     -0.516446    24A     -0.501494
      25A     -0.482077    26A     -0.462964    27A     -0.443076
      28A     -0.350111

  @DF-RHF Final Energy:  -309.15006567302493

   => Energetics <=

    Nuclear Repulsion Energy =            299.1608398212452471
    One-Electron Energy =               -1011.9444536447919063
    Two-Electron Energy =                 403.6335481505216762
    Total Energy =                       -309.1500656730249261
  Basis Set: (AUG-CC-PVTZ AUX)
    Blend: AUG-CC-PVTZ-RI
    Molecular point group: c1

    Geometry (in Angstrom), charge = 0, multiplicity = 1:

       Center              X                  Y                   Z               Mass
    ------------   -----------------  -----------------  -----------------  -----------------
         O           -2.343226861746    -1.121087183173    -0.100122844503    15.994914619570
         C           -1.515114661746    -0.024894283173     0.313956055497    12.000000000000
         C           -0.169683661746    -0.251666283173    -0.293654944503    12.000000000000
         C            2.335457338254    -0.443126283173    -0.203539944503    12.000000000000
         C            0.974573338254    -0.279856283173     0.399815055497    12.000000000000
         C           -2.109740661746     1.307853716827    -0.125106944503    12.000000000000
         C            3.213866338254     0.788469716827     0.023512055497    12.000000000000
         H           -1.431419461746    -0.054562883173     1.411978555497     1.007825032230
         H           -0.160363661746    -0.382657283173    -1.376404944503     1.007825032230
         H            2.235672338254    -0.637799283173    -1.277123944503     1.007825032230
         H            2.826758338254    -1.321884283173     0.233025055497     1.007825032230
         H            0.937352338254    -0.157271283173     1.484215055497     1.007825032230
         H           -1.475872661746     2.139354716827     0.193979055497     1.007825032230
         H           -2.200296661746     1.328160716827    -1.214338944503     1.007825032230
         H           -3.106314661746     1.452564716827     0.307912055497     1.007825032230
         H            3.330655338254     0.993592716827     1.091650055497     1.007825032230
         H            2.764183338254     1.670134716827    -0.440638944503     1.007825032230
         H            4.210946338254     0.646986716827    -0.402962944503     1.007825032230
         H           -3.240588661746    -0.943327283173     0.208669055497     1.007825032230

  Basis Set: AUG-CC-PVTZ
    Blend: AUG-CC-PVTZ
  Basis Set: (AUG-CC-PVTZ AUX)
    Blend: AUG-CC-PVTZ-JKFIT
	 Reference Energy          =    -309.1500656730249261 [Eh]
	 Singles Energy            =      -0.0000000000000000 [Eh]
	 Same-Spin Energy          =      -0.3163464118919238 [Eh]
	 Opposite-Spin Energy      =      -1.1019678299915077 [Eh]
	 Correlation Energy        =      -1.4183142418834316 [Eh]
	 Total Energy              =    -310.5683799149083484 [Eh]

	 ================> DF-SCS-MP2 Energies <==================
	-----------------------------------------------------------
	 SCS Same-Spin Scale       =       0.3333333333333333 [-]
	 SCS Opposite-Spin Scale   =       1.2000000000000000 [-]
	 SCS Same-Spin Energy      =      -0.1054488039639746 [Eh]
	 SCS Opposite-Spin Energy  =      -1.3223613959898091 [Eh]
	 SCS Correlation Energy    =      -1.4278101999537838 [Eh]
	 SCS Total Energy          =    -310.5778758729787228 [Eh]
	-----------------------------------------------------------

  Dipole Moment: [D]
     X:    -0.0856      Y:     1.4112      Z:     0.7679     Total:     1.6089

*** Psi4 exiting successfully. Buy a developer a beer!
