                               Psi4 1.3.2 release

  ==> Input File <==

--------------------------------------------------------------------------
#psi4
#
memory 32 gb

molecule  {
0 1
  O       -2.3409430    -1.1152500    -0.1201430
  C       -1.5156830    -0.0261920     0.3177710
  C       -0.1702520    -0.2529640    -0.2898400
  C        2.3348890    -0.4444240    -0.1997250
  C        1.0081285    -0.2917207     0.3433557
  C       -2.1103090     1.3065560    -0.1212920
  C        3.2132980     0.7871720     0.0273270
  H       -1.4208040    -0.0402330     1.4151950
  H       -0.1041301    -0.3891747    -1.3699639
  H        2.2351040    -0.6390970    -1.2733090
  H        2.8261900    -1.3231820     0.2368400
  H        0.9367840    -0.1585690     1.4880300
  H       -1.4764410     2.1380570     0.1977940
  H       -2.2008650     1.3268630    -1.2105240
  H       -3.1068830     1.4512670     0.3117270
  H        3.3300870     0.9922950     1.0954650
  H        2.7636150     1.6688370    -0.4368240
  H        4.2103780     0.6456890    -0.3991480
  H       -3.2411570    -0.9446250     0.2124840
units angstrom
no_reorient  #important for SAPT in psi4, default
symmetry c1  #important for SAPT in psi4, default
}

set PROPERTIES_ORIGIN ["COM"]
properties('MP2/aug-cc-pvtz', properties = ['dipole'])
--------------------------------------------------------------------------

    Molecular point group: c1
  Charge       = 0
  Multiplicity = 1
  Basis Set: AUG-CC-PVTZ
    Blend: AUG-CC-PVTZ
  Basis Set: (AUG-CC-PVTZ AUX)
    Blend: AUG-CC-PVTZ-JKFIT

    Orbital Energies [Eh]
    ---------------------

    Doubly Occupied:

       1A    -20.556063     2A    -11.285943     3A    -11.230061
       4A    -11.222992     5A    -11.220320     6A    -11.220050
       7A    -11.216934     8A     -1.354821     9A     -1.096192
      10A     -1.036919    11A     -0.971893    12A     -0.881192
      13A     -0.814264    14A     -0.746167    15A     -0.680530
      16A     -0.637680    17A     -0.625055    18A     -0.603687
      19A     -0.588728    20A     -0.544874    21A     -0.539578
      22A     -0.523077    23A     -0.520125    24A     -0.505327
      25A     -0.478610    26A     -0.464462    27A     -0.444465
      28A     -0.348383

  @DF-RHF Final Energy:  -309.14239727197469

   => Energetics <=

    Nuclear Repulsion Energy =            299.5457796583796153
    One-Electron Energy =               -1012.6595643907367048
    Two-Electron Energy =                 403.9713874603824024
    Total Energy =                       -309.1423972719746871
  Basis Set: (AUG-CC-PVTZ AUX)
    Blend: AUG-CC-PVTZ-RI
    Molecular point group: c1

    Geometry (in Angstrom), charge = 0, multiplicity = 1:

       Center              X                  Y                   Z               Mass
    ------------   -----------------  -----------------  -----------------  -----------------
         O           -2.345606219196    -1.113930413181    -0.112942842333    15.994914619570
         C           -1.520346219196    -0.024872413181     0.324971157667    12.000000000000
         C           -0.174915219196    -0.251644413181    -0.282639842333    12.000000000000
         C            2.330225780804    -0.443104413181    -0.192524842333    12.000000000000
         C            1.003465280804    -0.290401113181     0.350555857667    12.000000000000
         C           -2.114972219196     1.307875586819    -0.114091842333    12.000000000000
         C            3.208634780804     0.788491586819     0.034527157667    12.000000000000
         H           -1.425467219196    -0.038913413181     1.422395157667     1.007825032230
         H           -0.108793319196    -0.387855113181    -1.362763742333     1.007825032230
         H            2.230440780804    -0.637777413181    -1.266108842333     1.007825032230
         H            2.821526780804    -1.321862413181     0.244040157667     1.007825032230
         H            0.932120780804    -0.157249413181     1.495230157667     1.007825032230
         H           -1.481104219196     2.139376586819     0.204994157667     1.007825032230
         H           -2.205528219196     1.328182586819    -1.203323842333     1.007825032230
         H           -3.111546219196     1.452586586819     0.318927157667     1.007825032230
         H            3.325423780804     0.993614586819     1.102665157667     1.007825032230
         H            2.758951780804     1.670156586819    -0.429623842333     1.007825032230
         H            4.205714780804     0.647008586819    -0.391947842333     1.007825032230
         H           -3.245820219196    -0.943305413181     0.219684157667     1.007825032230

  Basis Set: AUG-CC-PVTZ
    Blend: AUG-CC-PVTZ
  Basis Set: (AUG-CC-PVTZ AUX)
    Blend: AUG-CC-PVTZ-JKFIT
	 Reference Energy          =    -309.1423972719746871 [Eh]
	 Singles Energy            =      -0.0000000000000000 [Eh]
	 Same-Spin Energy          =      -0.3172975969862951 [Eh]
	 Opposite-Spin Energy      =      -1.1033232325415232 [Eh]
	 Correlation Energy        =      -1.4206208295278184 [Eh]
	 Total Energy              =    -310.5630181015025073 [Eh]

	 ================> DF-SCS-MP2 Energies <==================
	-----------------------------------------------------------
	 SCS Same-Spin Scale       =       0.3333333333333333 [-]
	 SCS Opposite-Spin Scale   =       1.2000000000000000 [-]
	 SCS Same-Spin Energy      =      -0.1057658656620984 [Eh]
	 SCS Opposite-Spin Energy  =      -1.3239878790498278 [Eh]
	 SCS Correlation Energy    =      -1.4297537447119262 [Eh]
	 SCS Total Energy          =    -310.5721510166866324 [Eh]
	-----------------------------------------------------------

  Dipole Moment: [D]
     X:    -0.0446      Y:     1.3876      Z:     0.7771     Total:     1.5911

*** Psi4 exiting successfully. Buy a developer a beer!
