                               Psi4 1.3.2 release

  ==> Input File <==

--------------------------------------------------------------------------
#psi4
#
memory 32 gb

molecule  {
0 1
  O       -2.3409430    -1.1152500    -0.1201430
  C       -1.5156830    -0.0261920     0.3177710
  C       -0.1702520    -0.2529640    -0.2898400
  C        2.3348890    -0.4444240    -0.1997250
  C        0.9495075    -0.2740648     0.4427669
  C       -2.1103090     1.3065560    -0.1212920
  C        3.2132980     0.7871720     0.0273270
  H       -1.4208040    -0.0402330     1.4151950
  H       -0.1988237    -0.3802748    -1.3726921
  H        2.2351040    -0.6390970    -1.2733090
  H        2.8261900    -1.3231820     0.2368400
  H        0.9367840    -0.1585690     1.4880300
  H       -1.4764410     2.1380570     0.1977940
  H       -2.2008650     1.3268630    -1.2105240
  H       -3.1068830     1.4512670     0.3117270
  H        3.3300870     0.9922950     1.0954650
  H        2.7636150     1.6688370    -0.4368240
  H        4.2103780     0.6456890    -0.3991480
  H       -3.2411570    -0.9446250     0.2124840
units angstrom
no_reorient  #important for SAPT in psi4, default
symmetry c1  #important for SAPT in psi4, default
}

set PROPERTIES_ORIGIN ["COM"]
properties('MP2/aug-cc-pvtz', properties = ['dipole'])
--------------------------------------------------------------------------

    Molecular point group: c1
  Charge       = 0
  Multiplicity = 1
  Basis Set: AUG-CC-PVTZ
    Blend: AUG-CC-PVTZ
  Basis Set: (AUG-CC-PVTZ AUX)
    Blend: AUG-CC-PVTZ-JKFIT

    Orbital Energies [Eh]
    ---------------------

    Doubly Occupied:

       1A    -20.554895     2A    -11.280897     3A    -11.226743
       4A    -11.225494     5A    -11.221873     6A    -11.218936
       7A    -11.214237     8A     -1.353709     9A     -1.087189
      10A     -1.031246    11A     -0.970966    12A     -0.872967
      13A     -0.808455    14A     -0.761383    15A     -0.683087
      16A     -0.631514    17A     -0.624659    18A     -0.595313
      19A     -0.588793    20A     -0.546526    21A     -0.542365
      22A     -0.532922    23A     -0.513948    24A     -0.499814
      25A     -0.484653    26A     -0.455145    27A     -0.443214
      28A     -0.351105

  @DF-RHF Final Energy:  -309.14713656087150

   => Energetics <=

    Nuclear Repulsion Energy =            299.0148340461110479
    One-Electron Energy =               -1011.6798424385790440
    Two-Electron Energy =                 403.5178718315965511
    Total Energy =                       -309.1471365608715018
  Basis Set: (AUG-CC-PVTZ AUX)
    Blend: AUG-CC-PVTZ-RI
    Molecular point group: c1

    Geometry (in Angstrom), charge = 0, multiplicity = 1:

       Center              X                  Y                   Z               Mass
    ------------   -----------------  -----------------  -----------------  -----------------
         O           -2.337624442407    -1.116136856948    -0.124834129603    15.994914619570
         C           -1.512364442407    -0.027078856948     0.313079870397    12.000000000000
         C           -0.166933442407    -0.253850856948    -0.294531129603    12.000000000000
         C            2.338207557593    -0.445310856948    -0.204416129603    12.000000000000
         C            0.952826057593    -0.274951656948     0.438075770397    12.000000000000
         C           -2.106990442407     1.305669143052    -0.125983129603    12.000000000000
         C            3.216616557593     0.786285143052     0.022635870397    12.000000000000
         H           -1.417485442407    -0.041119856948     1.410503870397     1.007825032230
         H           -0.195505142407    -0.381161656948    -1.377383229603     1.007825032230
         H            2.238422557593    -0.639983856948    -1.278000129603     1.007825032230
         H            2.829508557593    -1.324068856948     0.232148870397     1.007825032230
         H            0.940102557593    -0.159455856948     1.483338870397     1.007825032230
         H           -1.473122442407     2.137170143052     0.193102870397     1.007825032230
         H           -2.197546442407     1.325976143052    -1.215215129603     1.007825032230
         H           -3.103564442407     1.450380143052     0.307035870397     1.007825032230
         H            3.333405557593     0.991408143052     1.090773870397     1.007825032230
         H            2.766933557593     1.667950143052    -0.441515129603     1.007825032230
         H            4.213696557593     0.644802143052    -0.403839129603     1.007825032230
         H           -3.237838442407    -0.945511856948     0.207792870397     1.007825032230

  Basis Set: AUG-CC-PVTZ
    Blend: AUG-CC-PVTZ
  Basis Set: (AUG-CC-PVTZ AUX)
    Blend: AUG-CC-PVTZ-JKFIT
	 Reference Energy          =    -309.1471365608715018 [Eh]
	 Singles Energy            =      -0.0000000000000000 [Eh]
	 Same-Spin Energy          =      -0.3162330352800961 [Eh]
	 Opposite-Spin Energy      =      -1.1022058085015849 [Eh]
	 Correlation Energy        =      -1.4184388437816811 [Eh]
	 Total Energy              =    -310.5655754046532024 [Eh]

	 ================> DF-SCS-MP2 Energies <==================
	-----------------------------------------------------------
	 SCS Same-Spin Scale       =       0.3333333333333333 [-]
	 SCS Opposite-Spin Scale   =       1.2000000000000000 [-]
	 SCS Same-Spin Energy      =      -0.1054110117600320 [Eh]
	 SCS Opposite-Spin Energy  =      -1.3226469702019019 [Eh]
	 SCS Correlation Energy    =      -1.4280579819619339 [Eh]
	 SCS Total Energy          =    -310.5751945428334579 [Eh]
	-----------------------------------------------------------

  Dipole Moment: [D]
     X:    -0.1321      Y:     1.3740      Z:     0.8280     Total:     1.6097

*** Psi4 exiting successfully. Buy a developer a beer!
