                               Psi4 1.3.2 release

  ==> Input File <==

--------------------------------------------------------------------------
#psi4
#
memory 32 gb

molecule  {
0 1
  O       -2.3409430    -1.1152500    -0.1201430
  C       -1.5156830    -0.0261920     0.3177710
  C       -0.3504131    -0.2225979    -0.2084773
  C        2.3348890    -0.4444240    -0.1997250
  C        0.9740050    -0.2811540     0.4036300
  C       -2.1103090     1.3065560    -0.1212920
  C        3.2132980     0.7871720     0.0273270
  H       -1.4208040    -0.0402330     1.4151950
  H       -0.1609320    -0.3839550    -1.3725900
  H        2.2351040    -0.6390970    -1.2733090
  H        2.8261900    -1.3231820     0.2368400
  H        0.9367840    -0.1585690     1.4880300
  H       -1.4764410     2.1380570     0.1977940
  H       -2.2008650     1.3268630    -1.2105240
  H       -3.1068830     1.4512670     0.3117270
  H        3.3300870     0.9922950     1.0954650
  H        2.7636150     1.6688370    -0.4368240
  H        4.2103780     0.6456890    -0.3991480
  H       -3.2411570    -0.9446250     0.2124840
units angstrom
no_reorient  #important for SAPT in psi4, default
symmetry c1  #important for SAPT in psi4, default
}

set PROPERTIES_ORIGIN ["COM"]
properties('MP2/aug-cc-pvtz', properties = ['dipole'])
--------------------------------------------------------------------------

    Molecular point group: c1
  Charge       = 0
  Multiplicity = 1
  Basis Set: AUG-CC-PVTZ
    Blend: AUG-CC-PVTZ
  Basis Set: (AUG-CC-PVTZ AUX)
    Blend: AUG-CC-PVTZ-JKFIT

    Orbital Energies [Eh]
    ---------------------

    Doubly Occupied:

       1A    -20.556664     2A    -11.270962     3A    -11.246772
       4A    -11.234159     5A    -11.231666     6A    -11.222170
       7A    -11.218091     8A     -1.361385     9A     -1.100794
      10A     -1.052655    11A     -0.960707    12A     -0.896409
      13A     -0.810429    14A     -0.748785    15A     -0.687045
      16A     -0.645253    17A     -0.631914    18A     -0.604405
      19A     -0.580707    20A     -0.551744    21A     -0.540840
      22A     -0.522380    23A     -0.511656    24A     -0.499282
      25A     -0.492135    26A     -0.468618    27A     -0.441567
      28A     -0.320633

  @DF-RHF Final Energy:  -309.08160928899815

   => Energetics <=

    Nuclear Repulsion Energy =            300.4385798727620909
    One-Electron Energy =               -1014.2207248318788970
    Two-Electron Energy =                 404.7005356701185974
    Total Energy =                       -309.0816092889981519
  Basis Set: (AUG-CC-PVTZ AUX)
    Blend: AUG-CC-PVTZ-RI
    Molecular point group: c1

    Geometry (in Angstrom), charge = 0, multiplicity = 1:

       Center              X                  Y                   Z               Mass
    ------------   -----------------  -----------------  -----------------  -----------------
         O           -2.319342929172    -1.118890549279    -0.129897757331    15.994914619570
         C           -1.494082929172    -0.029832549279     0.308016242669    12.000000000000
         C           -0.328813029172    -0.226238449279    -0.218232057331    12.000000000000
         C            2.356489070828    -0.448064549279    -0.209479757331    12.000000000000
         C            0.995605070828    -0.284794549279     0.393875242669    12.000000000000
         C           -2.088708929172     1.302915450721    -0.131046757331    12.000000000000
         C            3.234898070828     0.783531450721     0.017572242669    12.000000000000
         H           -1.399203929172    -0.043873549279     1.405440242669     1.007825032230
         H           -0.139331929172    -0.387595549279    -1.382344757331     1.007825032230
         H            2.256704070828    -0.642737549279    -1.283063757331     1.007825032230
         H            2.847790070828    -1.326822549279     0.227085242669     1.007825032230
         H            0.958384070828    -0.162209549279     1.478275242669     1.007825032230
         H           -1.454840929172     2.134416450721     0.188039242669     1.007825032230
         H           -2.179264929172     1.323222450721    -1.220278757331     1.007825032230
         H           -3.085282929172     1.447626450721     0.301972242669     1.007825032230
         H            3.351687070828     0.988654450721     1.085710242669     1.007825032230
         H            2.785215070828     1.665196450721    -0.446578757331     1.007825032230
         H            4.231978070828     0.642048450721    -0.408902757331     1.007825032230
         H           -3.219556929172    -0.948265549279     0.202729242669     1.007825032230

  Basis Set: AUG-CC-PVTZ
    Blend: AUG-CC-PVTZ
  Basis Set: (AUG-CC-PVTZ AUX)
    Blend: AUG-CC-PVTZ-JKFIT
	 Reference Energy          =    -309.0816092889981519 [Eh]
	 Singles Energy            =      -0.0000000000000000 [Eh]
	 Same-Spin Energy          =      -0.3220939051753389 [Eh]
	 Opposite-Spin Energy      =      -1.1112107571054533 [Eh]
	 Correlation Energy        =      -1.4333046622807921 [Eh]
	 Total Energy              =    -310.5149139512789702 [Eh]

	 ================> DF-SCS-MP2 Energies <==================
	-----------------------------------------------------------
	 SCS Same-Spin Scale       =       0.3333333333333333 [-]
	 SCS Opposite-Spin Scale   =       1.2000000000000000 [-]
	 SCS Same-Spin Energy      =      -0.1073646350584463 [Eh]
	 SCS Opposite-Spin Energy  =      -1.3334529085265439 [Eh]
	 SCS Correlation Energy    =      -1.4408175435849901 [Eh]
	 SCS Total Energy          =    -310.5224268325831645 [Eh]
	-----------------------------------------------------------

  Dipole Moment: [D]
     X:    -0.0157      Y:     1.4316      Z:     0.8365     Total:     1.6582

*** Psi4 exiting successfully. Buy a developer a beer!
