                               Psi4 1.3.2 release

  ==> Input File <==

--------------------------------------------------------------------------
#psi4
#
memory 32 gb

molecule  {
0 1
  O       -2.3249748    -1.1313413    -0.1095016
  C       -1.5156830    -0.0261920     0.3177710
  C       -0.1702520    -0.2529640    -0.2898400
  C        2.3348890    -0.4444240    -0.1997250
  C        0.9740050    -0.2811540     0.4036300
  C       -2.0899837     1.3191850    -0.1096786
  C        3.2132980     0.7871720     0.0273270
  H       -1.4208040    -0.0402330     1.4151950
  H       -0.1609320    -0.3839550    -1.3725900
  H        2.2351040    -0.6390970    -1.2733090
  H        2.8261900    -1.3231820     0.2368400
  H        0.9367840    -0.1585690     1.4880300
  H       -1.4764410     2.1380570     0.1977940
  H       -2.2008650     1.3268630    -1.2105240
  H       -3.1068830     1.4512670     0.3117270
  H        3.3300870     0.9922950     1.0954650
  H        2.7636150     1.6688370    -0.4368240
  H        4.2103780     0.6456890    -0.3991480
  H       -3.2411570    -0.9446250     0.2124840
units angstrom
no_reorient  #important for SAPT in psi4, default
symmetry c1  #important for SAPT in psi4, default
}

set PROPERTIES_ORIGIN ["COM"]
properties('MP2/aug-cc-pvtz', properties = ['dipole'])
--------------------------------------------------------------------------

    Molecular point group: c1
  Charge       = 0
  Multiplicity = 1
  Basis Set: AUG-CC-PVTZ
    Blend: AUG-CC-PVTZ
  Basis Set: (AUG-CC-PVTZ AUX)
    Blend: AUG-CC-PVTZ-JKFIT

    Orbital Energies [Eh]
    ---------------------

    Doubly Occupied:

       1A    -20.558276     2A    -11.282712     3A    -11.226937
       4A    -11.224059     5A    -11.220580     6A    -11.220319
       7A    -11.214991     8A     -1.352220     9A     -1.089606
      10A     -1.033657    11A     -0.971181    12A     -0.875323
      13A     -0.809578    14A     -0.754731    15A     -0.678850
      16A     -0.633364    17A     -0.626434    18A     -0.598770
      19A     -0.589043    20A     -0.542342    21A     -0.536387
      22A     -0.531324    23A     -0.517697    24A     -0.504159
      25A     -0.481635    26A     -0.461581    27A     -0.443856
      28A     -0.349156

  @DF-RHF Final Energy:  -309.14711479931418

   => Energetics <=

    Nuclear Repulsion Energy =            299.1866985054304564
    One-Electron Energy =               -1012.0100930688843164
    Two-Electron Energy =                 403.6762797641396219
    Total Energy =                       -309.1471147993141813
  Basis Set: (AUG-CC-PVTZ AUX)
    Blend: AUG-CC-PVTZ-RI
    Molecular point group: c1

    Geometry (in Angstrom), charge = 0, multiplicity = 1:

       Center              X                  Y                   Z               Mass
    ------------   -----------------  -----------------  -----------------  -----------------
         O           -2.329963582236    -1.130283780174    -0.112594440957    15.994914619570
         C           -1.520671782236    -0.025134480174     0.314678159043    12.000000000000
         C           -0.175240782236    -0.251906480174    -0.292932840957    12.000000000000
         C            2.329900217764    -0.443366480174    -0.202817840957    12.000000000000
         C            0.969016217764    -0.280096480174     0.400537159043    12.000000000000
         C           -2.094972482236     1.320242519826    -0.112771440957    12.000000000000
         C            3.208309217764     0.788229519826     0.024234159043    12.000000000000
         H           -1.425792782236    -0.039175480174     1.412102159043     1.007825032230
         H           -0.165920782236    -0.382897480174    -1.375682840957     1.007825032230
         H            2.230115217764    -0.638039480174    -1.276401840957     1.007825032230
         H            2.821201217764    -1.322124480174     0.233747159043     1.007825032230
         H            0.931795217764    -0.157511480174     1.484937159043     1.007825032230
         H           -1.481429782236     2.139114519826     0.194701159043     1.007825032230
         H           -2.205853782236     1.327920519826    -1.213616840957     1.007825032230
         H           -3.111871782236     1.452324519826     0.308634159043     1.007825032230
         H            3.325098217764     0.993352519826     1.092372159043     1.007825032230
         H            2.758626217764     1.669894519826    -0.439916840957     1.007825032230
         H            4.205389217764     0.646746519826    -0.402240840957     1.007825032230
         H           -3.246145782236    -0.943567480174     0.209391159043     1.007825032230

  Basis Set: AUG-CC-PVTZ
    Blend: AUG-CC-PVTZ
  Basis Set: (AUG-CC-PVTZ AUX)
    Blend: AUG-CC-PVTZ-JKFIT
	 Reference Energy          =    -309.1471147993141813 [Eh]
	 Singles Energy            =      -0.0000000000000000 [Eh]
	 Same-Spin Energy          =      -0.3167873918977501 [Eh]
	 Opposite-Spin Energy      =      -1.1030018599381919 [Eh]
	 Correlation Energy        =      -1.4197892518359421 [Eh]
	 Total Energy              =    -310.5669040511501180 [Eh]

	 ================> DF-SCS-MP2 Energies <==================
	-----------------------------------------------------------
	 SCS Same-Spin Scale       =       0.3333333333333333 [-]
	 SCS Opposite-Spin Scale   =       1.2000000000000000 [-]
	 SCS Same-Spin Energy      =      -0.1055957972992500 [Eh]
	 SCS Opposite-Spin Energy  =      -1.3236022319258303 [Eh]
	 SCS Correlation Energy    =      -1.4291980292250803 [Eh]
	 SCS Total Energy          =    -310.5763128285392440 [Eh]
	-----------------------------------------------------------

  Dipole Moment: [D]
     X:    -0.1384      Y:     1.4146      Z:     0.7855     Total:     1.6240

*** Psi4 exiting successfully. Buy a developer a beer!
