                               Psi4 1.3.2 release

  ==> Input File <==

--------------------------------------------------------------------------
#psi4
#
memory 32 gb

molecule  {
0 1
  O       -2.2819084    -1.1421699    -0.1580040
  C       -1.5156830    -0.0261920     0.3177710
  C       -0.1984747    -0.3178740    -0.3230761
  C        2.3348890    -0.4444240    -0.1997250
  C        0.9740050    -0.2811540     0.4036300
  C       -2.1103090     1.3065560    -0.1212920
  C        3.2132980     0.7871720     0.0273270
  H       -1.4208040    -0.0402330     1.4151950
  H       -0.1609320    -0.3839550    -1.3725900
  H        2.2351040    -0.6390970    -1.2733090
  H        2.8261900    -1.3231820     0.2368400
  H        0.9367840    -0.1585690     1.4880300
  H       -1.4764410     2.1380570     0.1977940
  H       -2.2008650     1.3268630    -1.2105240
  H       -3.1068830     1.4512670     0.3117270
  H        3.3300870     0.9922950     1.0954650
  H        2.7636150     1.6688370    -0.4368240
  H        4.2103780     0.6456890    -0.3991480
  H       -3.2411570    -0.9446250     0.2124840
units angstrom
no_reorient  #important for SAPT in psi4, default
symmetry c1  #important for SAPT in psi4, default
}

set PROPERTIES_ORIGIN ["COM"]
properties('MP2/aug-cc-pvtz', properties = ['dipole'])
--------------------------------------------------------------------------

    Molecular point group: c1
  Charge       = 0
  Multiplicity = 1
  Basis Set: AUG-CC-PVTZ
    Blend: AUG-CC-PVTZ
  Basis Set: (AUG-CC-PVTZ AUX)
    Blend: AUG-CC-PVTZ-JKFIT

    Orbital Energies [Eh]
    ---------------------

    Doubly Occupied:

       1A    -20.562991     2A    -11.282198     3A    -11.231548
       4A    -11.223093     5A    -11.221733     6A    -11.221219
       7A    -11.214539     8A     -1.344488     9A     -1.082641
      10A     -1.030605    11A     -0.967701    12A     -0.874872
      13A     -0.802845    14A     -0.761594    15A     -0.673665
      16A     -0.629322    17A     -0.617258    18A     -0.596311
      19A     -0.590112    20A     -0.544122    21A     -0.539539
      22A     -0.531513    23A     -0.514182    24A     -0.503754
      25A     -0.481061    26A     -0.462913    27A     -0.444124
      28A     -0.338574

  @DF-RHF Final Energy:  -309.13113670576081

   => Energetics <=

    Nuclear Repulsion Energy =            298.8579745603158244
    One-Electron Energy =               -1011.4011910660652802
    Two-Electron Energy =                 403.4120797999886463
    Total Energy =                       -309.1311367057608095
  Basis Set: (AUG-CC-PVTZ AUX)
    Blend: AUG-CC-PVTZ-RI
    Molecular point group: c1

    Geometry (in Angstrom), charge = 0, multiplicity = 1:

       Center              X                  Y                   Z               Mass
    ------------   -----------------  -----------------  -----------------  -----------------
         O           -2.287958913170    -1.130085468402    -0.147968643298    15.994914619570
         C           -1.521733513170    -0.014107568402     0.327806356702    12.000000000000
         C           -0.204525213170    -0.305789568402    -0.313040743298    12.000000000000
         C            2.328838486830    -0.432339568402    -0.189689643298    12.000000000000
         C            0.967954486830    -0.269069568402     0.413665356702    12.000000000000
         C           -2.116359513170     1.318640431598    -0.111256643298    12.000000000000
         C            3.207247486830     0.799256431598     0.037362356702    12.000000000000
         H           -1.426854513170    -0.028148568402     1.425230356702     1.007825032230
         H           -0.166982513170    -0.371870568402    -1.362554643298     1.007825032230
         H            2.229053486830    -0.627012568402    -1.263273643298     1.007825032230
         H            2.820139486830    -1.311097568402     0.246875356702     1.007825032230
         H            0.930733486830    -0.146484568402     1.498065356702     1.007825032230
         H           -1.482491513170     2.150141431598     0.207829356702     1.007825032230
         H           -2.206915513170     1.338947431598    -1.200488643298     1.007825032230
         H           -3.112933513170     1.463351431598     0.321762356702     1.007825032230
         H            3.324036486830     1.004379431598     1.105500356702     1.007825032230
         H            2.757564486830     1.680921431598    -0.426788643298     1.007825032230
         H            4.204327486830     0.657773431598    -0.389112643298     1.007825032230
         H           -3.247207513170    -0.932540568402     0.222519356702     1.007825032230

  Basis Set: AUG-CC-PVTZ
    Blend: AUG-CC-PVTZ
  Basis Set: (AUG-CC-PVTZ AUX)
    Blend: AUG-CC-PVTZ-JKFIT
	 Reference Energy          =    -309.1311367057608095 [Eh]
	 Singles Energy            =      -0.0000000000000000 [Eh]
	 Same-Spin Energy          =      -0.3183202840235969 [Eh]
	 Opposite-Spin Energy      =      -1.1069120863490243 [Eh]
	 Correlation Energy        =      -1.4252323703726213 [Eh]
	 Total Energy              =    -310.5563690761334215 [Eh]

	 ================> DF-SCS-MP2 Energies <==================
	-----------------------------------------------------------
	 SCS Same-Spin Scale       =       0.3333333333333333 [-]
	 SCS Opposite-Spin Scale   =       1.2000000000000000 [-]
	 SCS Same-Spin Energy      =      -0.1061067613411990 [Eh]
	 SCS Opposite-Spin Energy  =      -1.3282945036188292 [Eh]
	 SCS Correlation Energy    =      -1.4344012649600282 [Eh]
	 SCS Total Energy          =    -310.5655379707208112 [Eh]
	-----------------------------------------------------------

  Dipole Moment: [D]
     X:    -0.2063      Y:     1.4784      Z:     0.8358     Total:     1.7108

*** Psi4 exiting successfully. Buy a developer a beer!
