                               Psi4 1.3.2 release

  ==> Input File <==

--------------------------------------------------------------------------
#psi4
#
memory 32 gb

molecule  {
0 1
  O       -2.3409430    -1.1152500    -0.1201430
  C       -1.5156830    -0.0261920     0.3177710
  C       -0.1702520    -0.2529640    -0.2898400
  C        2.3348890    -0.4444240    -0.1997250
  C        0.9740050    -0.2811540     0.4036300
  C       -2.1103090     1.3065560    -0.1212920
  C        3.2132980     0.7871720     0.0273270
  H       -1.4380296    -0.0376838     1.2159545
  H       -0.1609320    -0.3839550    -1.3725900
  H        2.2351040    -0.6390970    -1.2733090
  H        2.8261900    -1.3231820     0.2368400
  H        0.9367840    -0.1585690     1.4880300
  H       -1.4764410     2.1380570     0.1977940
  H       -2.2008650     1.3268630    -1.2105240
  H       -3.1068830     1.4512670     0.3117270
  H        3.3300870     0.9922950     1.0954650
  H        2.7636150     1.6688370    -0.4368240
  H        4.2103780     0.6456890    -0.3991480
  H       -3.2411570    -0.9446250     0.2124840
units angstrom
no_reorient  #important for SAPT in psi4, default
symmetry c1  #important for SAPT in psi4, default
}

set PROPERTIES_ORIGIN ["COM"]
properties('MP2/aug-cc-pvtz', properties = ['dipole'])
--------------------------------------------------------------------------

    Molecular point group: c1
  Charge       = 0
  Multiplicity = 1
  Basis Set: AUG-CC-PVTZ
    Blend: AUG-CC-PVTZ
  Basis Set: (AUG-CC-PVTZ AUX)
    Blend: AUG-CC-PVTZ-JKFIT

    Orbital Energies [Eh]
    ---------------------

    Doubly Occupied:

       1A    -20.552511     2A    -11.257281     3A    -11.227438
       4A    -11.224420     5A    -11.219913     6A    -11.217827
       7A    -11.215161     8A     -1.353209     9A     -1.092548
      10A     -1.039659    11A     -0.971527    12A     -0.881632
      13A     -0.824804    14A     -0.768970    15A     -0.691599
      16A     -0.632844    17A     -0.624613    18A     -0.597902
      19A     -0.591882    20A     -0.543526    21A     -0.539371
      22A     -0.531050    23A     -0.517394    24A     -0.506257
      25A     -0.481995    26A     -0.463620    27A     -0.450757
      28A     -0.349712

  @DF-RHF Final Energy:  -309.11861649870366

   => Energetics <=

    Nuclear Repulsion Energy =            300.3141937332364364
    One-Electron Energy =               -1014.1267789431044548
    Two-Electron Energy =                 404.6939687111644162
    Total Energy =                       -309.1186164987036591
  Basis Set: (AUG-CC-PVTZ AUX)
    Blend: AUG-CC-PVTZ-RI
    Molecular point group: c1

    Geometry (in Angstrom), charge = 0, multiplicity = 1:

       Center              X                  Y                   Z               Mass
    ------------   -----------------  -----------------  -----------------  -----------------
         O           -2.340769627140    -1.115275519444    -0.118136683296    15.994914619570
         C           -1.515509627140    -0.026217519444     0.319777316704    12.000000000000
         C           -0.170078627140    -0.252989519444    -0.287833683296    12.000000000000
         C            2.335062372860    -0.444449519444    -0.197718683296    12.000000000000
         C            0.974178372860    -0.281179519444     0.405636316704    12.000000000000
         C           -2.110135627140     1.306530480556    -0.119285683296    12.000000000000
         C            3.213471372860     0.787146480556     0.029333316704    12.000000000000
         H           -1.437856227140    -0.037709319444     1.217960816704     1.007825032230
         H           -0.160758627140    -0.383980519444    -1.370583683296     1.007825032230
         H            2.235277372860    -0.639122519444    -1.271302683296     1.007825032230
         H            2.826363372860    -1.323207519444     0.238846316704     1.007825032230
         H            0.936957372860    -0.158594519444     1.490036316704     1.007825032230
         H           -1.476267627140     2.138031480556     0.199800316704     1.007825032230
         H           -2.200691627140     1.326837480556    -1.208517683296     1.007825032230
         H           -3.106709627140     1.451241480556     0.313733316704     1.007825032230
         H            3.330260372860     0.992269480556     1.097471316704     1.007825032230
         H            2.763788372860     1.668811480556    -0.434817683296     1.007825032230
         H            4.210551372860     0.645663480556    -0.397141683296     1.007825032230
         H           -3.240983627140    -0.944650519444     0.214490316704     1.007825032230

  Basis Set: AUG-CC-PVTZ
    Blend: AUG-CC-PVTZ
  Basis Set: (AUG-CC-PVTZ AUX)
    Blend: AUG-CC-PVTZ-JKFIT
	 Reference Energy          =    -309.1186164987036591 [Eh]
	 Singles Energy            =      -0.0000000000000000 [Eh]
	 Same-Spin Energy          =      -0.3162880208295474 [Eh]
	 Opposite-Spin Energy      =      -1.1012993924899890 [Eh]
	 Correlation Energy        =      -1.4175874133195365 [Eh]
	 Total Energy              =    -310.5362039120232112 [Eh]

	 ================> DF-SCS-MP2 Energies <==================
	-----------------------------------------------------------
	 SCS Same-Spin Scale       =       0.3333333333333333 [-]
	 SCS Opposite-Spin Scale   =       1.2000000000000000 [-]
	 SCS Same-Spin Energy      =      -0.1054293402765158 [Eh]
	 SCS Opposite-Spin Energy  =      -1.3215592709879866 [Eh]
	 SCS Correlation Energy    =      -1.4269886112645025 [Eh]
	 SCS Total Energy          =    -310.5456051099681645 [Eh]
	-----------------------------------------------------------

  Dipole Moment: [D]
     X:    -0.0692      Y:     1.4072      Z:     0.9263     Total:     1.6861

*** Psi4 exiting successfully. Buy a developer a beer!
