                               Psi4 1.3.2 release

  ==> Input File <==

--------------------------------------------------------------------------
#psi4
#
memory 32 gb

molecule  {
0 1
  O       -2.3409430    -1.1152500    -0.1201430
  C       -1.5156830    -0.0261920     0.3177710
  C       -0.1702520    -0.2529640    -0.2898400
  C        2.3652691    -0.4386103    -0.1276810
  C        0.9740050    -0.2811540     0.4036300
  C       -2.1103090     1.3065560    -0.1212920
  C        3.2132980     0.7871720     0.0273270
  H       -1.4208040    -0.0402330     1.4151950
  H       -0.1609320    -0.3839550    -1.3725900
  H        2.2351040    -0.6390970    -1.2733090
  H        2.8261900    -1.3231820     0.2368400
  H        0.9938080    -0.1625148     1.4889265
  H       -1.4764410     2.1380570     0.1977940
  H       -2.2008650     1.3268630    -1.2105240
  H       -3.1068830     1.4512670     0.3117270
  H        3.3300870     0.9922950     1.0954650
  H        2.7636150     1.6688370    -0.4368240
  H        4.2103780     0.6456890    -0.3991480
  H       -3.2411570    -0.9446250     0.2124840
units angstrom
no_reorient  #important for SAPT in psi4, default
symmetry c1  #important for SAPT in psi4, default
}

set PROPERTIES_ORIGIN ["COM"]
properties('MP2/aug-cc-pvtz', properties = ['dipole'])
--------------------------------------------------------------------------

    Molecular point group: c1
  Charge       = 0
  Multiplicity = 1
  Basis Set: AUG-CC-PVTZ
    Blend: AUG-CC-PVTZ
  Basis Set: (AUG-CC-PVTZ AUX)
    Blend: AUG-CC-PVTZ-JKFIT

    Orbital Energies [Eh]
    ---------------------

    Doubly Occupied:

       1A    -20.555741     2A    -11.283600     3A    -11.228709
       4A    -11.225747     5A    -11.223637     6A    -11.219730
       7A    -11.214704     8A     -1.354546     9A     -1.091018
      10A     -1.036908    11A     -0.973301    12A     -0.877270
      13A     -0.810137    14A     -0.753513    15A     -0.682173
      16A     -0.636039    17A     -0.625154    18A     -0.602818
      19A     -0.586180    20A     -0.545707    21A     -0.539792
      22A     -0.538058    23A     -0.523866    24A     -0.503561
      25A     -0.467588    26A     -0.453631    27A     -0.443710
      28A     -0.352795

  @DF-RHF Final Energy:  -309.14161217413721

   => Energetics <=

    Nuclear Repulsion Energy =            299.2199411353001892
    One-Electron Energy =               -1012.0238430826389049
    Two-Electron Energy =                 403.6622897732015645
    Total Energy =                       -309.1416121741372081
  Basis Set: (AUG-CC-PVTZ AUX)
    Blend: AUG-CC-PVTZ-RI
    Molecular point group: c1

    Geometry (in Angstrom), charge = 0, multiplicity = 1:

       Center              X                  Y                   Z               Mass
    ------------   -----------------  -----------------  -----------------  -----------------
         O           -2.345159646199    -1.115907144231    -0.128789532752    15.994914619570
         C           -1.519899646199    -0.026849144231     0.309124467248    12.000000000000
         C           -0.174468646199    -0.253621144231    -0.298486532752    12.000000000000
         C            2.361052453801    -0.439267444231    -0.136327532752    12.000000000000
         C            0.969788353801    -0.281811144231     0.394983467248    12.000000000000
         C           -2.114525646199     1.305898855769    -0.129938532752    12.000000000000
         C            3.209081353801     0.786514855769     0.018680467248    12.000000000000
         H           -1.425020646199    -0.040890144231     1.406548467248     1.007825032230
         H           -0.165148646199    -0.384612144231    -1.381236532752     1.007825032230
         H            2.230887353801    -0.639754144231    -1.281955532752     1.007825032230
         H            2.821973353801    -1.323839144231     0.228193467248     1.007825032230
         H            0.989591353801    -0.163171944231     1.480279967248     1.007825032230
         H           -1.480657646199     2.137399855769     0.189147467248     1.007825032230
         H           -2.205081646199     1.326205855769    -1.219170532752     1.007825032230
         H           -3.111099646199     1.450609855769     0.303080467248     1.007825032230
         H            3.325870353801     0.991637855769     1.086818467248     1.007825032230
         H            2.759398353801     1.668179855769    -0.445470532752     1.007825032230
         H            4.206161353801     0.645031855769    -0.407794532752     1.007825032230
         H           -3.245373646199    -0.945282144231     0.203837467248     1.007825032230

  Basis Set: AUG-CC-PVTZ
    Blend: AUG-CC-PVTZ
  Basis Set: (AUG-CC-PVTZ AUX)
    Blend: AUG-CC-PVTZ-JKFIT
	 Reference Energy          =    -309.1416121741372081 [Eh]
	 Singles Energy            =      -0.0000000000000000 [Eh]
	 Same-Spin Energy          =      -0.3168054538284697 [Eh]
	 Opposite-Spin Energy      =      -1.1030479775777109 [Eh]
	 Correlation Energy        =      -1.4198534314061806 [Eh]
	 Total Energy              =    -310.5614656055433898 [Eh]

	 ================> DF-SCS-MP2 Energies <==================
	-----------------------------------------------------------
	 SCS Same-Spin Scale       =       0.3333333333333333 [-]
	 SCS Opposite-Spin Scale   =       1.2000000000000000 [-]
	 SCS Same-Spin Energy      =      -0.1056018179428232 [Eh]
	 SCS Opposite-Spin Energy  =      -1.3236575730932529 [Eh]
	 SCS Correlation Energy    =      -1.4292593910360762 [Eh]
	 SCS Total Energy          =    -310.5708715651732632 [Eh]
	-----------------------------------------------------------

  Dipole Moment: [D]
     X:    -0.1035      Y:     1.3933      Z:     0.8592     Total:     1.6402

*** Psi4 exiting successfully. Buy a developer a beer!
