                               Psi4 1.3.2 release

  ==> Input File <==

--------------------------------------------------------------------------
#psi4
#
memory 32 gb

molecule  {
0 1
  O       -2.3409430    -1.1152500    -0.1201430
  C       -1.5156830    -0.0261920     0.3177710
  C       -0.1702520    -0.2529640    -0.2898400
  C        2.3348890    -0.4444240    -0.1997250
  C        0.9740050    -0.2811540     0.4036300
  C       -2.1103090     1.3065560    -0.1212920
  C        3.2132980     0.7871720     0.0273270
  H       -1.4208040    -0.0402330     1.4151950
  H       -0.1609320    -0.3839550    -1.3725900
  H        2.2351040    -0.6390970    -1.2733090
  H        2.8261900    -1.3231820     0.2368400
  H        0.9367840    -0.1585690     1.4880300
  H       -1.4764410     2.1380570     0.1977940
  H       -2.2008650     1.3268630    -1.2105240
  H       -3.1068830     1.4512670     0.3117270
  H        3.3300870     0.9922950     1.0954650
  H        2.7636150     1.6688370    -0.4368240
  H        4.2103780     0.6456890    -0.3991480
  H       -3.4258635    -0.9096160     0.2807326
units angstrom
no_reorient  #important for SAPT in psi4, default
symmetry c1  #important for SAPT in psi4, default
}

set PROPERTIES_ORIGIN ["COM"]
properties('MP2/aug-cc-pvtz', properties = ['dipole'])
--------------------------------------------------------------------------

    Molecular point group: c1
  Charge       = 0
  Multiplicity = 1
  Basis Set: AUG-CC-PVTZ
    Blend: AUG-CC-PVTZ
  Basis Set: (AUG-CC-PVTZ AUX)
    Blend: AUG-CC-PVTZ-JKFIT

    Orbital Energies [Eh]
    ---------------------

    Doubly Occupied:

       1A    -20.570864     2A    -11.281369     3A    -11.227998
       4A    -11.224534     5A    -11.221076     6A    -11.218095
       7A    -11.215245     8A     -1.323638     9A     -1.088000
      10A     -1.028778    11A     -0.970313    12A     -0.872146
      13A     -0.803555    14A     -0.754397    15A     -0.661479
      16A     -0.629893    17A     -0.606906    18A     -0.597445
      19A     -0.588198    20A     -0.539608    21A     -0.538468
      22A     -0.528509    23A     -0.515634    24A     -0.497299
      25A     -0.481686    26A     -0.458136    27A     -0.440361
      28A     -0.349518

  @DF-RHF Final Energy:  -309.11349616675687

   => Energetics <=

    Nuclear Repulsion Energy =            298.1770192212813981
    One-Electron Energy =               -1010.1147355783014063
    Two-Electron Energy =                 402.8242201902631336
    Total Energy =                       -309.1134961667568746
  Basis Set: (AUG-CC-PVTZ AUX)
    Blend: AUG-CC-PVTZ-RI
    Molecular point group: c1

    Geometry (in Angstrom), charge = 0, multiplicity = 1:

       Center              X                  Y                   Z               Mass
    ------------   -----------------  -----------------  -----------------  -----------------
         O           -2.339083210496    -1.115602367144    -0.120830113234    15.994914619570
         C           -1.513823210496    -0.026544367144     0.317083886766    12.000000000000
         C           -0.168392210496    -0.253316367144    -0.290527113234    12.000000000000
         C            2.336748789504    -0.444776367144    -0.200412113234    12.000000000000
         C            0.975864789504    -0.281506367144     0.402942886766    12.000000000000
         C           -2.108449210496     1.306203632856    -0.121979113234    12.000000000000
         C            3.215157789504     0.786819632856     0.026639886766    12.000000000000
         H           -1.418944210496    -0.040585367144     1.414507886766     1.007825032230
         H           -0.159072210496    -0.384307367144    -1.373277113234     1.007825032230
         H            2.236963789504    -0.639449367144    -1.273996113234     1.007825032230
         H            2.828049789504    -1.323534367144     0.236152886766     1.007825032230
         H            0.938643789504    -0.158921367144     1.487342886766     1.007825032230
         H           -1.474581210496     2.137704632856     0.197106886766     1.007825032230
         H           -2.199005210496     1.326510632856    -1.211211113234     1.007825032230
         H           -3.105023210496     1.450914632856     0.311039886766     1.007825032230
         H            3.331946789504     0.991942632856     1.094777886766     1.007825032230
         H            2.765474789504     1.668484632856    -0.437511113234     1.007825032230
         H            4.212237789504     0.645336632856    -0.399835113234     1.007825032230
         H           -3.424003710496    -0.909968367144     0.280045486766     1.007825032230

  Basis Set: AUG-CC-PVTZ
    Blend: AUG-CC-PVTZ
  Basis Set: (AUG-CC-PVTZ AUX)
    Blend: AUG-CC-PVTZ-JKFIT
	 Reference Energy          =    -309.1134961667568746 [Eh]
	 Singles Energy            =      -0.0000000000000000 [Eh]
	 Same-Spin Energy          =      -0.3187818195466731 [Eh]
	 Opposite-Spin Energy      =      -1.1092375110363037 [Eh]
	 Correlation Energy        =      -1.4280193305829769 [Eh]
	 Total Energy              =    -310.5415154973398444 [Eh]

	 ================> DF-SCS-MP2 Energies <==================
	-----------------------------------------------------------
	 SCS Same-Spin Scale       =       0.3333333333333333 [-]
	 SCS Opposite-Spin Scale   =       1.2000000000000000 [-]
	 SCS Same-Spin Energy      =      -0.1062606065155577 [Eh]
	 SCS Opposite-Spin Energy  =      -1.3310850132435645 [Eh]
	 SCS Correlation Energy    =      -1.4373456197591223 [Eh]
	 SCS Total Energy          =    -310.5508417865160027 [Eh]
	-----------------------------------------------------------

  Dipole Moment: [D]
     X:    -0.1640      Y:     1.3739      Z:     0.8469     Total:     1.6222

*** Psi4 exiting successfully. Buy a developer a beer!
