                               Psi4 1.3.2 release

  ==> Input File <==

--------------------------------------------------------------------------
#psi4
#
memory 32 gb

molecule  {
0 1
  O       -2.3409430    -1.1152500    -0.1201430
  C       -1.5156830    -0.0261920     0.3177710
  C       -0.2603325    -0.2377810    -0.2491587
  C        2.3348890    -0.4444240    -0.1997250
  C        0.9740050    -0.2811540     0.4036300
  C       -2.1103090     1.3065560    -0.1212920
  C        3.2132980     0.7871720     0.0273270
  H       -1.4208040    -0.0402330     1.4151950
  H       -0.1609320    -0.3839550    -1.3725900
  H        2.2351040    -0.6390970    -1.2733090
  H        2.8261900    -1.3231820     0.2368400
  H        0.9367840    -0.1585690     1.4880300
  H       -1.4764410     2.1380570     0.1977940
  H       -2.2008650     1.3268630    -1.2105240
  H       -3.1068830     1.4512670     0.3117270
  H        3.3300870     0.9922950     1.0954650
  H        2.7636150     1.6688370    -0.4368240
  H        4.2103780     0.6456890    -0.3991480
  H       -3.2411570    -0.9446250     0.2124840
units angstrom
no_reorient  #important for SAPT in psi4, default
symmetry c1  #important for SAPT in psi4, default
}

set PROPERTIES_ORIGIN ["COM"]
properties('MP2/aug-cc-pvtz', properties = ['dipole'])
--------------------------------------------------------------------------

    Molecular point group: c1
  Charge       = 0
  Multiplicity = 1
  Basis Set: AUG-CC-PVTZ
    Blend: AUG-CC-PVTZ
  Basis Set: (AUG-CC-PVTZ AUX)
    Blend: AUG-CC-PVTZ-JKFIT

    Orbital Energies [Eh]
    ---------------------

    Doubly Occupied:

       1A    -20.555875     2A    -11.277733     3A    -11.237072
       4A    -11.228065     5A    -11.227427     6A    -11.220394
       7A    -11.216693     8A     -1.357170     9A     -1.090789
      10A     -1.043717    11A     -0.965572    12A     -0.886217
      13A     -0.811086    14A     -0.751263    15A     -0.683914
      16A     -0.639355    17A     -0.627245    18A     -0.601507
      19A     -0.584472    20A     -0.546531    21A     -0.539146
      22A     -0.519895    23A     -0.517029    24A     -0.502003
      25A     -0.483428    26A     -0.475285    27A     -0.444586
      28A     -0.335492

  @DF-RHF Final Energy:  -309.13161127914157

   => Energetics <=

    Nuclear Repulsion Energy =            299.7232495255224762
    One-Electron Energy =               -1012.9718034573428440
    Two-Electron Energy =                 404.1169426526788584
    Total Energy =                       -309.1316112791415662
  Basis Set: (AUG-CC-PVTZ AUX)
    Blend: AUG-CC-PVTZ-RI
    Molecular point group: c1

    Geometry (in Angstrom), charge = 0, multiplicity = 1:

       Center              X                  Y                   Z               Mass
    ------------   -----------------  -----------------  -----------------  -----------------
         O           -2.330143009080    -1.117070194028    -0.125020321226    15.994914619570
         C           -1.504883009080    -0.028012194028     0.312893678774    12.000000000000
         C           -0.249532509080    -0.239601194028    -0.254036021226    12.000000000000
         C            2.345688990920    -0.446244194028    -0.204602321226    12.000000000000
         C            0.984804990920    -0.282974194028     0.398752678774    12.000000000000
         C           -2.099509009080     1.304735805972    -0.126169321226    12.000000000000
         C            3.224097990920     0.785351805972     0.022449678774    12.000000000000
         H           -1.410004009080    -0.042053194028     1.410317678774     1.007825032230
         H           -0.150132009080    -0.385775194028    -1.377467321226     1.007825032230
         H            2.245903990920    -0.640917194028    -1.278186321226     1.007825032230
         H            2.836989990920    -1.325002194028     0.231962678774     1.007825032230
         H            0.947583990920    -0.160389194028     1.483152678774     1.007825032230
         H           -1.465641009080     2.136236805972     0.192916678774     1.007825032230
         H           -2.190065009080     1.325042805972    -1.215401321226     1.007825032230
         H           -3.096083009080     1.449446805972     0.306849678774     1.007825032230
         H            3.340886990920     0.990474805972     1.090587678774     1.007825032230
         H            2.774414990920     1.667016805972    -0.441701321226     1.007825032230
         H            4.221177990920     0.643868805972    -0.404025321226     1.007825032230
         H           -3.230357009080    -0.946445194028     0.207606678774     1.007825032230

  Basis Set: AUG-CC-PVTZ
    Blend: AUG-CC-PVTZ
  Basis Set: (AUG-CC-PVTZ AUX)
    Blend: AUG-CC-PVTZ-JKFIT
	 Reference Energy          =    -309.1316112791415662 [Eh]
	 Singles Energy            =      -0.0000000000000000 [Eh]
	 Same-Spin Energy          =      -0.3186628917255946 [Eh]
	 Opposite-Spin Energy      =      -1.1057275393469537 [Eh]
	 Correlation Energy        =      -1.4243904310725481 [Eh]
	 Total Energy              =    -310.5560017102141046 [Eh]

	 ================> DF-SCS-MP2 Energies <==================
	-----------------------------------------------------------
	 SCS Same-Spin Scale       =       0.3333333333333333 [-]
	 SCS Opposite-Spin Scale   =       1.2000000000000000 [-]
	 SCS Same-Spin Energy      =      -0.1062209639085315 [Eh]
	 SCS Opposite-Spin Energy  =      -1.3268730472163444 [Eh]
	 SCS Correlation Energy    =      -1.4330940111248758 [Eh]
	 SCS Total Energy          =    -310.5647052902664313 [Eh]
	-----------------------------------------------------------

  Dipole Moment: [D]
     X:    -0.0523      Y:     1.4016      Z:     0.8229     Total:     1.6261

*** Psi4 exiting successfully. Buy a developer a beer!
