                               Psi4 1.4a3.dev225

  ==> Input File <==

--------------------------------------------------------------------------
#psi4
#
memory 32 gb

molecule  {
0 1
  O       -2.4334040    -1.0537050    -0.1031880
  C       -1.5720760    -0.0085858     0.3104657
  C       -0.2252920    -0.2882920    -0.2906650
  C        2.2718840    -0.5904540    -0.1973150
  C        0.9184280    -0.3582560     0.4039980
  C       -2.0985830     1.3582810    -0.1413790
  C        3.2072160     0.6032460     0.0168350
  H       -1.4627270     0.0051460     1.4138490
  H       -0.2231950    -0.4335060    -1.3719210
  H        2.1635620    -0.7923810    -1.2691220
  H        2.7222980    -1.4861610     0.2495370
  H        0.8868390    -0.2195170     1.4869310
  H       -1.4287050     2.1666040     0.1650490
  H       -2.1908800     1.3667930    -1.2308750
  H       -3.0873820     1.5512680     0.2912850
  H        3.3343300     0.8133780     1.0831920
  H        2.7976640     1.4999730    -0.4563300
  H        4.1964720     0.4112550    -0.4090930
  H       -3.3235000    -0.8374140     0.2263080
units angstrom
no_reorient  #important for SAPT in psi4, default
symmetry c1  #important for SAPT in psi4, default
}

set PROPERTIES_ORIGIN ["COM"]
properties('MP2/aug-cc-pvtz', properties = ['dipole'])
--------------------------------------------------------------------------

    Molecular point group: c1
  Charge       = 0
  Multiplicity = 1
  Basis Set: AUG-CC-PVTZ
    Blend: AUG-CC-PVTZ
  Basis Set: (AUG-CC-PVTZ AUX)
    Blend: AUG-CC-PVTZ-JKFIT

    Orbital Energies [Eh]
    ---------------------

    Doubly Occupied:

       1A    -20.557795     2A    -11.283639     3A    -11.227744
       4A    -11.224649     5A    -11.221202     6A    -11.219299
       7A    -11.215256     8A     -1.362233     9A     -1.088151
      10A     -1.031340    11A     -0.969630    12A     -0.875368
      13A     -0.810902    14A     -0.753943    15A     -0.684716
      16A     -0.634510    17A     -0.625978    18A     -0.598123
      19A     -0.589114    20A     -0.542405    21A     -0.539670
      22A     -0.531482    23A     -0.517440    24A     -0.503048
      25A     -0.481721    26A     -0.460348    27A     -0.441621
      28A     -0.348938

  @DF-RHF Final Energy:  -309.14936440435014

   => Energetics <=

    Nuclear Repulsion Energy =            298.9843130832315978
    One-Electron Energy =               -1011.5868259547536354
    Two-Electron Energy =                 403.4531484671719568
    Total Energy =                       -309.1493644043501376
  Basis Set: (AUG-CC-PVTZ AUX)
    Blend: AUG-CC-PVTZ-RI
    Molecular point group: c1

    Geometry (in Angstrom), charge = 0, multiplicity = 1:

       Center              X                  Y                   Z               Mass
    ------------   -----------------  -----------------  -----------------  -----------------
         O           -2.388603007990    -1.011886566779    -0.100720215206    15.994914619570
         C           -1.527275007990     0.033232633221     0.312933484794    12.000000000000
         C           -0.180491007990    -0.246473566779    -0.288197215206    12.000000000000
         C            2.316684992010    -0.548635566779    -0.194847215206    12.000000000000
         C            0.963228992010    -0.316437566779     0.406465784794    12.000000000000
         C           -2.053782007990     1.400099433221    -0.138911215206    12.000000000000
         C            3.252016992010     0.645064433221     0.019302784794    12.000000000000
         H           -1.417926007990     0.046964433221     1.416316784794     1.007825032230
         H           -0.178394007990    -0.391687566779    -1.369453215206     1.007825032230
         H            2.208362992010    -0.750562566779    -1.266654215206     1.007825032230
         H            2.767098992010    -1.444342566779     0.252004784794     1.007825032230
         H            0.931639992010    -0.177698566779     1.489398784794     1.007825032230
         H           -1.383904007990     2.208422433221     0.167516784794     1.007825032230
         H           -2.146079007990     1.408611433221    -1.228407215206     1.007825032230
         H           -3.042581007990     1.593086433221     0.293752784794     1.007825032230
         H            3.379130992010     0.855196433221     1.085659784794     1.007825032230
         H            2.842464992010     1.541791433221    -0.453862215206     1.007825032230
         H            4.241272992010     0.453073433221    -0.406625215206     1.007825032230
         H           -3.278699007990    -0.795595566779     0.228775784794     1.007825032230

  Basis Set: AUG-CC-PVTZ
    Blend: AUG-CC-PVTZ
  Basis Set: (AUG-CC-PVTZ AUX)
    Blend: AUG-CC-PVTZ-JKFIT
	 Reference Energy          =    -309.1493644043501376 [Eh]
	 Singles Energy            =      -0.0000000000000000 [Eh]
	 Same-Spin Energy          =      -0.3163794244879797 [Eh]
	 Opposite-Spin Energy      =      -1.1020925565980946 [Eh]
	 Correlation Energy        =      -1.4184719810860742 [Eh]
	 Total Energy              =    -310.5678363854362374 [Eh]

	 ================> DF-SCS-MP2 Energies <==================
	-----------------------------------------------------------
	 SCS Same-Spin Scale       =       0.3333333333333333 [-]
	 SCS Opposite-Spin Scale   =       1.2000000000000000 [-]
	 SCS Same-Spin Energy      =      -0.1054598081626599 [Eh]
	 SCS Opposite-Spin Energy  =      -1.3225110679177134 [Eh]
	 SCS Correlation Energy    =      -1.4279708760803733 [Eh]
	 SCS Total Energy          =    -310.5773352804305318 [Eh]
	-----------------------------------------------------------

  Dipole Moment: [D]
     X:    -0.0911      Y:     1.3387      Z:     0.7759     Total:     1.5500

*** Psi4 exiting successfully. Buy a developer a beer!
