                               Psi4 1.3.2 release

  ==> Input File <==

--------------------------------------------------------------------------
#psi4
#
memory 32 gb

molecule  {
0 1
  O       -2.3409430    -1.1152500    -0.1201430
  C       -1.5156830    -0.0261920     0.3177710
  C       -0.1919979    -0.2493964    -0.3370869
  C        2.3348890    -0.4444240    -0.1997250
  C        0.9740050    -0.2811540     0.4036300
  C       -2.1103090     1.3065560    -0.1212920
  C        3.2132980     0.7871720     0.0273270
  H       -1.4586325    -0.0338817     1.4178731
  H       -0.1609320    -0.3839550    -1.3725900
  H        2.2351040    -0.6390970    -1.2733090
  H        2.8261900    -1.3231820     0.2368400
  H        0.9367840    -0.1585690     1.4880300
  H       -1.4764410     2.1380570     0.1977940
  H       -2.2008650     1.3268630    -1.2105240
  H       -3.1068830     1.4512670     0.3117270
  H        3.3300870     0.9922950     1.0954650
  H        2.7636150     1.6688370    -0.4368240
  H        4.2103780     0.6456890    -0.3991480
  H       -3.2411570    -0.9446250     0.2124840
units angstrom
no_reorient  #important for SAPT in psi4, default
symmetry c1  #important for SAPT in psi4, default
}

set PROPERTIES_ORIGIN ["COM"]
properties('MP2/aug-cc-pvtz', properties = ['dipole'])
--------------------------------------------------------------------------

    Molecular point group: c1
  Charge       = 0
  Multiplicity = 1
  Basis Set: AUG-CC-PVTZ
    Blend: AUG-CC-PVTZ
  Basis Set: (AUG-CC-PVTZ AUX)
    Blend: AUG-CC-PVTZ-JKFIT

    Orbital Energies [Eh]
    ---------------------

    Doubly Occupied:

       1A    -20.553984     2A    -11.282761     3A    -11.234172
       4A    -11.224266     5A    -11.223516     6A    -11.218198
       7A    -11.215116     8A     -1.353672     9A     -1.085244
      10A     -1.033672    11A     -0.966752    12A     -0.875668
      13A     -0.806928    14A     -0.763223    15A     -0.681875
      16A     -0.631811    17A     -0.624386    18A     -0.598354
      19A     -0.590648    20A     -0.542132    21A     -0.540560
      22A     -0.533773    23A     -0.515000    24A     -0.501711
      25A     -0.482060    26A     -0.466480    27A     -0.442404
      28A     -0.339845

  @DF-RHF Final Energy:  -309.14326026417024

   => Energetics <=

    Nuclear Repulsion Energy =            298.8206004945142240
    One-Electron Energy =               -1011.2713025612354159
    Two-Electron Energy =                 403.3074418025509544
    Total Energy =                       -309.1432602641702374
  Basis Set: (AUG-CC-PVTZ AUX)
    Blend: AUG-CC-PVTZ-RI
    Molecular point group: c1

    Geometry (in Angstrom), charge = 0, multiplicity = 1:

       Center              X                  Y                   Z               Mass
    ------------   -----------------  -----------------  -----------------  -----------------
         O           -2.337954977787    -1.115741536067    -0.114505266734    15.994914619570
         C           -1.512694977787    -0.026683536067     0.323408733266    12.000000000000
         C           -0.189009877787    -0.249887936067    -0.331449166734    12.000000000000
         C            2.337877022213    -0.444915536067    -0.194087266734    12.000000000000
         C            0.976993022213    -0.281645536067     0.409267733266    12.000000000000
         C           -2.107320977787     1.306064463933    -0.115654266734    12.000000000000
         C            3.216286022213     0.786680463933     0.032964733266    12.000000000000
         H           -1.455644477787    -0.034373236067     1.423510833266     1.007825032230
         H           -0.157943977787    -0.384446536067    -1.366952266734     1.007825032230
         H            2.238092022213    -0.639588536067    -1.267671266734     1.007825032230
         H            2.829178022213    -1.323673536067     0.242477733266     1.007825032230
         H            0.939772022213    -0.159060536067     1.493667733266     1.007825032230
         H           -1.473452977787     2.137565463933     0.203431733266     1.007825032230
         H           -2.197876977787     1.326371463933    -1.204886266734     1.007825032230
         H           -3.103894977787     1.450775463933     0.317364733266     1.007825032230
         H            3.333075022213     0.991803463933     1.101102733266     1.007825032230
         H            2.766603022213     1.668345463933    -0.431186266734     1.007825032230
         H            4.213366022213     0.645197463933    -0.393510266734     1.007825032230
         H           -3.238168977787    -0.945116536067     0.218121733266     1.007825032230

  Basis Set: AUG-CC-PVTZ
    Blend: AUG-CC-PVTZ
  Basis Set: (AUG-CC-PVTZ AUX)
    Blend: AUG-CC-PVTZ-JKFIT
	 Reference Energy          =    -309.1432602641702374 [Eh]
	 Singles Energy            =      -0.0000000000000000 [Eh]
	 Same-Spin Energy          =      -0.3169727133006849 [Eh]
	 Opposite-Spin Energy      =      -1.1035901016624536 [Eh]
	 Correlation Energy        =      -1.4205628149631386 [Eh]
	 Total Energy              =    -310.5638230791333854 [Eh]

	 ================> DF-SCS-MP2 Energies <==================
	-----------------------------------------------------------
	 SCS Same-Spin Scale       =       0.3333333333333333 [-]
	 SCS Opposite-Spin Scale   =       1.2000000000000000 [-]
	 SCS Same-Spin Energy      =      -0.1056575711002283 [Eh]
	 SCS Opposite-Spin Energy  =      -1.3243081219949444 [Eh]
	 SCS Correlation Energy    =      -1.4299656930951727 [Eh]
	 SCS Total Energy          =    -310.5732259572654357 [Eh]
	-----------------------------------------------------------

  Dipole Moment: [D]
     X:    -0.0850      Y:     1.3666      Z:     0.8103     Total:     1.5911

*** Psi4 exiting successfully. Buy a developer a beer!
