                               Psi4 1.3.2 release

  ==> Input File <==

--------------------------------------------------------------------------
#psi4
#
memory 32 gb

molecule  {
0 1
  O       -2.3344855    -1.0999872    -0.1674057
  C       -1.5156830    -0.0261920     0.3177710
  C       -0.1702520    -0.2529640    -0.2898400
  C        2.3348890    -0.4444240    -0.1997250
  C        0.9740050    -0.2811540     0.4036300
  C       -2.1103090     1.3065560    -0.1212920
  C        3.2132980     0.7871720     0.0273270
  H       -1.3985265    -0.0089698     1.4129953
  H       -0.1609320    -0.3839550    -1.3725900
  H        2.2351040    -0.6390970    -1.2733090
  H        2.8261900    -1.3231820     0.2368400
  H        0.9367840    -0.1585690     1.4880300
  H       -1.4764410     2.1380570     0.1977940
  H       -2.2008650     1.3268630    -1.2105240
  H       -3.1068830     1.4512670     0.3117270
  H        3.3300870     0.9922950     1.0954650
  H        2.7636150     1.6688370    -0.4368240
  H        4.2103780     0.6456890    -0.3991480
  H       -3.2411570    -0.9446250     0.2124840
units angstrom
no_reorient  #important for SAPT in psi4, default
symmetry c1  #important for SAPT in psi4, default
}

set PROPERTIES_ORIGIN ["COM"]
properties('MP2/aug-cc-pvtz', properties = ['dipole'])
--------------------------------------------------------------------------

    Molecular point group: c1
  Charge       = 0
  Multiplicity = 1
  Basis Set: AUG-CC-PVTZ
    Blend: AUG-CC-PVTZ
  Basis Set: (AUG-CC-PVTZ AUX)
    Blend: AUG-CC-PVTZ-JKFIT

    Orbital Energies [Eh]
    ---------------------

    Doubly Occupied:

       1A    -20.559455     2A    -11.282896     3A    -11.227096
       4A    -11.224175     5A    -11.220300     6A    -11.218111
       7A    -11.215026     8A     -1.351963     9A     -1.089558
      10A     -1.032918    11A     -0.970735    12A     -0.875081
      13A     -0.808755    14A     -0.755272    15A     -0.681603
      16A     -0.632632    17A     -0.620881    18A     -0.598091
      19A     -0.588766    20A     -0.543088    21A     -0.539078
      22A     -0.530930    23A     -0.516667    24A     -0.502499
      25A     -0.481685    26A     -0.462108    27A     -0.444271
      28A     -0.349216

  @DF-RHF Final Energy:  -309.14647574320173

   => Energetics <=

    Nuclear Repulsion Energy =            299.3231172447601693
    One-Electron Energy =               -1012.2934746281869138
    Two-Electron Energy =                 403.8238816402250109
    Total Energy =                       -309.1464757432017336
  Basis Set: (AUG-CC-PVTZ AUX)
    Blend: AUG-CC-PVTZ-RI
    Molecular point group: c1

    Geometry (in Angstrom), charge = 0, multiplicity = 1:

       Center              X                  Y                   Z               Mass
    ------------   -----------------  -----------------  -----------------  -----------------
         O           -2.335741851072    -1.102740955070    -0.159830527270    15.994914619570
         C           -1.516939351072    -0.028945755070     0.325346172730    12.000000000000
         C           -0.171508351072    -0.255717755070    -0.282264827270    12.000000000000
         C            2.333632648928    -0.447177755070    -0.192149827270    12.000000000000
         C            0.972748648928    -0.283907755070     0.411205172730    12.000000000000
         C           -2.111565351072     1.303802244930    -0.113716827270    12.000000000000
         C            3.212041648928     0.784418244930     0.034902172730    12.000000000000
         H           -1.399782851072    -0.011723555070     1.420570472730     1.007825032230
         H           -0.162188351072    -0.386708755070    -1.365014827270     1.007825032230
         H            2.233847648928    -0.641850755070    -1.265733827270     1.007825032230
         H            2.824933648928    -1.325935755070     0.244415172730     1.007825032230
         H            0.935527648928    -0.161322755070     1.495605172730     1.007825032230
         H           -1.477697351072     2.135303244930     0.205369172730     1.007825032230
         H           -2.202121351072     1.324109244930    -1.202948827270     1.007825032230
         H           -3.108139351072     1.448513244930     0.319302172730     1.007825032230
         H            3.328830648928     0.989541244930     1.103040172730     1.007825032230
         H            2.762358648928     1.666083244930    -0.429248827270     1.007825032230
         H            4.209121648928     0.642935244930    -0.391572827270     1.007825032230
         H           -3.242413351072    -0.947378755070     0.220059172730     1.007825032230

  Basis Set: AUG-CC-PVTZ
    Blend: AUG-CC-PVTZ
  Basis Set: (AUG-CC-PVTZ AUX)
    Blend: AUG-CC-PVTZ-JKFIT
	 Reference Energy          =    -309.1464757432017336 [Eh]
	 Singles Energy            =      -0.0000000000000000 [Eh]
	 Same-Spin Energy          =      -0.3169776486555160 [Eh]
	 Opposite-Spin Energy      =      -1.1033437619591724 [Eh]
	 Correlation Energy        =      -1.4203214106146884 [Eh]
	 Total Energy              =    -310.5667971538164238 [Eh]

	 ================> DF-SCS-MP2 Energies <==================
	-----------------------------------------------------------
	 SCS Same-Spin Scale       =       0.3333333333333333 [-]
	 SCS Opposite-Spin Scale   =       1.2000000000000000 [-]
	 SCS Same-Spin Energy      =      -0.1056592162185053 [Eh]
	 SCS Opposite-Spin Energy  =      -1.3240125143510069 [Eh]
	 SCS Correlation Energy    =      -1.4296717305695121 [Eh]
	 SCS Total Energy          =    -310.5761474737712433 [Eh]
	-----------------------------------------------------------

  Dipole Moment: [D]
     X:    -0.1162      Y:     1.3126      Z:     0.9014     Total:     1.5965

*** Psi4 exiting successfully. Buy a developer a beer!
