                               Psi4 1.3.2 release

  ==> Input File <==

--------------------------------------------------------------------------
#psi4
#
memory 32 gb

molecule  {
0 1
  O       -2.3409430    -1.1152500    -0.1201430
  C       -1.5156830    -0.0261920     0.3177710
  C       -0.1761724    -0.2513319    -0.2799063
  C        2.3348890    -0.4444240    -0.1997250
  C        0.9740050    -0.2811540     0.4036300
  C       -2.1103090     1.3065560    -0.1212920
  C        3.2132980     0.7871720     0.0273270
  H       -1.4208040    -0.0402330     1.4151950
  H       -0.1609320    -0.3839550    -1.3725900
  H        2.2351040    -0.6390970    -1.2733090
  H        2.8261900    -1.3231820     0.2368400
  H        0.9273011    -0.1577542     1.4875705
  H       -1.4764410     2.1380570     0.1977940
  H       -2.2008650     1.3268630    -1.2105240
  H       -3.1068830     1.4512670     0.3117270
  H        3.3300870     0.9922950     1.0954650
  H        2.7636150     1.6688370    -0.4368240
  H        4.2103780     0.6456890    -0.3991480
  H       -3.2411570    -0.9446250     0.2124840
units angstrom
no_reorient  #important for SAPT in psi4, default
symmetry c1  #important for SAPT in psi4, default
}

set PROPERTIES_ORIGIN ["COM"]
properties('MP2/aug-cc-pvtz', properties = ['dipole'])
--------------------------------------------------------------------------

    Molecular point group: c1
  Charge       = 0
  Multiplicity = 1
  Basis Set: AUG-CC-PVTZ
    Blend: AUG-CC-PVTZ
  Basis Set: (AUG-CC-PVTZ AUX)
    Blend: AUG-CC-PVTZ-JKFIT

    Orbital Energies [Eh]
    ---------------------

    Doubly Occupied:

       1A    -20.555465     2A    -11.282491     3A    -11.227691
       4A    -11.225020     5A    -11.221090     6A    -11.219502
       7A    -11.215422     8A     -1.354380     9A     -1.090493
      10A     -1.034507    11A     -0.971296    12A     -0.876782
      13A     -0.811130    14A     -0.753620    15A     -0.681597
      16A     -0.634381    17A     -0.624714    18A     -0.598794
      19A     -0.588649    20A     -0.543504    21A     -0.539279
      22A     -0.529549    23A     -0.516865    24A     -0.502033
      25A     -0.481931    26A     -0.464179    27A     -0.443804
      28A     -0.349743

  @DF-RHF Final Energy:  -309.14910447816288

   => Energetics <=

    Nuclear Repulsion Energy =            299.3075484752768034
    One-Electron Energy =               -1012.2374771665427033
    Two-Electron Energy =                 403.7808242131030170
    Total Energy =                       -309.1491044781628830
  Basis Set: (AUG-CC-PVTZ AUX)
    Blend: AUG-CC-PVTZ-RI
    Molecular point group: c1

    Geometry (in Angstrom), charge = 0, multiplicity = 1:

       Center              X                  Y                   Z               Mass
    ------------   -----------------  -----------------  -----------------  -----------------
         O           -2.340137773190    -1.115453733446    -0.121329256489    15.994914619570
         C           -1.514877773190    -0.026395733446     0.316584743511    12.000000000000
         C           -0.175367173190    -0.251535633446    -0.281092556489    12.000000000000
         C            2.335694226810    -0.444627733446    -0.200911256489    12.000000000000
         C            0.974810226810    -0.281357733446     0.402443743511    12.000000000000
         C           -2.109503773190     1.306352266554    -0.122478256489    12.000000000000
         C            3.214103226810     0.786968266554     0.026140743511    12.000000000000
         H           -1.419998773190    -0.040436733446     1.414008743511     1.007825032230
         H           -0.160126773190    -0.384158733446    -1.373776256489     1.007825032230
         H            2.235909226810    -0.639300733446    -1.274495256489     1.007825032230
         H            2.826995226810    -1.323385733446     0.235653743511     1.007825032230
         H            0.928106326810    -0.157957933446     1.486384243511     1.007825032230
         H           -1.475635773190     2.137853266554     0.196607743511     1.007825032230
         H           -2.200059773190     1.326659266554    -1.211710256489     1.007825032230
         H           -3.106077773190     1.451063266554     0.310540743511     1.007825032230
         H            3.330892226810     0.992091266554     1.094278743511     1.007825032230
         H            2.764420226810     1.668633266554    -0.438010256489     1.007825032230
         H            4.211183226810     0.645485266554    -0.400334256489     1.007825032230
         H           -3.240351773190    -0.944828733446     0.211297743511     1.007825032230

  Basis Set: AUG-CC-PVTZ
    Blend: AUG-CC-PVTZ
  Basis Set: (AUG-CC-PVTZ AUX)
    Blend: AUG-CC-PVTZ-JKFIT
	 Reference Energy          =    -309.1491044781628830 [Eh]
	 Singles Energy            =      -0.0000000000000000 [Eh]
	 Same-Spin Energy          =      -0.3166441113593437 [Eh]
	 Opposite-Spin Energy      =      -1.1024867901736592 [Eh]
	 Correlation Energy        =      -1.4191309015330029 [Eh]
	 Total Energy              =    -310.5682353796958637 [Eh]

	 ================> DF-SCS-MP2 Energies <==================
	-----------------------------------------------------------
	 SCS Same-Spin Scale       =       0.3333333333333333 [-]
	 SCS Opposite-Spin Scale   =       1.2000000000000000 [-]
	 SCS Same-Spin Energy      =      -0.1055480371197812 [Eh]
	 SCS Opposite-Spin Energy  =      -1.3229841482083911 [Eh]
	 SCS Correlation Energy    =      -1.4285321853281723 [Eh]
	 SCS Total Energy          =    -310.5776366634910346 [Eh]
	-----------------------------------------------------------

  Dipole Moment: [D]
     X:    -0.0927      Y:     1.3824      Z:     0.8157     Total:     1.6078

*** Psi4 exiting successfully. Buy a developer a beer!
