                               Psi4 1.3.2 release

  ==> Input File <==

--------------------------------------------------------------------------
#psi4
#
memory 32 gb

molecule  {
0 1
  O       -2.3409430    -1.1152500    -0.1201430
  C       -1.5156830    -0.0261920     0.3177710
  C       -0.1702520    -0.2529640    -0.2898400
  C        2.3348890    -0.4444240    -0.1997250
  C        0.8885036    -0.2790476     0.3518124
  C       -2.1103090     1.3065560    -0.1212920
  C        3.2132980     0.7871720     0.0273270
  H       -1.4208040    -0.0402330     1.4151950
  H       -0.1609320    -0.3839550    -1.3725900
  H        2.2351040    -0.6390970    -1.2733090
  H        2.8261900    -1.3231820     0.2368400
  H        0.9367840    -0.1585690     1.4880300
  H       -1.4764410     2.1380570     0.1977940
  H       -2.2008650     1.3268630    -1.2105240
  H       -3.1068830     1.4512670     0.3117270
  H        3.3300870     0.9922950     1.0954650
  H        2.7636150     1.6688370    -0.4368240
  H        4.2103780     0.6456890    -0.3991480
  H       -3.2411570    -0.9446250     0.2124840
units angstrom
no_reorient  #important for SAPT in psi4, default
symmetry c1  #important for SAPT in psi4, default
}

set PROPERTIES_ORIGIN ["COM"]
properties('MP2/aug-cc-pvtz', properties = ['dipole'])
--------------------------------------------------------------------------

    Molecular point group: c1
  Charge       = 0
  Multiplicity = 1
  Basis Set: AUG-CC-PVTZ
    Blend: AUG-CC-PVTZ
  Basis Set: (AUG-CC-PVTZ AUX)
    Blend: AUG-CC-PVTZ-JKFIT

    Orbital Energies [Eh]
    ---------------------

    Doubly Occupied:

       1A    -20.555393     2A    -11.282348     3A    -11.226885
       4A    -11.219528     5A    -11.219468     6A    -11.215376
       7A    -11.205856     8A     -1.354232     9A     -1.100676
      10A     -1.030162    11A     -0.982111    12A     -0.870212
      13A     -0.815978    14A     -0.747653    15A     -0.678262
      16A     -0.634440    17A     -0.625649    18A     -0.599741
      19A     -0.588110    20A     -0.543496    21A     -0.539000
      22A     -0.535006    23A     -0.515149    24A     -0.501794
      25A     -0.481197    26A     -0.444939    27A     -0.439985
      28A     -0.376892

  @DF-RHF Final Energy:  -309.13644924284654

   => Energetics <=

    Nuclear Repulsion Energy =            300.1765973592342220
    One-Electron Energy =               -1013.9670131074536812
    Two-Electron Energy =                 404.6539665053728640
    Total Energy =                       -309.1364492428465383
  Basis Set: (AUG-CC-PVTZ AUX)
    Blend: AUG-CC-PVTZ-RI
    Molecular point group: c1

    Geometry (in Angstrom), charge = 0, multiplicity = 1:

       Center              X                  Y                   Z               Mass
    ------------   -----------------  -----------------  -----------------  -----------------
         O           -2.330692013482    -1.115502394469    -0.113930302826    15.994914619570
         C           -1.505432013482    -0.026444394469     0.323983697174    12.000000000000
         C           -0.160001013482    -0.253216394469    -0.283627302826    12.000000000000
         C            2.345139986518    -0.444676394469    -0.193512302826    12.000000000000
         C            0.898754586518    -0.279299994469     0.358025097174    12.000000000000
         C           -2.100058013482     1.306303605531    -0.115079302826    12.000000000000
         C            3.223548986518     0.786919605531     0.033539697174    12.000000000000
         H           -1.410553013482    -0.040485394469     1.421407697174     1.007825032230
         H           -0.150681013482    -0.384207394469    -1.366377302826     1.007825032230
         H            2.245354986518    -0.639349394469    -1.267096302826     1.007825032230
         H            2.836440986518    -1.323434394469     0.243052697174     1.007825032230
         H            0.947034986518    -0.158821394469     1.494242697174     1.007825032230
         H           -1.466190013482     2.137804605531     0.204006697174     1.007825032230
         H           -2.190614013482     1.326610605531    -1.204311302826     1.007825032230
         H           -3.096632013482     1.451014605531     0.317939697174     1.007825032230
         H            3.340337986518     0.992042605531     1.101677697174     1.007825032230
         H            2.773865986518     1.668584605531    -0.430611302826     1.007825032230
         H            4.220628986518     0.645436605531    -0.392935302826     1.007825032230
         H           -3.230906013482    -0.944877394469     0.218696697174     1.007825032230

  Basis Set: AUG-CC-PVTZ
    Blend: AUG-CC-PVTZ
  Basis Set: (AUG-CC-PVTZ AUX)
    Blend: AUG-CC-PVTZ-JKFIT
	 Reference Energy          =    -309.1364492428465383 [Eh]
	 Singles Energy            =      -0.0000000000000000 [Eh]
	 Same-Spin Energy          =      -0.3155885341215365 [Eh]
	 Opposite-Spin Energy      =      -1.1003518692974250 [Eh]
	 Correlation Energy        =      -1.4159404034189615 [Eh]
	 Total Energy              =    -310.5523896462655102 [Eh]

	 ================> DF-SCS-MP2 Energies <==================
	-----------------------------------------------------------
	 SCS Same-Spin Scale       =       0.3333333333333333 [-]
	 SCS Opposite-Spin Scale   =       1.2000000000000000 [-]
	 SCS Same-Spin Energy      =      -0.1051961780405122 [Eh]
	 SCS Opposite-Spin Energy  =      -1.3204222431569099 [Eh]
	 SCS Correlation Energy    =      -1.4256184211974221 [Eh]
	 SCS Total Energy          =    -310.5620676640439797 [Eh]
	-----------------------------------------------------------

  Dipole Moment: [D]
     X:    -0.1505      Y:     1.3897      Z:     0.7782     Total:     1.5998

*** Psi4 exiting successfully. Buy a developer a beer!
