                               Psi4 1.3.2 release

  ==> Input File <==

--------------------------------------------------------------------------
#psi4
#
memory 32 gb

molecule  {
0 1
  O       -2.3409430    -1.1152500    -0.1201430
  C       -1.5156830    -0.0261920     0.3177710
  C       -0.0801715    -0.2681470    -0.3305213
  C        2.3348890    -0.4444240    -0.1997250
  C        0.9740050    -0.2811540     0.4036300
  C       -2.1103090     1.3065560    -0.1212920
  C        3.2132980     0.7871720     0.0273270
  H       -1.4208040    -0.0402330     1.4151950
  H       -0.1609320    -0.3839550    -1.3725900
  H        2.2351040    -0.6390970    -1.2733090
  H        2.8261900    -1.3231820     0.2368400
  H        0.9367840    -0.1585690     1.4880300
  H       -1.4764410     2.1380570     0.1977940
  H       -2.2008650     1.3268630    -1.2105240
  H       -3.1068830     1.4512670     0.3117270
  H        3.3300870     0.9922950     1.0954650
  H        2.7636150     1.6688370    -0.4368240
  H        4.2103780     0.6456890    -0.3991480
  H       -3.2411570    -0.9446250     0.2124840
units angstrom
no_reorient  #important for SAPT in psi4, default
symmetry c1  #important for SAPT in psi4, default
}

set PROPERTIES_ORIGIN ["COM"]
properties('MP2/aug-cc-pvtz', properties = ['dipole'])
--------------------------------------------------------------------------

    Molecular point group: c1
  Charge       = 0
  Multiplicity = 1
  Basis Set: AUG-CC-PVTZ
    Blend: AUG-CC-PVTZ
  Basis Set: (AUG-CC-PVTZ AUX)
    Blend: AUG-CC-PVTZ-JKFIT

    Orbital Energies [Eh]
    ---------------------

    Doubly Occupied:

       1A    -20.554600     2A    -11.285744     3A    -11.221414
       4A    -11.219524     5A    -11.218453     6A    -11.215455
       7A    -11.213993     8A     -1.351487     9A     -1.094765
      10A     -1.024973    11A     -0.976172    12A     -0.866935
      13A     -0.808798    14A     -0.759994    15A     -0.679671
      16A     -0.629864    17A     -0.624856    18A     -0.597184
      19A     -0.592620    20A     -0.551626    21A     -0.540602
      22A     -0.532641    23A     -0.514710    24A     -0.500916
      25A     -0.483012    26A     -0.442514    27A     -0.438036
      28A     -0.363864

  @DF-RHF Final Energy:  -309.14153878205570

   => Energetics <=

    Nuclear Repulsion Energy =            298.8629904798560801
    One-Electron Energy =               -1011.4002157550727361
    Two-Electron Energy =                 403.3956864931609516
    Total Energy =                       -309.1415387820557044
  Basis Set: (AUG-CC-PVTZ AUX)
    Blend: AUG-CC-PVTZ-RI
    Molecular point group: c1

    Geometry (in Angstrom), charge = 0, multiplicity = 1:

       Center              X                  Y                   Z               Mass
    ------------   -----------------  -----------------  -----------------  -----------------
         O           -2.351743144918    -1.113429507504    -0.115265472995    15.994914619570
         C           -1.526483144918    -0.024371507504     0.322648527005    12.000000000000
         C           -0.090971644918    -0.266326507504    -0.325643772995    12.000000000000
         C            2.324088855082    -0.442603507504    -0.194847472995    12.000000000000
         C            0.963204855082    -0.279333507504     0.408507527005    12.000000000000
         C           -2.121109144918     1.308376492496    -0.116414472995    12.000000000000
         C            3.202497855082     0.788992492496     0.032204527005    12.000000000000
         H           -1.431604144918    -0.038412507504     1.420072527005     1.007825032230
         H           -0.171732144918    -0.382134507504    -1.367712472995     1.007825032230
         H            2.224303855082    -0.637276507504    -1.268431472995     1.007825032230
         H            2.815389855082    -1.321361507504     0.241717527005     1.007825032230
         H            0.925983855082    -0.156748507504     1.492907527005     1.007825032230
         H           -1.487241144918     2.139877492496     0.202671527005     1.007825032230
         H           -2.211665144918     1.328683492496    -1.205646472995     1.007825032230
         H           -3.117683144918     1.453087492496     0.316604527005     1.007825032230
         H            3.319286855082     0.994115492496     1.100342527005     1.007825032230
         H            2.752814855082     1.670657492496    -0.431946472995     1.007825032230
         H            4.199577855082     0.647509492496    -0.394270472995     1.007825032230
         H           -3.251957144918    -0.942804507504     0.217361527005     1.007825032230

  Basis Set: AUG-CC-PVTZ
    Blend: AUG-CC-PVTZ
  Basis Set: (AUG-CC-PVTZ AUX)
    Blend: AUG-CC-PVTZ-JKFIT
	 Reference Energy          =    -309.1415387820557044 [Eh]
	 Singles Energy            =      -0.0000000000000000 [Eh]
	 Same-Spin Energy          =      -0.3155401542262792 [Eh]
	 Opposite-Spin Energy      =      -1.1009353924877125 [Eh]
	 Correlation Energy        =      -1.4164755467139918 [Eh]
	 Total Energy              =    -310.5580143287696728 [Eh]

	 ================> DF-SCS-MP2 Energies <==================
	-----------------------------------------------------------
	 SCS Same-Spin Scale       =       0.3333333333333333 [-]
	 SCS Opposite-Spin Scale   =       1.2000000000000000 [-]
	 SCS Same-Spin Energy      =      -0.1051800514087597 [Eh]
	 SCS Opposite-Spin Energy  =      -1.3211224709852549 [Eh]
	 SCS Correlation Energy    =      -1.4263025223940147 [Eh]
	 SCS Total Energy          =    -310.5678413044497006 [Eh]
	-----------------------------------------------------------

  Dipole Moment: [D]
     X:    -0.1205      Y:     1.3590      Z:     0.8038     Total:     1.5835

*** Psi4 exiting successfully. Buy a developer a beer!
