                               Psi4 1.3.2 release

  ==> Input File <==

--------------------------------------------------------------------------
#psi4
#
memory 32 gb

molecule  {
0 1
  O       -2.3409430    -1.1152500    -0.1201430
  C       -1.5156830    -0.0261920     0.3177710
  C       -0.1744079    -0.2069443    -0.3139813
  C        2.3348890    -0.4444240    -0.1997250
  C        0.9740050    -0.2811540     0.4036300
  C       -2.0666294     1.3154159    -0.1503314
  C        3.2132980     0.7871720     0.0273270
  H       -1.4208040    -0.0402330     1.4151950
  H       -0.1609320    -0.3839550    -1.3725900
  H        2.2351040    -0.6390970    -1.2733090
  H        2.8261900    -1.3231820     0.2368400
  H        0.9367840    -0.1585690     1.4880300
  H       -1.4764410     2.1380570     0.1977940
  H       -2.2008650     1.3268630    -1.2105240
  H       -3.1068830     1.4512670     0.3117270
  H        3.3300870     0.9922950     1.0954650
  H        2.7636150     1.6688370    -0.4368240
  H        4.2103780     0.6456890    -0.3991480
  H       -3.2411570    -0.9446250     0.2124840
units angstrom
no_reorient  #important for SAPT in psi4, default
symmetry c1  #important for SAPT in psi4, default
}

set PROPERTIES_ORIGIN ["COM"]
properties('MP2/aug-cc-pvtz', properties = ['dipole'])
--------------------------------------------------------------------------

    Molecular point group: c1
  Charge       = 0
  Multiplicity = 1
  Basis Set: AUG-CC-PVTZ
    Blend: AUG-CC-PVTZ
  Basis Set: (AUG-CC-PVTZ AUX)
    Blend: AUG-CC-PVTZ-JKFIT

    Orbital Energies [Eh]
    ---------------------

    Doubly Occupied:

       1A    -20.556974     2A    -11.283112     3A    -11.229859
       4A    -11.224144     5A    -11.221504     6A    -11.219231
       7A    -11.214888     8A     -1.354685     9A     -1.088677
      10A     -1.035149    11A     -0.968132    12A     -0.874687
      13A     -0.809093    14A     -0.758513    15A     -0.682641
      16A     -0.633304    17A     -0.626382    18A     -0.596133
      19A     -0.591351    20A     -0.550597    21A     -0.535496
      22A     -0.526719    23A     -0.517152    24A     -0.503784
      25A     -0.481545    26A     -0.459873    27A     -0.446947
      28A     -0.344385

  @DF-RHF Final Energy:  -309.14392040756104

   => Energetics <=

    Nuclear Repulsion Energy =            299.2504143269920860
    One-Electron Energy =               -1012.1187590300362444
    Two-Electron Energy =                 403.7244242954831179
    Total Energy =                       -309.1439204075610405
  Basis Set: (AUG-CC-PVTZ AUX)
    Blend: AUG-CC-PVTZ-RI
    Molecular point group: c1

    Geometry (in Angstrom), charge = 0, multiplicity = 1:

       Center              X                  Y                   Z               Mass
    ------------   -----------------  -----------------  -----------------  -----------------
         O           -2.345681712380    -1.121829558998    -0.113766875974    15.994914619570
         C           -1.520421712380    -0.032771558998     0.324147124026    12.000000000000
         C           -0.179146612380    -0.213523858998    -0.307605175974    12.000000000000
         C            2.330150287620    -0.451003558998    -0.193348875974    12.000000000000
         C            0.969266287620    -0.287733558998     0.410006124026    12.000000000000
         C           -2.071368112380     1.308836341002    -0.143955275974    12.000000000000
         C            3.208559287620     0.780592441002     0.033703124026    12.000000000000
         H           -1.425542712380    -0.046812558998     1.421571124026     1.007825032230
         H           -0.165670712380    -0.390534558998    -1.366213875974     1.007825032230
         H            2.230365287620    -0.645676558998    -1.266932875974     1.007825032230
         H            2.821451287620    -1.329761558998     0.243216124026     1.007825032230
         H            0.932045287620    -0.165148558998     1.494406124026     1.007825032230
         H           -1.481179712380     2.131477441002     0.204170124026     1.007825032230
         H           -2.205603712380     1.320283441002    -1.204147875974     1.007825032230
         H           -3.111621712380     1.444687441002     0.318103124026     1.007825032230
         H            3.325348287620     0.985715441002     1.101841124026     1.007825032230
         H            2.758876287620     1.662257441002    -0.430447875974     1.007825032230
         H            4.205639287620     0.639109441002    -0.392771875974     1.007825032230
         H           -3.245895712380    -0.951204558998     0.218860124026     1.007825032230

  Basis Set: AUG-CC-PVTZ
    Blend: AUG-CC-PVTZ
  Basis Set: (AUG-CC-PVTZ AUX)
    Blend: AUG-CC-PVTZ-JKFIT
	 Reference Energy          =    -309.1439204075610405 [Eh]
	 Singles Energy            =      -0.0000000000000000 [Eh]
	 Same-Spin Energy          =      -0.3168913717550904 [Eh]
	 Opposite-Spin Energy      =      -1.1031874375982538 [Eh]
	 Correlation Energy        =      -1.4200788093533441 [Eh]
	 Total Energy              =    -310.5639992169143966 [Eh]

	 ================> DF-SCS-MP2 Energies <==================
	-----------------------------------------------------------
	 SCS Same-Spin Scale       =       0.3333333333333333 [-]
	 SCS Opposite-Spin Scale   =       1.2000000000000000 [-]
	 SCS Same-Spin Energy      =      -0.1056304572516968 [Eh]
	 SCS Opposite-Spin Energy  =      -1.3238249251179044 [Eh]
	 SCS Correlation Energy    =      -1.4294553823696012 [Eh]
	 SCS Total Energy          =    -310.5733757899306511 [Eh]
	-----------------------------------------------------------

  Dipole Moment: [D]
     X:    -0.0900      Y:     1.3168      Z:     0.7989     Total:     1.5428

*** Psi4 exiting successfully. Buy a developer a beer!
