                               Psi4 1.3.2 release

  ==> Input File <==

--------------------------------------------------------------------------
#psi4
#
memory 32 gb

molecule  {
0 1
  O       -2.3409430    -1.1152500    -0.1201430
  C       -1.5156830    -0.0261920     0.3177710
  C       -0.1702520    -0.2529640    -0.2898400
  C        2.3125578    -0.4480521    -0.2468476
  C        0.9740050    -0.2811540     0.4036300
  C       -2.1103090     1.3065560    -0.1212920
  C        3.2132980     0.7871720     0.0273270
  H       -1.4208040    -0.0402330     1.4151950
  H       -0.1609320    -0.3839550    -1.3725900
  H        2.2351040    -0.6390970    -1.2733090
  H        2.8261900    -1.3231820     0.2368400
  H        0.8988150    -0.1561245     1.4857806
  H       -1.4764410     2.1380570     0.1977940
  H       -2.2008650     1.3268630    -1.2105240
  H       -3.1068830     1.4512670     0.3117270
  H        3.3300870     0.9922950     1.0954650
  H        2.7636150     1.6688370    -0.4368240
  H        4.2103780     0.6456890    -0.3991480
  H       -3.2411570    -0.9446250     0.2124840
units angstrom
no_reorient  #important for SAPT in psi4, default
symmetry c1  #important for SAPT in psi4, default
}

set PROPERTIES_ORIGIN ["COM"]
properties('MP2/aug-cc-pvtz', properties = ['dipole'])
--------------------------------------------------------------------------

    Molecular point group: c1
  Charge       = 0
  Multiplicity = 1
  Basis Set: AUG-CC-PVTZ
    Blend: AUG-CC-PVTZ
  Basis Set: (AUG-CC-PVTZ AUX)
    Blend: AUG-CC-PVTZ-JKFIT

    Orbital Energies [Eh]
    ---------------------

    Doubly Occupied:

       1A    -20.555071     2A    -11.282397     3A    -11.227519
       4A    -11.224737     5A    -11.219212     6A    -11.219127
       7A    -11.216142     8A     -1.353837     9A     -1.089931
      10A     -1.031683    11A     -0.969763    12A     -0.875524
      13A     -0.811915    14A     -0.756475    15A     -0.681776
      16A     -0.631634    17A     -0.625239    18A     -0.594995
      19A     -0.592146    20A     -0.542575    21A     -0.539921
      22A     -0.528376    23A     -0.511009    24A     -0.502389
      25A     -0.491527    26A     -0.462069    27A     -0.443527
      28A     -0.347665

  @DF-RHF Final Energy:  -309.14623864290184

   => Energetics <=

    Nuclear Repulsion Energy =            299.2154788578256444
    One-Electron Energy =               -1012.0670775181405361
    Two-Electron Energy =                 403.7053600174131134
    Total Energy =                       -309.1462386429018352
  Basis Set: (AUG-CC-PVTZ AUX)
    Blend: AUG-CC-PVTZ-RI
    Molecular point group: c1

    Geometry (in Angstrom), charge = 0, multiplicity = 1:

       Center              X                  Y                   Z               Mass
    ------------   -----------------  -----------------  -----------------  -----------------
         O           -2.337883389374    -1.114839479520    -0.114470552987    15.994914619570
         C           -1.512623389374    -0.025781479520     0.323443447013    12.000000000000
         C           -0.167192389374    -0.252553479520    -0.284167552987    12.000000000000
         C            2.315617410626    -0.447641579520    -0.241175152987    12.000000000000
         C            0.977064610626    -0.280743479520     0.409302447013    12.000000000000
         C           -2.107249389374     1.306966520480    -0.115619552987    12.000000000000
         C            3.216357610626     0.787582520480     0.032999447013    12.000000000000
         H           -1.417744389374    -0.039822479520     1.420867447013     1.007825032230
         H           -0.157872389374    -0.383544479520    -1.366917552987     1.007825032230
         H            2.238163610626    -0.638686479520    -1.267636552987     1.007825032230
         H            2.829249610626    -1.322771479520     0.242512447013     1.007825032230
         H            0.901874610626    -0.155713979520     1.491453047013     1.007825032230
         H           -1.473381389374     2.138467520480     0.203466447013     1.007825032230
         H           -2.197805389374     1.327273520480    -1.204851552987     1.007825032230
         H           -3.103823389374     1.451677520480     0.317399447013     1.007825032230
         H            3.333146610626     0.992705520480     1.101137447013     1.007825032230
         H            2.766674610626     1.669247520480    -0.431151552987     1.007825032230
         H            4.213437610626     0.646099520480    -0.393475552987     1.007825032230
         H           -3.238097389374    -0.944214479520     0.218156447013     1.007825032230

  Basis Set: AUG-CC-PVTZ
    Blend: AUG-CC-PVTZ
  Basis Set: (AUG-CC-PVTZ AUX)
    Blend: AUG-CC-PVTZ-JKFIT
	 Reference Energy          =    -309.1462386429018352 [Eh]
	 Singles Energy            =      -0.0000000000000000 [Eh]
	 Same-Spin Energy          =      -0.3165356334324294 [Eh]
	 Opposite-Spin Energy      =      -1.1023923593059619 [Eh]
	 Correlation Energy        =      -1.4189279927383913 [Eh]
	 Total Energy              =    -310.5651666356402529 [Eh]

	 ================> DF-SCS-MP2 Energies <==================
	-----------------------------------------------------------
	 SCS Same-Spin Scale       =       0.3333333333333333 [-]
	 SCS Opposite-Spin Scale   =       1.2000000000000000 [-]
	 SCS Same-Spin Energy      =      -0.1055118778108098 [Eh]
	 SCS Opposite-Spin Energy  =      -1.3228708311671542 [Eh]
	 SCS Correlation Energy    =      -1.4283827089779639 [Eh]
	 SCS Total Energy          =    -310.5746213518797845 [Eh]
	-----------------------------------------------------------

  Dipole Moment: [D]
     X:    -0.0943      Y:     1.3784      Z:     0.7932     Total:     1.5932

*** Psi4 exiting successfully. Buy a developer a beer!
