                               Psi4 1.3.2 release

  ==> Input File <==

--------------------------------------------------------------------------
#psi4
#
memory 32 gb

molecule  {
0 1
  O       -2.3409430    -1.1152500    -0.1201430
  C       -1.5156830    -0.0261920     0.3177710
  C       -0.1702520    -0.2529640    -0.2898400
  C        2.3348890    -0.4444240    -0.1997250
  C        0.9367452    -0.2705101     0.4620036
  C       -2.1103090     1.3065560    -0.1212920
  C        3.2132980     0.7871720     0.0273270
  H       -1.4208040    -0.0402330     1.4151950
  H       -0.2177594    -0.3783763    -1.3722484
  H        2.2351040    -0.6390970    -1.2733090
  H        2.8261900    -1.3231820     0.2368400
  H        0.9367840    -0.1585690     1.4880300
  H       -1.4764410     2.1380570     0.1977940
  H       -2.2008650     1.3268630    -1.2105240
  H       -3.1068830     1.4512670     0.3117270
  H        3.3300870     0.9922950     1.0954650
  H        2.7636150     1.6688370    -0.4368240
  H        4.2103780     0.6456890    -0.3991480
  H       -3.2411570    -0.9446250     0.2124840
units angstrom
no_reorient  #important for SAPT in psi4, default
symmetry c1  #important for SAPT in psi4, default
}

set PROPERTIES_ORIGIN ["COM"]
properties('MP2/aug-cc-pvtz', properties = ['dipole'])
--------------------------------------------------------------------------

    Molecular point group: c1
  Charge       = 0
  Multiplicity = 1
  Basis Set: AUG-CC-PVTZ
    Blend: AUG-CC-PVTZ
  Basis Set: (AUG-CC-PVTZ AUX)
    Blend: AUG-CC-PVTZ-JKFIT

    Orbital Energies [Eh]
    ---------------------

    Doubly Occupied:

       1A    -20.554731     2A    -11.279979     3A    -11.226541
       4A    -11.225929     5A    -11.222532     6A    -11.218772
       7A    -11.213762     8A     -1.353567     9A     -1.086127
      10A     -1.030059    11A     -0.970951    12A     -0.871745
      13A     -0.807690    14A     -0.764586    15A     -0.684098
      16A     -0.630897    17A     -0.624626    18A     -0.594214
      19A     -0.588198    20A     -0.551134    21A     -0.542103
      22A     -0.532664    23A     -0.512782    24A     -0.498872
      25A     -0.485376    26A     -0.450797    27A     -0.442900
      28A     -0.351828

  @DF-RHF Final Energy:  -309.14384633063173

   => Energetics <=

    Nuclear Repulsion Energy =            298.9238993251157694
    One-Electron Energy =               -1011.5005743723038449
    Two-Electron Energy =                 403.4328287165562870
    Total Energy =                       -309.1438463306317317
  Basis Set: (AUG-CC-PVTZ AUX)
    Blend: AUG-CC-PVTZ-RI
    Molecular point group: c1

    Geometry (in Angstrom), charge = 0, multiplicity = 1:

       Center              X                  Y                   Z               Mass
    ------------   -----------------  -----------------  -----------------  -----------------
         O           -2.335903655999    -1.116582159012    -0.127144952964    15.994914619570
         C           -1.510643655999    -0.027524159012     0.310769047036    12.000000000000
         C           -0.165212655999    -0.254296159012    -0.296841952964    12.000000000000
         C            2.339928344001    -0.445756159012    -0.206726952964    12.000000000000
         C            0.941784544001    -0.271842259012     0.455001647036    12.000000000000
         C           -2.105269655999     1.305223840988    -0.128293952964    12.000000000000
         C            3.218337344001     0.785839840988     0.020325047036    12.000000000000
         H           -1.415764655999    -0.041565159012     1.408193047036     1.007825032230
         H           -0.212720055999    -0.379708459012    -1.379250352964     1.007825032230
         H            2.240143344001    -0.640429159012    -1.280310952964     1.007825032230
         H            2.831229344001    -1.324514159012     0.229838047036     1.007825032230
         H            0.941823344001    -0.159901159012     1.481028047036     1.007825032230
         H           -1.471401655999     2.136724840988     0.190792047036     1.007825032230
         H           -2.195825655999     1.325530840988    -1.217525952964     1.007825032230
         H           -3.101843655999     1.449934840988     0.304725047036     1.007825032230
         H            3.335126344001     0.990962840988     1.088463047036     1.007825032230
         H            2.768654344001     1.667504840988    -0.443825952964     1.007825032230
         H            4.215417344001     0.644356840988    -0.406149952964     1.007825032230
         H           -3.236117655999    -0.945957159012     0.205482047036     1.007825032230

  Basis Set: AUG-CC-PVTZ
    Blend: AUG-CC-PVTZ
  Basis Set: (AUG-CC-PVTZ AUX)
    Blend: AUG-CC-PVTZ-JKFIT
	 Reference Energy          =    -309.1438463306317317 [Eh]
	 Singles Energy            =      -0.0000000000000000 [Eh]
	 Same-Spin Energy          =      -0.3161485836678702 [Eh]
	 Opposite-Spin Energy      =      -1.1022697061054048 [Eh]
	 Correlation Energy        =      -1.4184182897732751 [Eh]
	 Total Energy              =    -310.5622646204050170 [Eh]

	 ================> DF-SCS-MP2 Energies <==================
	-----------------------------------------------------------
	 SCS Same-Spin Scale       =       0.3333333333333333 [-]
	 SCS Opposite-Spin Scale   =       1.2000000000000000 [-]
	 SCS Same-Spin Energy      =      -0.1053828612226234 [Eh]
	 SCS Opposite-Spin Energy  =      -1.3227236473264856 [Eh]
	 SCS Correlation Energy    =      -1.4281065085491091 [Eh]
	 SCS Total Energy          =    -310.5719528391808240 [Eh]
	-----------------------------------------------------------

  Dipole Moment: [D]
     X:    -0.1519      Y:     1.3716      Z:     0.8325     Total:     1.6117

*** Psi4 exiting successfully. Buy a developer a beer!
