                               Psi4 1.3.2 release

  ==> Input File <==

--------------------------------------------------------------------------
#psi4
#
memory 32 gb

molecule  {
0 1
  O       -2.3409430    -1.1152500    -0.1201430
  C       -1.5156830    -0.0261920     0.3177710
  C       -0.1702520    -0.2529640    -0.2898400
  C        2.3348890    -0.4444240    -0.1997250
  C        0.9740050    -0.2811540     0.4036300
  C       -2.1103090     1.3065560    -0.1212920
  C        3.2132980     0.7871720     0.0273270
  H       -1.4208040    -0.0402330     1.4151950
  H       -0.1600775    -0.3959650    -1.4718625
  H        2.2351040    -0.6390970    -1.2733090
  H        2.8261900    -1.3231820     0.2368400
  H        0.9367840    -0.1585690     1.4880300
  H       -1.4764410     2.1380570     0.1977940
  H       -2.2008650     1.3268630    -1.2105240
  H       -3.1068830     1.4512670     0.3117270
  H        3.3300870     0.9922950     1.0954650
  H        2.7636150     1.6688370    -0.4368240
  H        4.2103780     0.6456890    -0.3991480
  H       -3.2411570    -0.9446250     0.2124840
units angstrom
no_reorient  #important for SAPT in psi4, default
symmetry c1  #important for SAPT in psi4, default
}

set PROPERTIES_ORIGIN ["COM"]
properties('MP2/aug-cc-pvtz', properties = ['dipole'])
--------------------------------------------------------------------------

    Molecular point group: c1
  Charge       = 0
  Multiplicity = 1
  Basis Set: AUG-CC-PVTZ
    Blend: AUG-CC-PVTZ
  Basis Set: (AUG-CC-PVTZ AUX)
    Blend: AUG-CC-PVTZ-JKFIT

    Orbital Energies [Eh]
    ---------------------

    Doubly Occupied:

       1A    -20.555486     2A    -11.284280     3A    -11.232510
       4A    -11.228417     5A    -11.224499     6A    -11.219460
       7A    -11.215262     8A     -1.354271     9A     -1.088981
      10A     -1.033458    11A     -0.970416    12A     -0.875595
      13A     -0.810522    14A     -0.744669    15A     -0.681855
      16A     -0.633827    17A     -0.623188    18A     -0.598308
      19A     -0.584008    20A     -0.543309    21A     -0.538411
      22A     -0.524848    23A     -0.516309    24A     -0.501877
      25A     -0.481968    26A     -0.460352    27A     -0.443780
      28A     -0.350700

  @DF-RHF Final Energy:  -309.14236555743508

   => Energetics <=

    Nuclear Repulsion Energy =            298.7623848888392217
    One-Electron Energy =               -1011.1683686121083383
    Two-Electron Energy =                 403.2636181658340888
    Total Energy =                       -309.1423655574350846
  Basis Set: (AUG-CC-PVTZ AUX)
    Blend: AUG-CC-PVTZ-RI
    Molecular point group: c1

    Geometry (in Angstrom), charge = 0, multiplicity = 1:

       Center              X                  Y                   Z               Mass
    ------------   -----------------  -----------------  -----------------  -----------------
         O           -2.340951681222    -1.115128918386    -0.119143291805    15.994914619570
         C           -1.515691681222    -0.026070918386     0.318770708195    12.000000000000
         C           -0.170260681222    -0.252842918386    -0.288840291805    12.000000000000
         C            2.334880318778    -0.444302918386    -0.198725291805    12.000000000000
         C            0.973996318778    -0.281032918386     0.404629708195    12.000000000000
         C           -2.110317681222     1.306677081614    -0.120292291805    12.000000000000
         C            3.213289318778     0.787293081614     0.028326708195    12.000000000000
         H           -1.420812681222    -0.040111918386     1.416194708195     1.007825032230
         H           -0.160086181222    -0.395843918386    -1.470862791805     1.007825032230
         H            2.235095318778    -0.638975918386    -1.272309291805     1.007825032230
         H            2.826181318778    -1.323060918386     0.237839708195     1.007825032230
         H            0.936775318778    -0.158447918386     1.489029708195     1.007825032230
         H           -1.476449681222     2.138178081614     0.198793708195     1.007825032230
         H           -2.200873681222     1.326984081614    -1.209524291805     1.007825032230
         H           -3.106891681222     1.451388081614     0.312726708195     1.007825032230
         H            3.330078318778     0.992416081614     1.096464708195     1.007825032230
         H            2.763606318778     1.668958081614    -0.435824291805     1.007825032230
         H            4.210369318778     0.645810081614    -0.398148291805     1.007825032230
         H           -3.241165681222    -0.944503918386     0.213483708195     1.007825032230

  Basis Set: AUG-CC-PVTZ
    Blend: AUG-CC-PVTZ
  Basis Set: (AUG-CC-PVTZ AUX)
    Blend: AUG-CC-PVTZ-JKFIT
	 Reference Energy          =    -309.1423655574350846 [Eh]
	 Singles Energy            =      -0.0000000000000000 [Eh]
	 Same-Spin Energy          =      -0.3167796420012931 [Eh]
	 Opposite-Spin Energy      =      -1.1032524736141918 [Eh]
	 Correlation Energy        =      -1.4200321156154849 [Eh]
	 Total Energy              =    -310.5623976730505547 [Eh]

	 ================> DF-SCS-MP2 Energies <==================
	-----------------------------------------------------------
	 SCS Same-Spin Scale       =       0.3333333333333333 [-]
	 SCS Opposite-Spin Scale   =       1.2000000000000000 [-]
	 SCS Same-Spin Energy      =      -0.1055932140004310 [Eh]
	 SCS Opposite-Spin Energy  =      -1.3239029683370300 [Eh]
	 SCS Correlation Energy    =      -1.4294961823374610 [Eh]
	 SCS Total Energy          =    -310.5718617397725438 [Eh]
	-----------------------------------------------------------

  Dipole Moment: [D]
     X:    -0.1060      Y:     1.3834      Z:     0.8572     Total:     1.6309

*** Psi4 exiting successfully. Buy a developer a beer!
