                               Psi4 1.3.2 release

  ==> Input File <==

--------------------------------------------------------------------------
#psi4
#
memory 32 gb

molecule  {
0 1
  O       -2.3409430    -1.1152500    -0.1201430
  C       -1.5255972    -0.0210151     0.3234012
  C       -0.1702520    -0.2529640    -0.2898400
  C        2.3348890    -0.4444240    -0.1997250
  C        0.9740050    -0.2811540     0.4036300
  C       -2.1103090     1.3065560    -0.1212920
  C        3.2132980     0.7871720     0.0273270
  H       -1.4208040    -0.0402330     1.4151950
  H       -0.1609320    -0.3839550    -1.3725900
  H        2.2351040    -0.6390970    -1.2733090
  H        2.8261900    -1.3231820     0.2368400
  H        0.9367840    -0.1585690     1.4880300
  H       -1.4764410     2.1380570     0.1977940
  H       -2.2008650     1.3268630    -1.2105240
  H       -3.1068830     1.4512670     0.3117270
  H        3.3300870     0.9922950     1.0954650
  H        2.7636150     1.6688370    -0.4368240
  H        4.2103780     0.6456890    -0.3991480
  H       -3.2384218    -0.9374182     0.2160809
units angstrom
no_reorient  #important for SAPT in psi4, default
symmetry c1  #important for SAPT in psi4, default
}

set PROPERTIES_ORIGIN ["COM"]
properties('MP2/aug-cc-pvtz', properties = ['dipole'])
--------------------------------------------------------------------------

    Molecular point group: c1
  Charge       = 0
  Multiplicity = 1
  Basis Set: AUG-CC-PVTZ
    Blend: AUG-CC-PVTZ
  Basis Set: (AUG-CC-PVTZ AUX)
    Blend: AUG-CC-PVTZ-JKFIT

    Orbital Energies [Eh]
    ---------------------

    Doubly Occupied:

       1A    -20.556037     2A    -11.282809     3A    -11.227068
       4A    -11.224175     5A    -11.221159     6A    -11.219451
       7A    -11.215035     8A     -1.354948     9A     -1.089056
      10A     -1.033547    11A     -0.971691    12A     -0.874787
      13A     -0.810222    14A     -0.754968    15A     -0.681741
      16A     -0.632531    17A     -0.625058    18A     -0.598335
      19A     -0.589570    20A     -0.544111    21A     -0.539533
      22A     -0.531112    23A     -0.516406    24A     -0.502535
      25A     -0.481681    26A     -0.460536    27A     -0.445521
      28A     -0.349662

  @DF-RHF Final Energy:  -309.14918254377113

   => Energetics <=

    Nuclear Repulsion Energy =            299.1395156656511176
    One-Electron Energy =               -1011.9108224567105481
    Two-Electron Energy =                 403.6221242472883546
    Total Energy =                       -309.1491825437711327
  Basis Set: (AUG-CC-PVTZ AUX)
    Blend: AUG-CC-PVTZ-RI
    Molecular point group: c1

    Geometry (in Angstrom), charge = 0, multiplicity = 1:

       Center              X                  Y                   Z               Mass
    ------------   -----------------  -----------------  -----------------  -----------------
         O           -2.339781970266    -1.115943094996    -0.120854139879    15.994914619570
         C           -1.524436170266    -0.021708194996     0.322690060121    12.000000000000
         C           -0.169090970266    -0.253657094996    -0.290551139879    12.000000000000
         C            2.336050029734    -0.445117094996    -0.200436139879    12.000000000000
         C            0.975166029734    -0.281847094996     0.402918860121    12.000000000000
         C           -2.109147970266     1.305862905004    -0.122003139879    12.000000000000
         C            3.214459029734     0.786478905004     0.026615860121    12.000000000000
         H           -1.419642970266    -0.040926094996     1.414483860121     1.007825032230
         H           -0.159770970266    -0.384648094996    -1.373301139879     1.007825032230
         H            2.236265029734    -0.639790094996    -1.274020139879     1.007825032230
         H            2.827351029734    -1.323875094996     0.236128860121     1.007825032230
         H            0.937945029734    -0.159262094996     1.487318860121     1.007825032230
         H           -1.475279970266     2.137363905004     0.197082860121     1.007825032230
         H           -2.199703970266     1.326169905004    -1.211235139879     1.007825032230
         H           -3.105721970266     1.450573905004     0.311015860121     1.007825032230
         H            3.331248029734     0.991601905004     1.094753860121     1.007825032230
         H            2.764776029734     1.668143905004    -0.437535139879     1.007825032230
         H            4.211539029734     0.644995905004    -0.399859139879     1.007825032230
         H           -3.237260770266    -0.938111294996     0.215369760121     1.007825032230

  Basis Set: AUG-CC-PVTZ
    Blend: AUG-CC-PVTZ
  Basis Set: (AUG-CC-PVTZ AUX)
    Blend: AUG-CC-PVTZ-JKFIT
	 Reference Energy          =    -309.1491825437711327 [Eh]
	 Singles Energy            =      -0.0000000000000000 [Eh]
	 Same-Spin Energy          =      -0.3165279684941111 [Eh]
	 Opposite-Spin Energy      =      -1.1024321206075451 [Eh]
	 Correlation Energy        =      -1.4189600891016563 [Eh]
	 Total Energy              =    -310.5681426328727639 [Eh]

	 ================> DF-SCS-MP2 Energies <==================
	-----------------------------------------------------------
	 SCS Same-Spin Scale       =       0.3333333333333333 [-]
	 SCS Opposite-Spin Scale   =       1.2000000000000000 [-]
	 SCS Same-Spin Energy      =      -0.1055093228313704 [Eh]
	 SCS Opposite-Spin Energy  =      -1.3229185447290541 [Eh]
	 SCS Correlation Energy    =      -1.4284278675604245 [Eh]
	 SCS Total Energy          =    -310.5776104113315341 [Eh]
	-----------------------------------------------------------

  Dipole Moment: [D]
     X:    -0.1169      Y:     1.3972      Z:     0.8193     Total:     1.6239

*** Psi4 exiting successfully. Buy a developer a beer!
