                               Psi4 1.3.2 release

  ==> Input File <==

--------------------------------------------------------------------------
#psi4
#
memory 32 gb

molecule  {
0 1
  O       -2.3409430    -1.1152500    -0.1201430
  C       -1.5156830    -0.0261920     0.3177710
  C       -0.1702520    -0.2529640    -0.2898400
  C        2.3348890    -0.4444240    -0.1997250
  C        0.9808115    -0.2573371     0.4119711
  C       -2.1103090     1.3065560    -0.1212920
  C        3.1931896     0.7987977     0.0404905
  H       -1.4208040    -0.0402330     1.4151950
  H       -0.1609320    -0.3839550    -1.3725900
  H        2.2351040    -0.6390970    -1.2733090
  H        2.8261900    -1.3231820     0.2368400
  H        0.9367840    -0.1585690     1.4880300
  H       -1.4764410     2.1380570     0.1977940
  H       -2.2008650     1.3268630    -1.2105240
  H       -3.1068830     1.4512670     0.3117270
  H        3.3300870     0.9922950     1.0954650
  H        2.7636150     1.6688370    -0.4368240
  H        4.2103780     0.6456890    -0.3991480
  H       -3.2411570    -0.9446250     0.2124840
units angstrom
no_reorient  #important for SAPT in psi4, default
symmetry c1  #important for SAPT in psi4, default
}

set PROPERTIES_ORIGIN ["COM"]
properties('MP2/aug-cc-pvtz', properties = ['dipole'])
--------------------------------------------------------------------------

    Molecular point group: c1
  Charge       = 0
  Multiplicity = 1
  Basis Set: AUG-CC-PVTZ
    Blend: AUG-CC-PVTZ
  Basis Set: (AUG-CC-PVTZ AUX)
    Blend: AUG-CC-PVTZ-JKFIT

    Orbital Energies [Eh]
    ---------------------

    Doubly Occupied:

       1A    -20.555207     2A    -11.282563     3A    -11.227868
       4A    -11.224615     5A    -11.221998     6A    -11.219069
       7A    -11.214861     8A     -1.353968     9A     -1.089348
      10A     -1.033673    11A     -0.969570    12A     -0.875320
      13A     -0.809878    14A     -0.756696    15A     -0.682089
      16A     -0.633946    17A     -0.624195    18A     -0.598418
      19A     -0.589076    20A     -0.542102    21A     -0.541037
      22A     -0.528739    23A     -0.517942    24A     -0.500352
      25A     -0.485965    26A     -0.461411    27A     -0.443656
      28A     -0.346971

  @DF-RHF Final Energy:  -309.14771084684099

   => Energetics <=

    Nuclear Repulsion Energy =            299.2662195321793206
    One-Electron Energy =               -1012.1667915588150208
    Two-Electron Energy =                 403.7528611797947065
    Total Energy =                       -309.1477108468409938
  Basis Set: (AUG-CC-PVTZ AUX)
    Blend: AUG-CC-PVTZ-RI
    Molecular point group: c1

    Geometry (in Angstrom), charge = 0, multiplicity = 1:

       Center              X                  Y                   Z               Mass
    ------------   -----------------  -----------------  -----------------  -----------------
         O           -2.339348265431    -1.119499188716    -0.122721159227    15.994914619570
         C           -1.514088265431    -0.030441188716     0.315192840773    12.000000000000
         C           -0.168657265431    -0.257213188716    -0.292418159227    12.000000000000
         C            2.336483734569    -0.448673188716    -0.202303159227    12.000000000000
         C            0.982406234569    -0.261586288716     0.409392940773    12.000000000000
         C           -2.108714265431     1.302306811284    -0.123870159227    12.000000000000
         C            3.194784334569     0.794548511284     0.037912340773    12.000000000000
         H           -1.419209265431    -0.044482188716     1.412616840773     1.007825032230
         H           -0.159337265431    -0.388204188716    -1.375168159227     1.007825032230
         H            2.236698734569    -0.643346188716    -1.275887159227     1.007825032230
         H            2.827784734569    -1.327431188716     0.234261840773     1.007825032230
         H            0.938378734569    -0.162818188716     1.485451840773     1.007825032230
         H           -1.474846265431     2.133807811284     0.195215840773     1.007825032230
         H           -2.199270265431     1.322613811284    -1.213102159227     1.007825032230
         H           -3.105288265431     1.447017811284     0.309148840773     1.007825032230
         H            3.331681734569     0.988045811284     1.092886840773     1.007825032230
         H            2.765209734569     1.664587811284    -0.439402159227     1.007825032230
         H            4.211972734569     0.641439811284    -0.401726159227     1.007825032230
         H           -3.239562265431    -0.948874188716     0.209905840773     1.007825032230

  Basis Set: AUG-CC-PVTZ
    Blend: AUG-CC-PVTZ
  Basis Set: (AUG-CC-PVTZ AUX)
    Blend: AUG-CC-PVTZ-JKFIT
	 Reference Energy          =    -309.1477108468409938 [Eh]
	 Singles Energy            =      -0.0000000000000000 [Eh]
	 Same-Spin Energy          =      -0.3166864878762136 [Eh]
	 Opposite-Spin Energy      =      -1.1027385570516448 [Eh]
	 Correlation Energy        =      -1.4194250449278583 [Eh]
	 Total Energy              =    -310.5671358917688281 [Eh]

	 ================> DF-SCS-MP2 Energies <==================
	-----------------------------------------------------------
	 SCS Same-Spin Scale       =       0.3333333333333333 [-]
	 SCS Opposite-Spin Scale   =       1.2000000000000000 [-]
	 SCS Same-Spin Energy      =      -0.1055621626254045 [Eh]
	 SCS Opposite-Spin Energy  =      -1.3232862684619737 [Eh]
	 SCS Correlation Energy    =      -1.4288484310873781 [Eh]
	 SCS Total Energy          =    -310.5765592779283679 [Eh]
	-----------------------------------------------------------

  Dipole Moment: [D]
     X:    -0.0997      Y:     1.3540      Z:     0.8280     Total:     1.5902

*** Psi4 exiting successfully. Buy a developer a beer!
