                               Psi4 1.3.2 release

  ==> Input File <==

--------------------------------------------------------------------------
#psi4
#
memory 32 gb

molecule  {
0 1
  O       -2.3409430    -1.1152500    -0.1201430
  C       -1.5156830    -0.0261920     0.3177710
  C       -0.1702520    -0.2529640    -0.2898400
  C        2.3348890    -0.4444240    -0.1997250
  C        0.9560805    -0.3528740     0.3775143
  C       -2.1103090     1.3065560    -0.1212920
  C        3.2719936     0.7500586    -0.0125623
  H       -1.4208040    -0.0402330     1.4151950
  H       -0.1609320    -0.3839550    -1.3725900
  H        2.2351040    -0.6390970    -1.2733090
  H        2.8261900    -1.3231820     0.2368400
  H        0.9367840    -0.1585690     1.4880300
  H       -1.4764410     2.1380570     0.1977940
  H       -2.2008650     1.3268630    -1.2105240
  H       -3.1068830     1.4512670     0.3117270
  H        3.3300870     0.9922950     1.0954650
  H        2.7636150     1.6688370    -0.4368240
  H        4.2103780     0.6456890    -0.3991480
  H       -3.2411570    -0.9446250     0.2124840
units angstrom
no_reorient  #important for SAPT in psi4, default
symmetry c1  #important for SAPT in psi4, default
}

set PROPERTIES_ORIGIN ["COM"]
properties('MP2/aug-cc-pvtz', properties = ['dipole'])
--------------------------------------------------------------------------

    Molecular point group: c1
  Charge       = 0
  Multiplicity = 1
  Basis Set: AUG-CC-PVTZ
    Blend: AUG-CC-PVTZ
  Basis Set: (AUG-CC-PVTZ AUX)
    Blend: AUG-CC-PVTZ-JKFIT

    Orbital Energies [Eh]
    ---------------------

    Doubly Occupied:

       1A    -20.555973     2A    -11.284105     3A    -11.228510
       4A    -11.224841     5A    -11.220418     6A    -11.219080
       7A    -11.218074     8A     -1.354813     9A     -1.092700
      10A     -1.033935    11A     -0.976146    12A     -0.878723
      13A     -0.813250    14A     -0.750299    15A     -0.679971
      16A     -0.633214    17A     -0.626858    18A     -0.603571
      19A     -0.586502    20A     -0.554846    21A     -0.540200
      22A     -0.531475    23A     -0.514601    24A     -0.498604
      25A     -0.469560    26A     -0.460896    27A     -0.444113
      28A     -0.357631

  @DF-RHF Final Energy:  -309.13884222331046

   => Energetics <=

    Nuclear Repulsion Energy =            299.0234135874971457
    One-Electron Energy =               -1011.6186930721736417
    Two-Electron Energy =                 403.4564372613659771
    Total Energy =                       -309.1388422233104620
  Basis Set: (AUG-CC-PVTZ AUX)
    Blend: AUG-CC-PVTZ-RI
    Molecular point group: c1

    Geometry (in Angstrom), charge = 0, multiplicity = 1:

       Center              X                  Y                   Z               Mass
    ------------   -----------------  -----------------  -----------------  -----------------
         O           -2.345831267552    -1.102201431720    -0.112229325550    15.994914619570
         C           -1.520571267552    -0.013143431720     0.325684674450    12.000000000000
         C           -0.175140267552    -0.239915431720    -0.281926325550    12.000000000000
         C            2.330000732448    -0.431375431720    -0.191811325550    12.000000000000
         C            0.951192232448    -0.339825431720     0.385427974450    12.000000000000
         C           -2.115197267552     1.319604568280    -0.113378325550    12.000000000000
         C            3.267105332448     0.763107168280    -0.004648625550    12.000000000000
         H           -1.425692267552    -0.027184431720     1.423108674450     1.007825032230
         H           -0.165820267552    -0.370906431720    -1.364676325550     1.007825032230
         H            2.230215732448    -0.626048431720    -1.265395325550     1.007825032230
         H            2.821301732448    -1.310133431720     0.244753674450     1.007825032230
         H            0.931895732448    -0.145520431720     1.495943674450     1.007825032230
         H           -1.481329267552     2.151105568280     0.205707674450     1.007825032230
         H           -2.205753267552     1.339911568280    -1.202610325550     1.007825032230
         H           -3.111771267552     1.464315568280     0.319640674450     1.007825032230
         H            3.325198732448     1.005343568280     1.103378674450     1.007825032230
         H            2.758726732448     1.681885568280    -0.428910325550     1.007825032230
         H            4.205489732448     0.658737568280    -0.391234325550     1.007825032230
         H           -3.246045267552    -0.931576431720     0.220397674450     1.007825032230

  Basis Set: AUG-CC-PVTZ
    Blend: AUG-CC-PVTZ
  Basis Set: (AUG-CC-PVTZ AUX)
    Blend: AUG-CC-PVTZ-JKFIT
	 Reference Energy          =    -309.1388422233104620 [Eh]
	 Singles Energy            =      -0.0000000000000000 [Eh]
	 Same-Spin Energy          =      -0.3164925663592261 [Eh]
	 Opposite-Spin Energy      =      -1.1023747698153805 [Eh]
	 Correlation Energy        =      -1.4188673361746065 [Eh]
	 Total Energy              =    -310.5577095594850903 [Eh]

	 ================> DF-SCS-MP2 Energies <==================
	-----------------------------------------------------------
	 SCS Same-Spin Scale       =       0.3333333333333333 [-]
	 SCS Opposite-Spin Scale   =       1.2000000000000000 [-]
	 SCS Same-Spin Energy      =      -0.1054975221197420 [Eh]
	 SCS Opposite-Spin Energy  =      -1.3228497237784567 [Eh]
	 SCS Correlation Energy    =      -1.4283472458981987 [Eh]
	 SCS Total Energy          =    -310.5671894692086425 [Eh]
	-----------------------------------------------------------

  Dipole Moment: [D]
     X:    -0.1226      Y:     1.4457      Z:     0.7625     Total:     1.6390

*** Psi4 exiting successfully. Buy a developer a beer!
