                               Psi4 1.3.2 release

  ==> Input File <==

--------------------------------------------------------------------------
#psi4
#
memory 32 gb

molecule  {
0 1
  O       -2.3463951    -1.1291859    -0.0723468
  C       -1.5156830    -0.0261920     0.3177710
  C       -0.1702520    -0.2529640    -0.2898400
  C        2.3348890    -0.4444240    -0.1997250
  C        0.9740050    -0.2811540     0.4036300
  C       -2.1103090     1.3065560    -0.1212920
  C        3.2132980     0.7871720     0.0273270
  H       -1.4431971    -0.0714791     1.4160576
  H       -0.1609320    -0.3839550    -1.3725900
  H        2.2351040    -0.6390970    -1.2733090
  H        2.8261900    -1.3231820     0.2368400
  H        0.9367840    -0.1585690     1.4880300
  H       -1.4764410     2.1380570     0.1977940
  H       -2.2008650     1.3268630    -1.2105240
  H       -3.1068830     1.4512670     0.3117270
  H        3.3300870     0.9922950     1.0954650
  H        2.7636150     1.6688370    -0.4368240
  H        4.2103780     0.6456890    -0.3991480
  H       -3.2411570    -0.9446250     0.2124840
units angstrom
no_reorient  #important for SAPT in psi4, default
symmetry c1  #important for SAPT in psi4, default
}

set PROPERTIES_ORIGIN ["COM"]
properties('MP2/aug-cc-pvtz', properties = ['dipole'])
--------------------------------------------------------------------------

    Molecular point group: c1
  Charge       = 0
  Multiplicity = 1
  Basis Set: AUG-CC-PVTZ
    Blend: AUG-CC-PVTZ
  Basis Set: (AUG-CC-PVTZ AUX)
    Blend: AUG-CC-PVTZ-JKFIT

    Orbital Energies [Eh]
    ---------------------

    Doubly Occupied:

       1A    -20.551398     2A    -11.282695     3A    -11.228235
       4A    -11.224738     5A    -11.221422     6A    -11.220528
       7A    -11.215455     8A     -1.356133     9A     -1.090452
      10A     -1.034173    11A     -0.971565    12A     -0.876667
      13A     -0.812079    14A     -0.754976    15A     -0.680909
      16A     -0.635818    17A     -0.626941    18A     -0.598479
      19A     -0.589618    20A     -0.543141    21A     -0.540551
      22A     -0.531528    23A     -0.516438    24A     -0.501103
      25A     -0.482200    26A     -0.463296    27A     -0.442186
      28A     -0.350380

  @DF-RHF Final Energy:  -309.15015066919659

   => Energetics <=

    Nuclear Repulsion Energy =            299.1107908180051709
    One-Electron Energy =               -1011.8356752403442442
    Two-Electron Energy =                 403.5747337531424819
    Total Energy =                       -309.1501506691965915
  Basis Set: (AUG-CC-PVTZ AUX)
    Blend: AUG-CC-PVTZ-RI
    Molecular point group: c1

    Geometry (in Angstrom), charge = 0, multiplicity = 1:

       Center              X                  Y                   Z               Mass
    ------------   -----------------  -----------------  -----------------  -----------------
         O           -2.345298409086    -1.126644066839    -0.079993560428    15.994914619570
         C           -1.514586309086    -0.023650166839     0.310124239572    12.000000000000
         C           -0.169155309086    -0.250422166839    -0.297486760428    12.000000000000
         C            2.335985690914    -0.441882166839    -0.207371760428    12.000000000000
         C            0.975101690914    -0.278612166839     0.395983239572    12.000000000000
         C           -2.109212309086     1.309097833161    -0.128938760428    12.000000000000
         C            3.214394690914     0.789713833161     0.019680239572    12.000000000000
         H           -1.442100409086    -0.068937266839     1.408410839572     1.007825032230
         H           -0.159835309086    -0.381413166839    -1.380236760428     1.007825032230
         H            2.236200690914    -0.636555166839    -1.280955760428     1.007825032230
         H            2.827286690914    -1.320640166839     0.229193239572     1.007825032230
         H            0.937880690914    -0.156027166839     1.480383239572     1.007825032230
         H           -1.475344309086     2.140598833161     0.190147239572     1.007825032230
         H           -2.199768309086     1.329404833161    -1.218170760428     1.007825032230
         H           -3.105786309086     1.453808833161     0.304080239572     1.007825032230
         H            3.331183690914     0.994836833161     1.087818239572     1.007825032230
         H            2.764711690914     1.671378833161    -0.444470760428     1.007825032230
         H            4.211474690914     0.648230833161    -0.406794760428     1.007825032230
         H           -3.240060309086    -0.942083166839     0.204837239572     1.007825032230

  Basis Set: AUG-CC-PVTZ
    Blend: AUG-CC-PVTZ
  Basis Set: (AUG-CC-PVTZ AUX)
    Blend: AUG-CC-PVTZ-JKFIT
	 Reference Energy          =    -309.1501506691965915 [Eh]
	 Singles Energy            =      -0.0000000000000000 [Eh]
	 Same-Spin Energy          =      -0.3161879168823705 [Eh]
	 Opposite-Spin Energy      =      -1.1016215808552141 [Eh]
	 Correlation Energy        =      -1.4178094977375846 [Eh]
	 Total Energy              =    -310.5679601669341992 [Eh]

	 ================> DF-SCS-MP2 Energies <==================
	-----------------------------------------------------------
	 SCS Same-Spin Scale       =       0.3333333333333333 [-]
	 SCS Opposite-Spin Scale   =       1.2000000000000000 [-]
	 SCS Same-Spin Energy      =      -0.1053959722941235 [Eh]
	 SCS Opposite-Spin Energy  =      -1.3219458970262570 [Eh]
	 SCS Correlation Energy    =      -1.4273418693203805 [Eh]
	 SCS Total Energy          =    -310.5774925385169922 [Eh]
	-----------------------------------------------------------

  Dipole Moment: [D]
     X:    -0.0765      Y:     1.4419      Z:     0.7202     Total:     1.6136

*** Psi4 exiting successfully. Buy a developer a beer!
