                               Psi4 1.3.2 release

  ==> Input File <==

--------------------------------------------------------------------------
#psi4
#
memory 32 gb

molecule  {
0 1
  O       -2.3409430    -1.1152500    -0.1201430
  C       -1.6307117    -0.1779902     0.2567324
  C       -0.1702520    -0.2529640    -0.2898400
  C        2.3348890    -0.4444240    -0.1997250
  C        0.9740050    -0.2811540     0.4036300
  C       -2.1103090     1.3065560    -0.1212920
  C        3.2132980     0.7871720     0.0273270
  H       -1.4208040    -0.0402330     1.4151950
  H       -0.1609320    -0.3839550    -1.3725900
  H        2.2351040    -0.6390970    -1.2733090
  H        2.8261900    -1.3231820     0.2368400
  H        0.9367840    -0.1585690     1.4880300
  H       -1.4764410     2.1380570     0.1977940
  H       -2.2008650     1.3268630    -1.2105240
  H       -3.1068830     1.4512670     0.3117270
  H        3.3300870     0.9922950     1.0954650
  H        2.7636150     1.6688370    -0.4368240
  H        4.2103780     0.6456890    -0.3991480
  H       -3.2411570    -0.9446250     0.2124840
units angstrom
no_reorient  #important for SAPT in psi4, default
symmetry c1  #important for SAPT in psi4, default
}

set PROPERTIES_ORIGIN ["COM"]
properties('MP2/aug-cc-pvtz', properties = ['dipole'])
--------------------------------------------------------------------------

    Molecular point group: c1
  Charge       = 0
  Multiplicity = 1
  Basis Set: AUG-CC-PVTZ
    Blend: AUG-CC-PVTZ
  Basis Set: (AUG-CC-PVTZ AUX)
    Blend: AUG-CC-PVTZ-JKFIT

    Orbital Energies [Eh]
    ---------------------

    Doubly Occupied:

       1A    -20.581873     2A    -11.292323     3A    -11.222765
       4A    -11.221533     5A    -11.218698     6A    -11.214879
       7A    -11.211877     8A     -1.458969     9A     -1.079892
      10A     -1.015544    11A     -0.959168    12A     -0.877600
      13A     -0.824086    14A     -0.749441    15A     -0.718728
      16A     -0.662992    17A     -0.645863    18A     -0.599670
      19A     -0.594010    20A     -0.551581    21A     -0.538191
      22A     -0.530476    23A     -0.521787    24A     -0.501076
      25A     -0.478171    26A     -0.432764    27A     -0.407432
      28A     -0.340748

  @DF-RHF Final Energy:  -309.10699310639706

   => Energetics <=

    Nuclear Repulsion Energy =            300.0505565385735167
    One-Electron Energy =               -1013.4108225933563290
    Two-Electron Energy =                 404.2532729483858134
    Total Energy =                       -309.1069931063970557
  Basis Set: (AUG-CC-PVTZ AUX)
    Blend: AUG-CC-PVTZ-RI
    Molecular point group: c1

    Geometry (in Angstrom), charge = 0, multiplicity = 1:

       Center              X                  Y                   Z               Mass
    ------------   -----------------  -----------------  -----------------  -----------------
         O           -2.327151881650    -1.097050230760    -0.112824764710    15.994914619570
         C           -1.616920581650    -0.159790430760     0.264050635290    12.000000000000
         C           -0.156460881650    -0.234764230760    -0.282521764710    12.000000000000
         C            2.348680118350    -0.426224230760    -0.192406764710    12.000000000000
         C            0.987796118350    -0.262954230760     0.410948235290    12.000000000000
         C           -2.096517881650     1.324755769240    -0.113973764710    12.000000000000
         C            3.227089118350     0.805371769240     0.034645235290    12.000000000000
         H           -1.407012881650    -0.022033230760     1.422513235290     1.007825032230
         H           -0.147140881650    -0.365755230760    -1.365271764710     1.007825032230
         H            2.248895118350    -0.620897230760    -1.265990764710     1.007825032230
         H            2.839981118350    -1.304982230760     0.244158235290     1.007825032230
         H            0.950575118350    -0.140369230760     1.495348235290     1.007825032230
         H           -1.462649881650     2.156256769240     0.205112235290     1.007825032230
         H           -2.187073881650     1.345062769240    -1.203205764710     1.007825032230
         H           -3.093091881650     1.469466769240     0.319045235290     1.007825032230
         H            3.343878118350     1.010494769240     1.102783235290     1.007825032230
         H            2.777406118350     1.687036769240    -0.429505764710     1.007825032230
         H            4.224169118350     0.663888769240    -0.391829764710     1.007825032230
         H           -3.227365881650    -0.926425230760     0.219802235290     1.007825032230

  Basis Set: AUG-CC-PVTZ
    Blend: AUG-CC-PVTZ
  Basis Set: (AUG-CC-PVTZ AUX)
    Blend: AUG-CC-PVTZ-JKFIT
	 Reference Energy          =    -309.1069931063970557 [Eh]
	 Singles Energy            =      -0.0000000000000000 [Eh]
	 Same-Spin Energy          =      -0.3169962245939845 [Eh]
	 Opposite-Spin Energy      =      -1.1015344695822358 [Eh]
	 Correlation Energy        =      -1.4185306941762204 [Eh]
	 Total Energy              =    -310.5255238005732963 [Eh]

	 ================> DF-SCS-MP2 Energies <==================
	-----------------------------------------------------------
	 SCS Same-Spin Scale       =       0.3333333333333333 [-]
	 SCS Opposite-Spin Scale   =       1.2000000000000000 [-]
	 SCS Same-Spin Energy      =      -0.1056654081979948 [Eh]
	 SCS Opposite-Spin Energy  =      -1.3218413634986830 [Eh]
	 SCS Correlation Energy    =      -1.4275067716966778 [Eh]
	 SCS Total Energy          =    -310.5344998780937544 [Eh]
	-----------------------------------------------------------

  Dipole Moment: [D]
     X:    -0.7338      Y:     0.6459      Z:     0.5750     Total:     1.1341

*** Psi4 exiting successfully. Buy a developer a beer!
