                               Psi4 1.3.2 release

  ==> Input File <==

--------------------------------------------------------------------------
#psi4
#
memory 32 gb

molecule  {
0 1
  O       -2.3409430    -1.1152500    -0.1201430
  C       -1.5368189    -0.0303878     0.2702993
  C       -0.1702520    -0.2529640    -0.2898400
  C        2.3348890    -0.4444240    -0.1997250
  C        0.9970229    -0.2890449     0.3637553
  C       -2.1103090     1.3065560    -0.1212920
  C        3.2132980     0.7871720     0.0273270
  H       -1.4208040    -0.0402330     1.4151950
  H       -0.1609320    -0.3839550    -1.3725900
  H        2.2351040    -0.6390970    -1.2733090
  H        2.8261900    -1.3231820     0.2368400
  H        0.9367840    -0.1585690     1.4880300
  H       -1.4764410     2.1380570     0.1977940
  H       -2.2008650     1.3268630    -1.2105240
  H       -3.1068830     1.4512670     0.3117270
  H        3.3300870     0.9922950     1.0954650
  H        2.7636150     1.6688370    -0.4368240
  H        4.2103780     0.6456890    -0.3991480
  H       -3.2411570    -0.9446250     0.2124840
units angstrom
no_reorient  #important for SAPT in psi4, default
symmetry c1  #important for SAPT in psi4, default
}

set PROPERTIES_ORIGIN ["COM"]
properties('MP2/aug-cc-pvtz', properties = ['dipole'])
--------------------------------------------------------------------------

    Molecular point group: c1
  Charge       = 0
  Multiplicity = 1
  Basis Set: AUG-CC-PVTZ
    Blend: AUG-CC-PVTZ
  Basis Set: (AUG-CC-PVTZ AUX)
    Blend: AUG-CC-PVTZ-JKFIT

    Orbital Energies [Eh]
    ---------------------

    Doubly Occupied:

       1A    -20.559468     2A    -11.286079     3A    -11.230051
       4A    -11.223417     5A    -11.220232     6A    -11.219353
       7A    -11.216210     8A     -1.367064     9A     -1.093146
      10A     -1.036948    11A     -0.972831    12A     -0.879935
      13A     -0.812280    14A     -0.745748    15A     -0.683346
      16A     -0.639753    17A     -0.630760    18A     -0.603855
      19A     -0.589304    20A     -0.544167    21A     -0.540704
      22A     -0.526960    23A     -0.520774    24A     -0.505185
      25A     -0.478807    26A     -0.463968    27A     -0.434469
      28A     -0.349076

  @DF-RHF Final Energy:  -309.14339370799843

   => Energetics <=

    Nuclear Repulsion Energy =            299.7636836633244002
    One-Electron Energy =               -1013.0663797627273652
    Two-Electron Energy =                 404.1593023914045375
    Total Energy =                       -309.1433937079984275
  Basis Set: (AUG-CC-PVTZ AUX)
    Blend: AUG-CC-PVTZ-RI
    Molecular point group: c1

    Geometry (in Angstrom), charge = 0, multiplicity = 1:

       Center              X                  Y                   Z               Mass
    ------------   -----------------  -----------------  -----------------  -----------------
         O           -2.341168716597    -1.113800733799    -0.109670630055    15.994914619570
         C           -1.537044616597    -0.028938533799     0.280771669945    12.000000000000
         C           -0.170477716597    -0.251514733799    -0.279367630055    12.000000000000
         C            2.334663283403    -0.442974733799    -0.189252630055    12.000000000000
         C            0.996797183403    -0.287595633799     0.374227669945    12.000000000000
         C           -2.110534716597     1.308005266201    -0.110819630055    12.000000000000
         C            3.213072283403     0.788621266201     0.037799369945    12.000000000000
         H           -1.421029716597    -0.038783733799     1.425667369945     1.007825032230
         H           -0.161157716597    -0.382505733799    -1.362117630055     1.007825032230
         H            2.234878283403    -0.637647733799    -1.262836630055     1.007825032230
         H            2.825964283403    -1.321732733799     0.247312369945     1.007825032230
         H            0.936558283403    -0.157119733799     1.498502369945     1.007825032230
         H           -1.476666716597     2.139506266201     0.208266369945     1.007825032230
         H           -2.201090716597     1.328312266201    -1.200051630055     1.007825032230
         H           -3.107108716597     1.452716266201     0.322199369945     1.007825032230
         H            3.329861283403     0.993744266201     1.105937369945     1.007825032230
         H            2.763389283403     1.670286266201    -0.426351630055     1.007825032230
         H            4.210152283403     0.647138266201    -0.388675630055     1.007825032230
         H           -3.241382716597    -0.943175733799     0.222956369945     1.007825032230

  Basis Set: AUG-CC-PVTZ
    Blend: AUG-CC-PVTZ
  Basis Set: (AUG-CC-PVTZ AUX)
    Blend: AUG-CC-PVTZ-JKFIT
	 Reference Energy          =    -309.1433937079984275 [Eh]
	 Singles Energy            =      -0.0000000000000000 [Eh]
	 Same-Spin Energy          =      -0.3171409614763405 [Eh]
	 Opposite-Spin Energy      =      -1.1028694437906399 [Eh]
	 Correlation Energy        =      -1.4200104052669804 [Eh]
	 Total Energy              =    -310.5634041132653920 [Eh]

	 ================> DF-SCS-MP2 Energies <==================
	-----------------------------------------------------------
	 SCS Same-Spin Scale       =       0.3333333333333333 [-]
	 SCS Opposite-Spin Scale   =       1.2000000000000000 [-]
	 SCS Same-Spin Energy      =      -0.1057136538254468 [Eh]
	 SCS Opposite-Spin Energy  =      -1.3234433325487678 [Eh]
	 SCS Correlation Energy    =      -1.4291569863742146 [Eh]
	 SCS Total Energy          =    -310.5725506943726373 [Eh]
	-----------------------------------------------------------

  Dipole Moment: [D]
     X:    -0.1477      Y:     1.3419      Z:     0.7104     Total:     1.5255

*** Psi4 exiting successfully. Buy a developer a beer!
