                               Psi4 1.4a3.dev225

  ==> Input File <==

--------------------------------------------------------------------------
#psi4
#
memory 32 gb

molecule  {
0 1
  O       -2.4334040    -1.0537050    -0.1031880
  C       -1.5599110     0.0061750     0.3163080
  C       -0.2252920    -0.2882920    -0.2906650
  C        2.2718840    -0.5904540    -0.1973150
  C        0.8757513    -0.3556454     0.3780774
  C       -2.0985830     1.3582810    -0.1413790
  C        3.2072160     0.6032460     0.0168350
  H       -1.4627270     0.0051460     1.4138490
  H       -0.2231950    -0.4335060    -1.3719210
  H        2.1635620    -0.7923810    -1.2691220
  H        2.7222980    -1.4861610     0.2495370
  H        0.8868390    -0.2195170     1.4869310
  H       -1.4287050     2.1666040     0.1650490
  H       -2.1908800     1.3667930    -1.2308750
  H       -3.0873820     1.5512680     0.2912850
  H        3.3343300     0.8133780     1.0831920
  H        2.7976640     1.4999730    -0.4563300
  H        4.1964720     0.4112550    -0.4090930
  H       -3.3235000    -0.8374140     0.2263080
units angstrom
no_reorient  #important for SAPT in psi4, default
symmetry c1  #important for SAPT in psi4, default
}

set PROPERTIES_ORIGIN ["COM"]
properties('MP2/aug-cc-pvtz', properties = ['dipole'])
--------------------------------------------------------------------------

    Molecular point group: c1
  Charge       = 0
  Multiplicity = 1
  Basis Set: AUG-CC-PVTZ
    Blend: AUG-CC-PVTZ
  Basis Set: (AUG-CC-PVTZ AUX)
    Blend: AUG-CC-PVTZ-JKFIT

    Orbital Energies [Eh]
    ---------------------

    Doubly Occupied:

       1A    -20.555281     2A    -11.283076     3A    -11.226139
       4A    -11.224107     5A    -11.219793     6A    -11.215621
       7A    -11.214265     8A     -1.353968     9A     -1.093414
      10A     -1.031464    11A     -0.976348    12A     -0.872863
      13A     -0.813111    14A     -0.751117    15A     -0.680017
      16A     -0.633332    17A     -0.624932    18A     -0.598669
      19A     -0.588091    20A     -0.543113    21A     -0.539206
      22A     -0.533150    23A     -0.515611    24A     -0.501790
      25A     -0.481209    26A     -0.453145    27A     -0.443959
      28A     -0.362731

  @DF-RHF Final Energy:  -309.14773445486406

   => Energetics <=

    Nuclear Repulsion Energy =            299.3757055744811169
    One-Electron Energy =               -1012.3878336178268000
    Two-Electron Energy =                 403.8643935884816187
    Total Energy =                       -309.1477344548640644
  Basis Set: (AUG-CC-PVTZ AUX)
    Blend: AUG-CC-PVTZ-RI
    Molecular point group: c1

    Geometry (in Angstrom), charge = 0, multiplicity = 1:

       Center              X                  Y                   Z               Mass
    ------------   -----------------  -----------------  -----------------  -----------------
         O           -2.384944852981    -1.013969285013    -0.098312957212    15.994914619570
         C           -1.511451852981     0.045910714987     0.321183042788    12.000000000000
         C           -0.176832852981    -0.248556285013    -0.285789957212    12.000000000000
         C            2.320343147019    -0.550718285013    -0.192439957212    12.000000000000
         C            0.924210447019    -0.315909685013     0.382952442788    12.000000000000
         C           -2.050123852981     1.398016714987    -0.136503957212    12.000000000000
         C            3.255675147019     0.642981714987     0.021710042788    12.000000000000
         H           -1.414267852981     0.044881714987     1.418724042788     1.007825032230
         H           -0.174735852981    -0.393770285013    -1.367045957212     1.007825032230
         H            2.212021147019    -0.752645285013    -1.264246957212     1.007825032230
         H            2.770757147019    -1.446425285013     0.254412042788     1.007825032230
         H            0.935298147019    -0.179781285013     1.491806042788     1.007825032230
         H           -1.380245852981     2.206339714987     0.169924042788     1.007825032230
         H           -2.142420852981     1.406528714987    -1.225999957212     1.007825032230
         H           -3.038922852981     1.591003714987     0.296160042788     1.007825032230
         H            3.382789147019     0.853113714987     1.088067042788     1.007825032230
         H            2.846123147019     1.539708714987    -0.451454957212     1.007825032230
         H            4.244931147019     0.450990714987    -0.404217957212     1.007825032230
         H           -3.275040852981    -0.797678285013     0.231183042788     1.007825032230

  Basis Set: AUG-CC-PVTZ
    Blend: AUG-CC-PVTZ
  Basis Set: (AUG-CC-PVTZ AUX)
    Blend: AUG-CC-PVTZ-JKFIT
	 Reference Energy          =    -309.1477344548640644 [Eh]
	 Singles Energy            =      -0.0000000000000000 [Eh]
	 Same-Spin Energy          =      -0.3158680739426636 [Eh]
	 Opposite-Spin Energy      =      -1.1011869954451223 [Eh]
	 Correlation Energy        =      -1.4170550693877859 [Eh]
	 Total Energy              =    -310.5647895242518643 [Eh]

	 ================> DF-SCS-MP2 Energies <==================
	-----------------------------------------------------------
	 SCS Same-Spin Scale       =       0.3333333333333333 [-]
	 SCS Opposite-Spin Scale   =       1.2000000000000000 [-]
	 SCS Same-Spin Energy      =      -0.1052893579808879 [Eh]
	 SCS Opposite-Spin Energy  =      -1.3214243945341468 [Eh]
	 SCS Correlation Energy    =      -1.4267137525150346 [Eh]
	 SCS Total Energy          =    -310.5744482073790778 [Eh]
	-----------------------------------------------------------

  Dipole Moment: [D]
     X:    -0.0568      Y:     1.4054      Z:     0.7757     Total:     1.6063

*** Psi4 exiting successfully. Buy a developer a beer!
