                               Psi4 1.3.2 release

  ==> Input File <==

--------------------------------------------------------------------------
#psi4
#
memory 32 gb

molecule  {
0 1
  O       -2.3488331    -1.1070796    -0.1254139
  C       -1.5156830    -0.0261920     0.3177710
  C       -0.1702520    -0.2529640    -0.2898400
  C        2.3348890    -0.4444240    -0.1997250
  C        0.9740050    -0.2811540     0.4036300
  C       -2.1204041     1.3000890    -0.1270488
  C        3.2132980     0.7871720     0.0273270
  H       -1.4208040    -0.0402330     1.4151950
  H       -0.1609320    -0.3839550    -1.3725900
  H        2.2351040    -0.6390970    -1.2733090
  H        2.8261900    -1.3231820     0.2368400
  H        0.9367840    -0.1585690     1.4880300
  H       -1.4764410     2.1380570     0.1977940
  H       -2.2008650     1.3268630    -1.2105240
  H       -3.1068830     1.4512670     0.3117270
  H        3.3300870     0.9922950     1.0954650
  H        2.7636150     1.6688370    -0.4368240
  H        4.2103780     0.6456890    -0.3991480
  H       -3.2411570    -0.9446250     0.2124840
units angstrom
no_reorient  #important for SAPT in psi4, default
symmetry c1  #important for SAPT in psi4, default
}

set PROPERTIES_ORIGIN ["COM"]
properties('MP2/aug-cc-pvtz', properties = ['dipole'])
--------------------------------------------------------------------------

    Molecular point group: c1
  Charge       = 0
  Multiplicity = 1
  Basis Set: AUG-CC-PVTZ
    Blend: AUG-CC-PVTZ
  Basis Set: (AUG-CC-PVTZ AUX)
    Blend: AUG-CC-PVTZ-JKFIT

    Orbital Energies [Eh]
    ---------------------

    Doubly Occupied:

       1A    -20.553845     2A    -11.282940     3A    -11.228059
       4A    -11.224671     5A    -11.221172     6A    -11.218800
       7A    -11.215374     8A     -1.355065     9A     -1.090253
      10A     -1.033575    11A     -0.971174    12A     -0.876185
      13A     -0.810861    14A     -0.755243    15A     -0.683019
      16A     -0.633935    17A     -0.623777    18A     -0.598072
      19A     -0.589327    20A     -0.543917    21A     -0.541061
      22A     -0.531167    23A     -0.516016    24A     -0.500364
      25A     -0.482100    26A     -0.463184    27A     -0.443398
      28A     -0.350159

  @DF-RHF Final Energy:  -309.14972246662830

   => Energetics <=

    Nuclear Repulsion Energy =            299.2298327187441487
    One-Electron Energy =               -1012.0856844810870143
    Two-Electron Energy =                 403.7061292957145042
    Total Energy =                       -309.1497224666283046
  Basis Set: (AUG-CC-PVTZ AUX)
    Blend: AUG-CC-PVTZ-RI
    Molecular point group: c1

    Geometry (in Angstrom), charge = 0, multiplicity = 1:

       Center              X                  Y                   Z               Mass
    ------------   -----------------  -----------------  -----------------  -----------------
         O           -2.346361945065    -1.107609788251    -0.123881266273    15.994914619570
         C           -1.513211845065    -0.026722188251     0.319303633727    12.000000000000
         C           -0.167780845065    -0.253494188251    -0.288307366273    12.000000000000
         C            2.337360154935    -0.444954188251    -0.198192366273    12.000000000000
         C            0.976476154935    -0.281684188251     0.405162633727    12.000000000000
         C           -2.117932945065     1.299558811749    -0.125516166273    12.000000000000
         C            3.215769154935     0.786641811749     0.028859633727    12.000000000000
         H           -1.418332845065    -0.040763188251     1.416727633727     1.007825032230
         H           -0.158460845065    -0.384485188251    -1.371057366273     1.007825032230
         H            2.237575154935    -0.639627188251    -1.271776366273     1.007825032230
         H            2.828661154935    -1.323712188251     0.238372633727     1.007825032230
         H            0.939255154935    -0.159099188251     1.489562633727     1.007825032230
         H           -1.473969845065     2.137526811749     0.199326633727     1.007825032230
         H           -2.198393845065     1.326332811749    -1.208991366273     1.007825032230
         H           -3.104411845065     1.450736811749     0.313259633727     1.007825032230
         H            3.332558154935     0.991764811749     1.096997633727     1.007825032230
         H            2.766086154935     1.668306811749    -0.435291366273     1.007825032230
         H            4.212849154935     0.645158811749    -0.397615366273     1.007825032230
         H           -3.238685845065    -0.945155188251     0.214016633727     1.007825032230

  Basis Set: AUG-CC-PVTZ
    Blend: AUG-CC-PVTZ
  Basis Set: (AUG-CC-PVTZ AUX)
    Blend: AUG-CC-PVTZ-JKFIT
	 Reference Energy          =    -309.1497224666283046 [Eh]
	 Singles Energy            =      -0.0000000000000000 [Eh]
	 Same-Spin Energy          =      -0.3164216187560326 [Eh]
	 Opposite-Spin Energy      =      -1.1021042500430038 [Eh]
	 Correlation Energy        =      -1.4185258687990365 [Eh]
	 Total Energy              =    -310.5682483354273131 [Eh]

	 ================> DF-SCS-MP2 Energies <==================
	-----------------------------------------------------------
	 SCS Same-Spin Scale       =       0.3333333333333333 [-]
	 SCS Opposite-Spin Scale   =       1.2000000000000000 [-]
	 SCS Same-Spin Energy      =      -0.1054738729186775 [Eh]
	 SCS Opposite-Spin Energy  =      -1.3225251000516045 [Eh]
	 SCS Correlation Energy    =      -1.4279989729702820 [Eh]
	 SCS Total Energy          =    -310.5777214395985766 [Eh]
	-----------------------------------------------------------

  Dipole Moment: [D]
     X:    -0.0736      Y:     1.3592      Z:     0.8283     Total:     1.5934

*** Psi4 exiting successfully. Buy a developer a beer!
