                               Psi4 1.3.2 release

  ==> Input File <==

--------------------------------------------------------------------------
#psi4
#
memory 32 gb

molecule  {
0 1
  O       -2.3409430    -1.1152500    -0.1201430
  C       -1.5156830    -0.0261920     0.3177710
  C       -0.1702520    -0.2529640    -0.2898400
  C        2.3348890    -0.4444240    -0.1997250
  C        0.9740050    -0.2811540     0.4036300
  C       -2.1103090     1.3065560    -0.1212920
  C        3.2132980     0.7871720     0.0273270
  H       -1.4208040    -0.0402330     1.4151950
  H       -0.1609320    -0.3839550    -1.3725900
  H        2.2351040    -0.6390970    -1.2733090
  H        2.8261900    -1.3231820     0.2368400
  H        0.9367840    -0.1585690     1.4880300
  H       -1.4764410     2.1380570     0.1977940
  H       -2.2008650     1.3268630    -1.2105240
  H       -3.1068830     1.4512670     0.3117270
  H        3.3300870     0.9922950     1.0954650
  H        2.7636150     1.6688370    -0.4368240
  H        4.2103780     0.6456890    -0.3991480
  H       -3.3335103    -0.9271205     0.2466083
units angstrom
no_reorient  #important for SAPT in psi4, default
symmetry c1  #important for SAPT in psi4, default
}

set PROPERTIES_ORIGIN ["COM"]
properties('MP2/aug-cc-pvtz', properties = ['dipole'])
--------------------------------------------------------------------------

    Molecular point group: c1
  Charge       = 0
  Multiplicity = 1
  Basis Set: AUG-CC-PVTZ
    Blend: AUG-CC-PVTZ
  Basis Set: (AUG-CC-PVTZ AUX)
    Blend: AUG-CC-PVTZ-JKFIT

    Orbital Energies [Eh]
    ---------------------

    Doubly Occupied:

       1A    -20.563768     2A    -11.281972     3A    -11.227734
       4A    -11.224432     5A    -11.220850     6A    -11.218675
       7A    -11.215195     8A     -1.336107     9A     -1.088759
      10A     -1.030825    11A     -0.970665    12A     -0.873636
      13A     -0.806418    14A     -0.754626    15A     -0.669465
      16A     -0.631245    17A     -0.617184    18A     -0.597789
      19A     -0.588693    20A     -0.541046    21A     -0.539299
      22A     -0.529985    23A     -0.515949    24A     -0.499656
      25A     -0.481778    26A     -0.460702    27A     -0.441694
      28A     -0.349593

  @DF-RHF Final Energy:  -309.13581431947341

   => Energetics <=

    Nuclear Repulsion Energy =            298.6589483778511749
    One-Electron Energy =               -1011.0340464539639243
    Two-Electron Energy =                 403.2392837566393382
    Total Energy =                       -309.1358143194734112
  Basis Set: (AUG-CC-PVTZ AUX)
    Blend: AUG-CC-PVTZ-RI
    Molecular point group: c1

    Geometry (in Angstrom), charge = 0, multiplicity = 1:

       Center              X                  Y                   Z               Mass
    ------------   -----------------  -----------------  -----------------  -----------------
         O           -2.340013143244    -1.115426108955    -0.120486505172    15.994914619570
         C           -1.514753143244    -0.026368108955     0.317427494828    12.000000000000
         C           -0.169322143244    -0.253140108955    -0.290183505172    12.000000000000
         C            2.335818856756    -0.444600108955    -0.200068505172    12.000000000000
         C            0.974934856756    -0.281330108955     0.403286494828    12.000000000000
         C           -2.109379143244     1.306379891045    -0.121635505172    12.000000000000
         C            3.214227856756     0.786995891045     0.026983494828    12.000000000000
         H           -1.419874143244    -0.040409108955     1.414851494828     1.007825032230
         H           -0.160002143244    -0.384131108955    -1.372933505172     1.007825032230
         H            2.236033856756    -0.639273108955    -1.273652505172     1.007825032230
         H            2.827119856756    -1.323358108955     0.236496494828     1.007825032230
         H            0.937713856756    -0.158745108955     1.487686494828     1.007825032230
         H           -1.475511143244     2.137880891045     0.197450494828     1.007825032230
         H           -2.199935143244     1.326686891045    -1.210867505172     1.007825032230
         H           -3.105953143244     1.451090891045     0.311383494828     1.007825032230
         H            3.331016856756     0.992118891045     1.095121494828     1.007825032230
         H            2.764544856756     1.668660891045    -0.437167505172     1.007825032230
         H            4.211307856756     0.645512891045    -0.399491505172     1.007825032230
         H           -3.332580443244    -0.927296608955     0.246264794828     1.007825032230

  Basis Set: AUG-CC-PVTZ
    Blend: AUG-CC-PVTZ
  Basis Set: (AUG-CC-PVTZ AUX)
    Blend: AUG-CC-PVTZ-JKFIT
	 Reference Energy          =    -309.1358143194734112 [Eh]
	 Singles Energy            =      -0.0000000000000000 [Eh]
	 Same-Spin Energy          =      -0.3177024310161628 [Eh]
	 Opposite-Spin Energy      =      -1.1056814435790416 [Eh]
	 Correlation Energy        =      -1.4233838745952045 [Eh]
	 Total Energy              =    -310.5591981940686424 [Eh]

	 ================> DF-SCS-MP2 Energies <==================
	-----------------------------------------------------------
	 SCS Same-Spin Scale       =       0.3333333333333333 [-]
	 SCS Opposite-Spin Scale   =       1.2000000000000000 [-]
	 SCS Same-Spin Energy      =      -0.1059008103387209 [Eh]
	 SCS Opposite-Spin Energy  =      -1.3268177322948500 [Eh]
	 SCS Correlation Energy    =      -1.4327185426335709 [Eh]
	 SCS Total Energy          =    -310.5685328621069630 [Eh]
	-----------------------------------------------------------

  Dipole Moment: [D]
     X:    -0.1394      Y:     1.3737      Z:     0.8314     Total:     1.6118

*** Psi4 exiting successfully. Buy a developer a beer!
