                               Psi4 1.3.2 release

  ==> Input File <==

--------------------------------------------------------------------------
#psi4
#
memory 32 gb

molecule  {
0 1
  O       -2.3409430    -1.1152500    -0.1201430
  C       -1.5264575    -0.0282557     0.2941241
  C       -0.1702520    -0.2529640    -0.2898400
  C        2.3348890    -0.4444240    -0.1997250
  C        0.9856900    -0.2851043     0.3837953
  C       -2.1103090     1.3065560    -0.1212920
  C        3.2132980     0.7871720     0.0273270
  H       -1.4208040    -0.0402330     1.4151950
  H       -0.1609320    -0.3839550    -1.3725900
  H        2.2351040    -0.6390970    -1.2733090
  H        2.8261900    -1.3231820     0.2368400
  H        0.9367840    -0.1585690     1.4880300
  H       -1.4764410     2.1380570     0.1977940
  H       -2.2008650     1.3268630    -1.2105240
  H       -3.1068830     1.4512670     0.3117270
  H        3.3300870     0.9922950     1.0954650
  H        2.7636150     1.6688370    -0.4368240
  H        4.2103780     0.6456890    -0.3991480
  H       -3.2411570    -0.9446250     0.2124840
units angstrom
no_reorient  #important for SAPT in psi4, default
symmetry c1  #important for SAPT in psi4, default
}

set PROPERTIES_ORIGIN ["COM"]
properties('MP2/aug-cc-pvtz', properties = ['dipole'])
--------------------------------------------------------------------------

    Molecular point group: c1
  Charge       = 0
  Multiplicity = 1
  Basis Set: AUG-CC-PVTZ
    Blend: AUG-CC-PVTZ
  Basis Set: (AUG-CC-PVTZ AUX)
    Blend: AUG-CC-PVTZ-JKFIT

    Orbital Energies [Eh]
    ---------------------

    Doubly Occupied:

       1A    -20.557363     2A    -11.284323     3A    -11.228785
       4A    -11.223933     5A    -11.220441     6A    -11.219273
       7A    -11.215711     8A     -1.360522     9A     -1.091423
      10A     -1.035232    11A     -0.971981    12A     -0.877808
      13A     -0.811166    14A     -0.750221    15A     -0.682276
      16A     -0.636661    17A     -0.627698    18A     -0.600938
      19A     -0.589306    20A     -0.543580    21A     -0.539840
      22A     -0.529027    23A     -0.518592    24A     -0.503387
      25A     -0.480140    26A     -0.463906    27A     -0.439917
      28A     -0.349432

  @DF-RHF Final Energy:  -309.14778726699080

   => Energetics <=

    Nuclear Repulsion Energy =            299.4870440051506648
    One-Electron Energy =               -1012.5639008108889811
    Two-Electron Energy =                 403.9290695387475125
    Total Energy =                       -309.1477872669908038
  Basis Set: (AUG-CC-PVTZ AUX)
    Blend: AUG-CC-PVTZ-RI
    Molecular point group: c1

    Geometry (in Angstrom), charge = 0, multiplicity = 1:

       Center              X                  Y                   Z               Mass
    ------------   -----------------  -----------------  -----------------  -----------------
         O           -2.341052240046    -1.114528811157    -0.114929735181    15.994914619570
         C           -1.526566740046    -0.027534511157     0.299337364819    12.000000000000
         C           -0.170361240046    -0.252242811157    -0.284626735181    12.000000000000
         C            2.334779759954    -0.443702811157    -0.194511735181    12.000000000000
         C            0.985580759954    -0.284383111157     0.389008564819    12.000000000000
         C           -2.110418240046     1.307277188843    -0.116078735181    12.000000000000
         C            3.213188759954     0.787893188843     0.032540264819    12.000000000000
         H           -1.420913240046    -0.039511811157     1.420408264819     1.007825032230
         H           -0.161041240046    -0.383233811157    -1.367376735181     1.007825032230
         H            2.234994759954    -0.638375811157    -1.268095735181     1.007825032230
         H            2.826080759954    -1.322460811157     0.242053264819     1.007825032230
         H            0.936674759954    -0.157847811157     1.493243264819     1.007825032230
         H           -1.476550240046     2.138778188843     0.203007264819     1.007825032230
         H           -2.200974240046     1.327584188843    -1.205310735181     1.007825032230
         H           -3.106992240046     1.451988188843     0.316940264819     1.007825032230
         H            3.329977759954     0.993016188843     1.100678264819     1.007825032230
         H            2.763505759954     1.669558188843    -0.431610735181     1.007825032230
         H            4.210268759954     0.646410188843    -0.393934735181     1.007825032230
         H           -3.241266240046    -0.943903811157     0.217697264819     1.007825032230

  Basis Set: AUG-CC-PVTZ
    Blend: AUG-CC-PVTZ
  Basis Set: (AUG-CC-PVTZ AUX)
    Blend: AUG-CC-PVTZ-JKFIT
	 Reference Energy          =    -309.1477872669908038 [Eh]
	 Singles Energy            =      -0.0000000000000000 [Eh]
	 Same-Spin Energy          =      -0.3168005529589720 [Eh]
	 Opposite-Spin Energy      =      -1.1025312773991325 [Eh]
	 Correlation Energy        =      -1.4193318303581046 [Eh]
	 Total Energy              =    -310.5671190973488933 [Eh]

	 ================> DF-SCS-MP2 Energies <==================
	-----------------------------------------------------------
	 SCS Same-Spin Scale       =       0.3333333333333333 [-]
	 SCS Opposite-Spin Scale   =       1.2000000000000000 [-]
	 SCS Same-Spin Energy      =      -0.1056001843196573 [Eh]
	 SCS Opposite-Spin Energy  =      -1.3230375328789590 [Eh]
	 SCS Correlation Energy    =      -1.4286377171986162 [Eh]
	 SCS Total Energy          =    -310.5764249841894298 [Eh]
	-----------------------------------------------------------

  Dipole Moment: [D]
     X:    -0.1214      Y:     1.3610      Z:     0.7655     Total:     1.5662

*** Psi4 exiting successfully. Buy a developer a beer!
