                               Psi4 1.3.2 release

  ==> Input File <==

--------------------------------------------------------------------------
#psi4
#
memory 32 gb

molecule  {
0 1
  O       -2.3409430    -1.1152500    -0.1201430
  C       -1.5156830    -0.0261920     0.3177710
  C       -0.2044520    -0.2432082    -0.2294724
  C        2.3348890    -0.4444240    -0.1997250
  C        0.9740050    -0.2811540     0.4036300
  C       -2.1103090     1.3065560    -0.1212920
  C        3.2132980     0.7871720     0.0273270
  H       -1.4208040    -0.0402330     1.4151950
  H       -0.1609320    -0.3839550    -1.3725900
  H        2.2351040    -0.6390970    -1.2733090
  H        2.8261900    -1.3231820     0.2368400
  H        0.8799542    -0.1538224     1.4840359
  H       -1.4764410     2.1380570     0.1977940
  H       -2.2008650     1.3268630    -1.2105240
  H       -3.1068830     1.4512670     0.3117270
  H        3.3300870     0.9922950     1.0954650
  H        2.7636150     1.6688370    -0.4368240
  H        4.2103780     0.6456890    -0.3991480
  H       -3.2411570    -0.9446250     0.2124840
units angstrom
no_reorient  #important for SAPT in psi4, default
symmetry c1  #important for SAPT in psi4, default
}

set PROPERTIES_ORIGIN ["COM"]
properties('MP2/aug-cc-pvtz', properties = ['dipole'])
--------------------------------------------------------------------------

    Molecular point group: c1
  Charge       = 0
  Multiplicity = 1
  Basis Set: AUG-CC-PVTZ
    Blend: AUG-CC-PVTZ
  Basis Set: (AUG-CC-PVTZ AUX)
    Blend: AUG-CC-PVTZ-JKFIT

    Orbital Energies [Eh]
    ---------------------

    Doubly Occupied:

       1A    -20.556351     2A    -11.280811     3A    -11.228465
       4A    -11.227761     5A    -11.222588     6A    -11.220441
       7A    -11.216397     8A     -1.355937     9A     -1.093596
      10A     -1.039260    11A     -0.972218    12A     -0.881748
      13A     -0.815189    14A     -0.746988    15A     -0.681566
      16A     -0.638555    17A     -0.625780    18A     -0.601577
      19A     -0.586402    20A     -0.545933    21A     -0.539224
      22A     -0.520721    23A     -0.518108    24A     -0.502814
      25A     -0.482495    26A     -0.467436    27A     -0.443674
      28A     -0.349594

  @DF-RHF Final Energy:  -309.14211371181466

   => Energetics <=

    Nuclear Repulsion Energy =            299.7904304156501780
    One-Electron Energy =               -1013.1418287031168575
    Two-Electron Energy =                 404.2092845756520774
    Total Energy =                       -309.1421137118146589
  Basis Set: (AUG-CC-PVTZ AUX)
    Blend: AUG-CC-PVTZ-RI
    Molecular point group: c1

    Geometry (in Angstrom), charge = 0, multiplicity = 1:

       Center              X                  Y                   Z               Mass
    ------------   -----------------  -----------------  -----------------  -----------------
         O           -2.336270482014    -1.116467302909    -0.127340363141    15.994914619570
         C           -1.511010482014    -0.027409302909     0.310573636859    12.000000000000
         C           -0.199779482014    -0.244425502909    -0.236669763141    12.000000000000
         C            2.339561517986    -0.445641302909    -0.206922363141    12.000000000000
         C            0.978677517986    -0.282371302909     0.396432636859    12.000000000000
         C           -2.105636482014     1.305338697091    -0.128489363141    12.000000000000
         C            3.217970517986     0.785954697091     0.020129636859    12.000000000000
         H           -1.416131482014    -0.041450302909     1.407997636859     1.007825032230
         H           -0.156259482014    -0.385172302909    -1.379787363141     1.007825032230
         H            2.239776517986    -0.640314302909    -1.280506363141     1.007825032230
         H            2.830862517986    -1.324399302909     0.229642636859     1.007825032230
         H            0.884626717986    -0.155039702909     1.476838536859     1.007825032230
         H           -1.471768482014     2.136839697091     0.190596636859     1.007825032230
         H           -2.196192482014     1.325645697091    -1.217721363141     1.007825032230
         H           -3.102210482014     1.450049697091     0.304529636859     1.007825032230
         H            3.334759517986     0.991077697091     1.088267636859     1.007825032230
         H            2.768287517986     1.667619697091    -0.444021363141     1.007825032230
         H            4.215050517986     0.644471697091    -0.406345363141     1.007825032230
         H           -3.236484482014    -0.945842302909     0.205286636859     1.007825032230

  Basis Set: AUG-CC-PVTZ
    Blend: AUG-CC-PVTZ
  Basis Set: (AUG-CC-PVTZ AUX)
    Blend: AUG-CC-PVTZ-JKFIT
	 Reference Energy          =    -309.1421137118146589 [Eh]
	 Singles Energy            =      -0.0000000000000000 [Eh]
	 Same-Spin Energy          =      -0.3173799843530540 [Eh]
	 Opposite-Spin Energy      =      -1.1034351930263562 [Eh]
	 Correlation Energy        =      -1.4208151773794102 [Eh]
	 Total Energy              =    -310.5629288891940973 [Eh]

	 ================> DF-SCS-MP2 Energies <==================
	-----------------------------------------------------------
	 SCS Same-Spin Scale       =       0.3333333333333333 [-]
	 SCS Opposite-Spin Scale   =       1.2000000000000000 [-]
	 SCS Same-Spin Energy      =      -0.1057933281176847 [Eh]
	 SCS Opposite-Spin Energy  =      -1.3241222316316275 [Eh]
	 SCS Correlation Energy    =      -1.4299155597493121 [Eh]
	 SCS Total Energy          =    -310.5720292715639630 [Eh]
	-----------------------------------------------------------

  Dipole Moment: [D]
     X:    -0.0748      Y:     1.3989      Z:     0.8304     Total:     1.6286

*** Psi4 exiting successfully. Buy a developer a beer!
