                               Psi4 1.3.2 release

  ==> Input File <==

--------------------------------------------------------------------------
#psi4
#
memory 32 gb

molecule  {
0 1
  O       -2.3409430    -1.1152500    -0.1201430
  C       -1.5156830    -0.0261920     0.3177710
  C       -0.2045820    -0.2447298    -0.2293197
  C        2.3651437    -0.4402748    -0.1275134
  C        0.9740050    -0.2811540     0.4036300
  C       -2.1103090     1.3065560    -0.1212920
  C        3.2132980     0.7871720     0.0273270
  H       -1.4208040    -0.0402330     1.4151950
  H       -0.1609320    -0.3839550    -1.3725900
  H        2.2351040    -0.6390970    -1.2733090
  H        2.8261900    -1.3231820     0.2368400
  H        0.9367840    -0.1585690     1.4880300
  H       -1.4764410     2.1380570     0.1977940
  H       -2.2008650     1.3268630    -1.2105240
  H       -3.1068830     1.4512670     0.3117270
  H        3.3300870     0.9922950     1.0954650
  H        2.7636150     1.6688370    -0.4368240
  H        4.2103780     0.6456890    -0.3991480
  H       -3.2411570    -0.9446250     0.2124840
units angstrom
no_reorient  #important for SAPT in psi4, default
symmetry c1  #important for SAPT in psi4, default
}

set PROPERTIES_ORIGIN ["COM"]
properties('MP2/aug-cc-pvtz', properties = ['dipole'])
--------------------------------------------------------------------------

    Molecular point group: c1
  Charge       = 0
  Multiplicity = 1
  Basis Set: AUG-CC-PVTZ
    Blend: AUG-CC-PVTZ
  Basis Set: (AUG-CC-PVTZ AUX)
    Blend: AUG-CC-PVTZ-JKFIT

    Orbital Energies [Eh]
    ---------------------

    Doubly Occupied:

       1A    -20.556724     2A    -11.281465     3A    -11.229547
       4A    -11.228877     5A    -11.225262     6A    -11.220833
       7A    -11.215814     8A     -1.356353     9A     -1.094196
      10A     -1.042590    11A     -0.974042    12A     -0.882975
      13A     -0.814494    14A     -0.746042    15A     -0.682104
      16A     -0.640464    17A     -0.626402    18A     -0.606528
      19A     -0.582135    20A     -0.548085    21A     -0.540535
      22A     -0.532166    23A     -0.519666    24A     -0.504661
      25A     -0.474485    26A     -0.453255    27A     -0.443998
      28A     -0.352398

  @DF-RHF Final Energy:  -309.13545973665629

   => Energetics <=

    Nuclear Repulsion Energy =            299.7809717317066998
    One-Electron Energy =               -1013.0806694176702649
    Two-Electron Energy =                 404.1642379493072781
    Total Energy =                       -309.1354597366562871
  Basis Set: (AUG-CC-PVTZ AUX)
    Blend: AUG-CC-PVTZ-RI
    Molecular point group: c1

    Geometry (in Angstrom), charge = 0, multiplicity = 1:

       Center              X                  Y                   Z               Mass
    ------------   -----------------  -----------------  -----------------  -----------------
         O           -2.340454474951    -1.116734540139    -0.136056591362    15.994914619570
         C           -1.515194474951    -0.027676540139     0.301857408638    12.000000000000
         C           -0.204093474951    -0.246214340139    -0.245233291362    12.000000000000
         C            2.365632225049    -0.441759340139    -0.143426991362    12.000000000000
         C            0.974493525049    -0.282638540139     0.387716408638    12.000000000000
         C           -2.109820474951     1.305071459861    -0.137205591362    12.000000000000
         C            3.213786525049     0.785687459861     0.011413408638    12.000000000000
         H           -1.420315474951    -0.041717540139     1.399281408638     1.007825032230
         H           -0.160443474951    -0.385439540139    -1.388503591362     1.007825032230
         H            2.235592525049    -0.640581540139    -1.289222591362     1.007825032230
         H            2.826678525049    -1.324666540139     0.220926408638     1.007825032230
         H            0.937272525049    -0.160053540139     1.472116408638     1.007825032230
         H           -1.475952474951     2.136572459861     0.181880408638     1.007825032230
         H           -2.200376474951     1.325378459861    -1.226437591362     1.007825032230
         H           -3.106394474951     1.449782459861     0.295813408638     1.007825032230
         H            3.330575525049     0.990810459861     1.079551408638     1.007825032230
         H            2.764103525049     1.667352459861    -0.452737591362     1.007825032230
         H            4.210866525049     0.644204459861    -0.415061591362     1.007825032230
         H           -3.240668474951    -0.946109540139     0.196570408638     1.007825032230

  Basis Set: AUG-CC-PVTZ
    Blend: AUG-CC-PVTZ
  Basis Set: (AUG-CC-PVTZ AUX)
    Blend: AUG-CC-PVTZ-JKFIT
	 Reference Energy          =    -309.1354597366562871 [Eh]
	 Singles Energy            =      -0.0000000000000000 [Eh]
	 Same-Spin Energy          =      -0.3175924694077031 [Eh]
	 Opposite-Spin Energy      =      -1.1040311286758415 [Eh]
	 Correlation Energy        =      -1.4216235980835448 [Eh]
	 Total Energy              =    -310.5570833347398434 [Eh]

	 ================> DF-SCS-MP2 Energies <==================
	-----------------------------------------------------------
	 SCS Same-Spin Scale       =       0.3333333333333333 [-]
	 SCS Opposite-Spin Scale   =       1.2000000000000000 [-]
	 SCS Same-Spin Energy      =      -0.1058641564692344 [Eh]
	 SCS Opposite-Spin Energy  =      -1.3248373544110097 [Eh]
	 SCS Correlation Energy    =      -1.4307015108802441 [Eh]
	 SCS Total Energy          =    -310.5661612475365132 [Eh]
	-----------------------------------------------------------

  Dipole Moment: [D]
     X:    -0.0834      Y:     1.4126      Z:     0.8771     Total:     1.6649

*** Psi4 exiting successfully. Buy a developer a beer!
