                               Psi4 1.3.2 release

  ==> Input File <==

--------------------------------------------------------------------------
#psi4
#
memory 32 gb

molecule  {
0 1
  O       -2.3409430    -1.1152500    -0.1201430
  C       -1.4809143    -0.0204179     0.3875726
  C       -0.1702520    -0.2529640    -0.2898400
  C        2.3348890    -0.4444240    -0.1997250
  C        0.9368734    -0.2692563     0.4618430
  C       -2.1103090     1.3065560    -0.1212920
  C        3.2132980     0.7871720     0.0273270
  H       -1.4208040    -0.0402330     1.4151950
  H       -0.1609320    -0.3839550    -1.3725900
  H        2.2351040    -0.6390970    -1.2733090
  H        2.8261900    -1.3231820     0.2368400
  H        0.9367840    -0.1585690     1.4880300
  H       -1.4764410     2.1380570     0.1977940
  H       -2.2008650     1.3268630    -1.2105240
  H       -3.1068830     1.4512670     0.3117270
  H        3.3300870     0.9922950     1.0954650
  H        2.7636150     1.6688370    -0.4368240
  H        4.2103780     0.6456890    -0.3991480
  H       -3.2411570    -0.9446250     0.2124840
units angstrom
no_reorient  #important for SAPT in psi4, default
symmetry c1  #important for SAPT in psi4, default
}

set PROPERTIES_ORIGIN ["COM"]
properties('MP2/aug-cc-pvtz', properties = ['dipole'])
--------------------------------------------------------------------------

    Molecular point group: c1
  Charge       = 0
  Multiplicity = 1
  Basis Set: AUG-CC-PVTZ
    Blend: AUG-CC-PVTZ
  Basis Set: (AUG-CC-PVTZ AUX)
    Blend: AUG-CC-PVTZ-JKFIT

    Orbital Energies [Eh]
    ---------------------

    Doubly Occupied:

       1A    -20.549209     2A    -11.279910     3A    -11.226213
       4A    -11.225431     5A    -11.223368     6A    -11.220226
       7A    -11.214021     8A     -1.335399     9A     -1.087917
      10A     -1.029026    11A     -0.968817    12A     -0.871548
      13A     -0.810412    14A     -0.771355    15A     -0.682031
      16A     -0.623998    17A     -0.615962    18A     -0.593518
      19A     -0.586864    20A     -0.549486    21A     -0.542549
      22A     -0.532436    23A     -0.511189    24A     -0.499915
      25A     -0.485694    26A     -0.457384    27A     -0.442757
      28A     -0.351209

  @DF-RHF Final Energy:  -309.13675725810344

   => Energetics <=

    Nuclear Repulsion Energy =            298.4165576532314503
    One-Electron Energy =               -1010.5309403263879631
    Two-Electron Energy =                 402.9776254150531258
    Total Energy =                       -309.1367572581034437
  Basis Set: (AUG-CC-PVTZ AUX)
    Blend: AUG-CC-PVTZ-RI
    Molecular point group: c1

    Geometry (in Angstrom), charge = 0, multiplicity = 1:

       Center              X                  Y                   Z               Mass
    ------------   -----------------  -----------------  -----------------  -----------------
         O           -2.340659780609    -1.117368585012    -0.135491017676    15.994914619570
         C           -1.480631080609    -0.022536485012     0.372224582324    12.000000000000
         C           -0.169968780609    -0.255082585012    -0.305188017676    12.000000000000
         C            2.335172219391    -0.446542585012    -0.215073017676    12.000000000000
         C            0.937156619391    -0.271374885012     0.446494982324    12.000000000000
         C           -2.110025780609     1.304437414988    -0.136640017676    12.000000000000
         C            3.213581219391     0.785053414988     0.011978982324    12.000000000000
         H           -1.420520780609    -0.042351585012     1.399846982324     1.007825032230
         H           -0.160648780609    -0.386073585012    -1.387938017676     1.007825032230
         H            2.235387219391    -0.641215585012    -1.288657017676     1.007825032230
         H            2.826473219391    -1.325300585012     0.221491982324     1.007825032230
         H            0.937067219391    -0.160687585012     1.472681982324     1.007825032230
         H           -1.476157780609     2.135938414988     0.182445982324     1.007825032230
         H           -2.200581780609     1.324744414988    -1.225872017676     1.007825032230
         H           -3.106599780609     1.449148414988     0.296378982324     1.007825032230
         H            3.330370219391     0.990176414988     1.080116982324     1.007825032230
         H            2.763898219391     1.666718414988    -0.452172017676     1.007825032230
         H            4.210661219391     0.643570414988    -0.414496017676     1.007825032230
         H           -3.240873780609    -0.946743585012     0.197135982324     1.007825032230

  Basis Set: AUG-CC-PVTZ
    Blend: AUG-CC-PVTZ
  Basis Set: (AUG-CC-PVTZ AUX)
    Blend: AUG-CC-PVTZ-JKFIT
	 Reference Energy          =    -309.1367572581034437 [Eh]
	 Singles Energy            =      -0.0000000000000000 [Eh]
	 Same-Spin Energy          =      -0.3161698901417953 [Eh]
	 Opposite-Spin Energy      =      -1.1030122260516302 [Eh]
	 Correlation Energy        =      -1.4191821161934255 [Eh]
	 Total Energy              =    -310.5559393742968837 [Eh]

	 ================> DF-SCS-MP2 Energies <==================
	-----------------------------------------------------------
	 SCS Same-Spin Scale       =       0.3333333333333333 [-]
	 SCS Opposite-Spin Scale   =       1.2000000000000000 [-]
	 SCS Same-Spin Energy      =      -0.1053899633805984 [Eh]
	 SCS Opposite-Spin Energy  =      -1.3236146712619561 [Eh]
	 SCS Correlation Energy    =      -1.4290046346425544 [Eh]
	 SCS Total Energy          =    -310.5657618927460248 [Eh]
	-----------------------------------------------------------

  Dipole Moment: [D]
     X:    -0.0187      Y:     1.4309      Z:     0.9255     Total:     1.7042

*** Psi4 exiting successfully. Buy a developer a beer!
