                               Psi4 1.3.2 release

  ==> Input File <==

--------------------------------------------------------------------------
#psi4
#
memory 32 gb

molecule  {
0 1
 Cl        2.7008340    -1.2489210     0.0016850
 Cl       -2.7008440    -1.2489040     0.0016850
  C        0.0000030     1.7216440    -0.0170270
  C       -1.2072320     1.0139100    -0.0094880
  C        1.2072370     1.0139020    -0.0094890
  C        0.0000180     3.2280150     0.0131190
  C        1.1931300    -0.3798000    -0.0002610
  C       -1.1931340    -0.3797940    -0.0002610
  C        0.0000980    -1.0999491     0.0563129
  H       -2.1570970     1.5426200    -0.0181830
  H        2.1571050     1.5426070    -0.0181850
  H        0.0002870     3.5975410     1.0439770
  H        0.8855000     3.6300440    -0.4862980
  H       -0.8857170     3.6300520    -0.4858430
  H       -0.0000070    -2.1855250     0.0098050
units angstrom
no_reorient  #important for SAPT in psi4, default
symmetry c1  #important for SAPT in psi4, default
}

set PROPERTIES_ORIGIN ["COM"]
properties('MP2/aug-cc-pvtz', properties = ['dipole'])
--------------------------------------------------------------------------

    Molecular point group: c1
  Charge       = 0
  Multiplicity = 1
  Basis Set: AUG-CC-PVTZ
    Blend: AUG-CC-PVTZ
  Basis Set: (AUG-CC-PVTZ AUX)
    Blend: AUG-CC-PVTZ-JKFIT

    Orbital Energies [Eh]
    ---------------------

    Doubly Occupied:

       1A   -104.849271     2A   -104.849261     3A    -11.318438
       4A    -11.318418     5A    -11.271256     6A    -11.260624
       7A    -11.254930     8A    -11.254876     9A    -11.241899
      10A    -10.573058    11A    -10.573049    12A     -8.039961
      13A     -8.039953    14A     -8.038034    15A     -8.038027
      16A     -8.038025    17A     -8.038018    18A     -1.211984
      19A     -1.160815    20A     -1.118575    21A     -1.043500
      22A     -0.998187    23A     -0.958676    24A     -0.822814
      25A     -0.815879    26A     -0.707179    27A     -0.682111
      28A     -0.626754    29A     -0.597828    30A     -0.594714
      31A     -0.594302    32A     -0.563589    33A     -0.555722
      34A     -0.525674    35A     -0.517683    36A     -0.510450
      37A     -0.466035    38A     -0.457776    39A     -0.452089
      40A     -0.346051    41A     -0.341816

  @DF-RHF Final Energy: -1187.69948514243811

   => Energetics <=

    Nuclear Repulsion Energy =            542.7914301164337303
    One-Electron Energy =               -2711.6472250412962239
    Two-Electron Energy =                 981.1563097824242732
    Total Energy =                      -1187.6994851424383342
  Basis Set: (AUG-CC-PVTZ AUX)
    Blend: AUG-CC-PVTZ-RI
    Molecular point group: c1

    Geometry (in Angstrom), charge = 0, multiplicity = 1:

       Center              X                  Y                   Z               Mass
    ------------   -----------------  -----------------  -----------------  -----------------
         CL           2.700826737634    -1.160902564452    -0.001804979050    34.968852682000
         CL          -2.700851262366    -1.160885564452    -0.001804979050    34.968852682000
         C           -0.000004262366     1.809662435548    -0.020516979050    12.000000000000
         C           -1.207239262366     1.101928435548    -0.012977979050    12.000000000000
         C            1.207229737634     1.101920435548    -0.012978979050    12.000000000000
         C            0.000010737634     3.316033435548     0.009629020950    12.000000000000
         C            1.193122737634    -0.291781564452    -0.003750979050    12.000000000000
         C           -1.193141262366    -0.291775564452    -0.003750979050    12.000000000000
         C            0.000090737634    -1.011930664452     0.052822920950    12.000000000000
         H           -2.157104262366     1.630638435548    -0.021672979050     1.007825032230
         H            2.157097737634     1.630625435548    -0.021674979050     1.007825032230
         H            0.000279737634     3.685559435548     1.040487020950     1.007825032230
         H            0.885492737634     3.718062435548    -0.489787979050     1.007825032230
         H           -0.885724262366     3.718070435548    -0.489332979050     1.007825032230
         H           -0.000014262366    -2.097506564452     0.006315020950     1.007825032230

  Basis Set: AUG-CC-PVTZ
    Blend: AUG-CC-PVTZ
  Basis Set: (AUG-CC-PVTZ AUX)
    Blend: AUG-CC-PVTZ-JKFIT
	 Reference Energy          =   -1187.6994851424381068 [Eh]
	 Singles Energy            =      -0.0000000000000000 [Eh]
	 Same-Spin Energy          =      -0.4299315930410206 [Eh]
	 Opposite-Spin Energy      =      -1.3001351914861456 [Eh]
	 Correlation Energy        =      -1.7300667845271662 [Eh]
	 Total Energy              =   -1189.4295519269653596 [Eh]

	 ================> DF-SCS-MP2 Energies <==================
	-----------------------------------------------------------
	 SCS Same-Spin Scale       =       0.3333333333333333 [-]
	 SCS Opposite-Spin Scale   =       1.2000000000000000 [-]
	 SCS Same-Spin Energy      =      -0.1433105310136735 [Eh]
	 SCS Opposite-Spin Energy  =      -1.5601622297833748 [Eh]
	 SCS Correlation Energy    =      -1.7034727607970483 [Eh]
	 SCS Total Energy          =   -1189.4029579032351194 [Eh]
	-----------------------------------------------------------

  Dipole Moment: [D]
     X:    -0.0002      Y:     2.1433      Z:     0.0200     Total:     2.1434

*** Psi4 exiting successfully. Buy a developer a beer!
