                               Psi4 1.3.2 release

  ==> Input File <==

--------------------------------------------------------------------------
#psi4
#
memory 32 gb

molecule  {
0 1
 Cl        2.7008340    -1.2489210     0.0016850
 Cl       -2.7008440    -1.2489040     0.0016850
  C        0.0000030     1.7216440    -0.0170270
  C       -1.2072320     1.0139100    -0.0094880
  C        1.2072370     1.0139020    -0.0094890
  C        0.0000180     3.2275045     0.0631164
  C        1.1931300    -0.3798000    -0.0002610
  C       -1.1931340    -0.3797940    -0.0002610
  C       -0.0000050    -1.1002640     0.0063140
  H       -2.1570970     1.5426200    -0.0181830
  H        2.1571050     1.5426070    -0.0181850
  H        0.0002870     3.5975410     1.0439770
  H        0.8855000     3.6300440    -0.4862980
  H       -0.8857170     3.6300520    -0.4858430
  H       -0.0000070    -2.1855250     0.0098050
units angstrom
no_reorient  #important for SAPT in psi4, default
symmetry c1  #important for SAPT in psi4, default
}

set PROPERTIES_ORIGIN ["COM"]
properties('MP2/aug-cc-pvtz', properties = ['dipole'])
--------------------------------------------------------------------------

    Molecular point group: c1
  Charge       = 0
  Multiplicity = 1
  Basis Set: AUG-CC-PVTZ
    Blend: AUG-CC-PVTZ
  Basis Set: (AUG-CC-PVTZ AUX)
    Blend: AUG-CC-PVTZ-JKFIT

    Orbital Energies [Eh]
    ---------------------

    Doubly Occupied:

       1A   -104.849306     2A   -104.849306     3A    -11.318226
       4A    -11.318218     5A    -11.270978     6A    -11.260838
       7A    -11.255169     8A    -11.255113     9A    -11.241846
      10A    -10.573092    11A    -10.573092    12A     -8.039996
      13A     -8.039995    14A     -8.038068    15A     -8.038068
      16A     -8.038062    17A     -8.038062    18A     -1.212178
      19A     -1.160903    20A     -1.118471    21A     -1.043646
      22A     -0.998248    23A     -0.958870    24A     -0.823021
      25A     -0.816196    26A     -0.707753    27A     -0.681372
      28A     -0.627108    29A     -0.608720    30A     -0.594718
      31A     -0.592808    32A     -0.558657    33A     -0.552929
      34A     -0.525600    35A     -0.514773    36A     -0.510816
      37A     -0.466168    38A     -0.457828    39A     -0.452737
      40A     -0.346930    41A     -0.341894

  @DF-RHF Final Energy: -1187.69739055055788

   => Energetics <=

    Nuclear Repulsion Energy =            542.8180899679739468
    One-Electron Energy =               -2711.6914043039732860
    Two-Electron Energy =                 981.1759237854415687
    Total Energy =                      -1187.6973905505578841
  Basis Set: (AUG-CC-PVTZ AUX)
    Blend: AUG-CC-PVTZ-RI
    Molecular point group: c1

    Geometry (in Angstrom), charge = 0, multiplicity = 1:

       Center              X                  Y                   Z               Mass
    ------------   -----------------  -----------------  -----------------  -----------------
         CL           2.700834463375    -1.160840653515    -0.001804866539    34.968852682000
         CL          -2.700843536625    -1.160823653515    -0.001804866539    34.968852682000
         C            0.000003463375     1.809724346485    -0.020516866539    12.000000000000
         C           -1.207231536625     1.101990346485    -0.012977866539    12.000000000000
         C            1.207237463375     1.101982346485    -0.012978866539    12.000000000000
         C            0.000018463375     3.315584846485     0.059626533461    12.000000000000
         C            1.193130463375    -0.291719653515    -0.003750866539    12.000000000000
         C           -1.193133536625    -0.291713653515    -0.003750866539    12.000000000000
         C           -0.000004536625    -1.012183653515     0.002824133461    12.000000000000
         H           -2.157096536625     1.630700346485    -0.021672866539     1.007825032230
         H            2.157105463375     1.630687346485    -0.021674866539     1.007825032230
         H            0.000287463375     3.685621346485     1.040487133461     1.007825032230
         H            0.885500463375     3.718124346485    -0.489787866539     1.007825032230
         H           -0.885716536625     3.718132346485    -0.489332866539     1.007825032230
         H           -0.000006536625    -2.097444653515     0.006315133461     1.007825032230

  Basis Set: AUG-CC-PVTZ
    Blend: AUG-CC-PVTZ
  Basis Set: (AUG-CC-PVTZ AUX)
    Blend: AUG-CC-PVTZ-JKFIT
	 Reference Energy          =   -1187.6973905505578841 [Eh]
	 Singles Energy            =      -0.0000000000000000 [Eh]
	 Same-Spin Energy          =      -0.4299316139932967 [Eh]
	 Opposite-Spin Energy      =      -1.3001905798885467 [Eh]
	 Correlation Energy        =      -1.7301221938818434 [Eh]
	 Total Energy              =   -1189.4275127444398095 [Eh]

	 ================> DF-SCS-MP2 Energies <==================
	-----------------------------------------------------------
	 SCS Same-Spin Scale       =       0.3333333333333333 [-]
	 SCS Opposite-Spin Scale   =       1.2000000000000000 [-]
	 SCS Same-Spin Energy      =      -0.1433105379977656 [Eh]
	 SCS Opposite-Spin Energy  =      -1.5602286958662559 [Eh]
	 SCS Correlation Energy    =      -1.7035392338640214 [Eh]
	 SCS Total Energy          =   -1189.4009297844218054 [Eh]
	-----------------------------------------------------------

  Dipole Moment: [D]
     X:     0.0000      Y:     2.1064      Z:     0.0547     Total:     2.1071

*** Psi4 exiting successfully. Buy a developer a beer!
