                               Psi4 1.3.2 release

  ==> Input File <==

--------------------------------------------------------------------------
#psi4
#
memory 32 gb

molecule  {
0 1
 Cl        2.7008340    -1.2489210     0.0016850
 Cl       -2.7008440    -1.2489040     0.0016850
  C        0.0000030     1.7216440    -0.0170270
  C       -1.2072320     1.0139100    -0.0094880
  C        1.2072370     1.0139020    -0.0094890
  C        0.0000181     3.2264835     0.1631112
  C        1.1931300    -0.3798000    -0.0002610
  C       -1.1931340    -0.3797940    -0.0002610
  C       -0.0000050    -1.1002640     0.0063140
  H       -2.1570970     1.5426200    -0.0181830
  H        2.1571050     1.5426070    -0.0181850
  H        0.0002870     3.5975410     1.0439770
  H        0.8855000     3.6300440    -0.4862980
  H       -0.8857170     3.6300520    -0.4858430
  H       -0.0000070    -2.1855250     0.0098050
units angstrom
no_reorient  #important for SAPT in psi4, default
symmetry c1  #important for SAPT in psi4, default
}

set PROPERTIES_ORIGIN ["COM"]
properties('MP2/aug-cc-pvtz', properties = ['dipole'])
--------------------------------------------------------------------------

    Molecular point group: c1
  Charge       = 0
  Multiplicity = 1
  Basis Set: AUG-CC-PVTZ
    Blend: AUG-CC-PVTZ
  Basis Set: (AUG-CC-PVTZ AUX)
    Blend: AUG-CC-PVTZ-JKFIT

    Orbital Energies [Eh]
    ---------------------

    Doubly Occupied:

       1A   -104.849574     2A   -104.849574     3A    -11.318460
       4A    -11.318453     5A    -11.272033     6A    -11.261853
       7A    -11.255839     8A    -11.255784     9A    -11.244004
      10A    -10.573360    11A    -10.573360    12A     -8.040263
      13A     -8.040263    14A     -8.038335    15A     -8.038335
      16A     -8.038329    17A     -8.038329    18A     -1.212587
      19A     -1.161233    20A     -1.118425    21A     -1.043904
      22A     -0.998619    23A     -0.961172    24A     -0.823185
      25A     -0.819170    26A     -0.709105    27A     -0.680215
      28A     -0.641141    29A     -0.618455    30A     -0.595018
      31A     -0.589625    32A     -0.561531    33A     -0.537891
      34A     -0.524223    35A     -0.511133    36A     -0.503734
      37A     -0.466902    38A     -0.457854    39A     -0.452783
      40A     -0.348200    41A     -0.342153

  @DF-RHF Final Energy: -1187.67268401517413

   => Energetics <=

    Nuclear Repulsion Energy =            542.7525578979336842
    One-Electron Energy =               -2711.4816783773935640
    Two-Electron Energy =                 981.0564364642859800
    Total Energy =                      -1187.6726840151741271
  Basis Set: (AUG-CC-PVTZ AUX)
    Blend: AUG-CC-PVTZ-RI
    Molecular point group: c1

    Geometry (in Angstrom), charge = 0, multiplicity = 1:

       Center              X                  Y                   Z               Mass
    ------------   -----------------  -----------------  -----------------  -----------------
         CL           2.700834455875    -1.160764071170    -0.009305195842    34.968852682000
         CL          -2.700843544125    -1.160747071170    -0.009305195842    34.968852682000
         C            0.000003455875     1.809800928830    -0.028017195842    12.000000000000
         C           -1.207231544125     1.102066928830    -0.020478195842    12.000000000000
         C            1.207237455875     1.102058928830    -0.020479195842    12.000000000000
         C            0.000018555875     3.314640428830     0.152121004158    12.000000000000
         C            1.193130455875    -0.291643071170    -0.011251195842    12.000000000000
         C           -1.193133544125    -0.291637071170    -0.011251195842    12.000000000000
         C           -0.000004544125    -1.012107071170    -0.004676195842    12.000000000000
         H           -2.157096544125     1.630776928830    -0.029173195842     1.007825032230
         H            2.157105455875     1.630763928830    -0.029175195842     1.007825032230
         H            0.000287455875     3.685697928830     1.032986804158     1.007825032230
         H            0.885500455875     3.718200928830    -0.497288195842     1.007825032230
         H           -0.885716544125     3.718208928830    -0.496833195842     1.007825032230
         H           -0.000006544125    -2.097368071170    -0.001185195842     1.007825032230

  Basis Set: AUG-CC-PVTZ
    Blend: AUG-CC-PVTZ
  Basis Set: (AUG-CC-PVTZ AUX)
    Blend: AUG-CC-PVTZ-JKFIT
	 Reference Energy          =   -1187.6726840151741271 [Eh]
	 Singles Energy            =      -0.0000000000000000 [Eh]
	 Same-Spin Energy          =      -0.4302315336446150 [Eh]
	 Opposite-Spin Energy      =      -1.3012639446989285 [Eh]
	 Correlation Energy        =      -1.7314954783435434 [Eh]
	 Total Energy              =   -1189.4041794935176313 [Eh]

	 ================> DF-SCS-MP2 Energies <==================
	-----------------------------------------------------------
	 SCS Same-Spin Scale       =       0.3333333333333333 [-]
	 SCS Opposite-Spin Scale   =       1.2000000000000000 [-]
	 SCS Same-Spin Energy      =      -0.1434105112148716 [Eh]
	 SCS Opposite-Spin Energy  =      -1.5615167336387141 [Eh]
	 SCS Correlation Energy    =      -1.7049272448535857 [Eh]
	 SCS Total Energy          =   -1189.3776112600276065 [Eh]
	-----------------------------------------------------------

  Dipole Moment: [D]
     X:     0.0000      Y:     2.0177      Z:     0.0807     Total:     2.0193

*** Psi4 exiting successfully. Buy a developer a beer!
