                               Psi4 1.3.2 release

  ==> Input File <==

--------------------------------------------------------------------------
#psi4
#
memory 32 gb

molecule  {
0 1
 Cl        2.7008340    -1.2489210     0.0016850
 Cl       -2.7008440    -1.2489040     0.0016850
  C        0.0000030     1.7216440    -0.0170270
  C       -1.2072320     1.0139100    -0.0094880
  C        1.2072370     1.0139020    -0.0094890
  C        0.0000180     3.2280150     0.0131190
  C        1.1931300    -0.3798000    -0.0002610
  C       -1.1931340    -0.3797940    -0.0002610
  C        0.0005101    -1.0986895     0.2563085
  H       -2.1570970     1.5426200    -0.0181830
  H        2.1571050     1.5426070    -0.0181850
  H        0.0002870     3.5975410     1.0439770
  H        0.8855000     3.6300440    -0.4862980
  H       -0.8857170     3.6300520    -0.4858430
  H       -0.0000070    -2.1855250     0.0098050
units angstrom
no_reorient  #important for SAPT in psi4, default
symmetry c1  #important for SAPT in psi4, default
}

set PROPERTIES_ORIGIN ["COM"]
properties('MP2/aug-cc-pvtz', properties = ['dipole'])
--------------------------------------------------------------------------

    Molecular point group: c1
  Charge       = 0
  Multiplicity = 1
  Basis Set: AUG-CC-PVTZ
    Blend: AUG-CC-PVTZ
  Basis Set: (AUG-CC-PVTZ AUX)
    Blend: AUG-CC-PVTZ-JKFIT

    Orbital Energies [Eh]
    ---------------------

    Doubly Occupied:

       1A   -104.849697     2A   -104.849652     3A    -11.323132
       4A    -11.323050     5A    -11.274389     6A    -11.264809
       7A    -11.254413     8A    -11.254365     9A    -11.243215
      10A    -10.573527    11A    -10.573486    12A     -8.040423
      13A     -8.040381    14A     -8.038500    15A     -8.038481
      16A     -8.038459    17A     -8.038440    18A     -1.210184
      19A     -1.160811    20A     -1.119426    21A     -1.040504
      22A     -0.998575    23A     -0.957666    24A     -0.817811
      25A     -0.815680    26A     -0.701481    27A     -0.678107
      28A     -0.627576    29A     -0.599543    30A     -0.594985
      31A     -0.587266    32A     -0.564064    33A     -0.551854
      34A     -0.523267    35A     -0.521404    36A     -0.505679
      37A     -0.466379    38A     -0.456410    39A     -0.451700
      40A     -0.346599    41A     -0.340702

  @DF-RHF Final Energy: -1187.68145121375551

   => Energetics <=

    Nuclear Repulsion Energy =            542.0146289429459330
    One-Electron Energy =               -2710.0799788041849752
    Two-Electron Energy =                 980.3838986474836474
    Total Energy =                      -1187.6814512137555084
  Basis Set: (AUG-CC-PVTZ AUX)
    Blend: AUG-CC-PVTZ-RI
    Molecular point group: c1

    Geometry (in Angstrom), charge = 0, multiplicity = 1:

       Center              X                  Y                   Z               Mass
    ------------   -----------------  -----------------  -----------------  -----------------
         CL           2.700795827170    -1.160997043513    -0.016806087698    34.968852682000
         CL          -2.700882172830    -1.160980043513    -0.016806087698    34.968852682000
         C           -0.000035172830     1.809567956487    -0.035518087698    12.000000000000
         C           -1.207270172830     1.101833956487    -0.027979087698    12.000000000000
         C            1.207198827170     1.101825956487    -0.027980087698    12.000000000000
         C           -0.000020172830     3.315938956487    -0.005372087698    12.000000000000
         C            1.193091827170    -0.291876043513    -0.018752087698    12.000000000000
         C           -1.193172172830    -0.291870043513    -0.018752087698    12.000000000000
         C            0.000471927170    -1.010765543513     0.237817412302    12.000000000000
         H           -2.157135172830     1.630543956487    -0.036674087698     1.007825032230
         H            2.157066827170     1.630530956487    -0.036676087698     1.007825032230
         H            0.000248827170     3.685464956487     1.025485912302     1.007825032230
         H            0.885461827170     3.717967956487    -0.504789087698     1.007825032230
         H           -0.885755172830     3.717975956487    -0.504334087698     1.007825032230
         H           -0.000045172830    -2.097601043513    -0.008686087698     1.007825032230

  Basis Set: AUG-CC-PVTZ
    Blend: AUG-CC-PVTZ
  Basis Set: (AUG-CC-PVTZ AUX)
    Blend: AUG-CC-PVTZ-JKFIT
	 Reference Energy          =   -1187.6814512137555084 [Eh]
	 Singles Energy            =      -0.0000000000000000 [Eh]
	 Same-Spin Energy          =      -0.4309050399913515 [Eh]
	 Opposite-Spin Energy      =      -1.3027323797554429 [Eh]
	 Correlation Energy        =      -1.7336374197467943 [Eh]
	 Total Energy              =   -1189.4150886335023642 [Eh]

	 ================> DF-SCS-MP2 Energies <==================
	-----------------------------------------------------------
	 SCS Same-Spin Scale       =       0.3333333333333333 [-]
	 SCS Opposite-Spin Scale   =       1.2000000000000000 [-]
	 SCS Same-Spin Energy      =      -0.1436350133304505 [Eh]
	 SCS Opposite-Spin Energy  =      -1.5632788557065314 [Eh]
	 SCS Correlation Energy    =      -1.7069138690369818 [Eh]
	 SCS Total Energy          =   -1189.3883650827924612 [Eh]
	-----------------------------------------------------------

  Dipole Moment: [D]
     X:    -0.0010      Y:     2.2707      Z:    -0.0490     Total:     2.2712

*** Psi4 exiting successfully. Buy a developer a beer!
