                               Psi4 1.3.2 release

  ==> Input File <==

--------------------------------------------------------------------------
#psi4
#
memory 32 gb

molecule  {
0 1
 Cl        2.7008340    -1.2489210     0.0016850
 Cl       -2.7008440    -1.2489040     0.0016850
  C        0.0000030     1.7216440    -0.0170270
  C       -1.2072320     1.0139100    -0.0094880
  C        1.2072370     1.0139020    -0.0094890
  C        0.0000180     3.2269940     0.1131138
  C        1.1931300    -0.3798000    -0.0002610
  C       -1.1931340    -0.3797940    -0.0002610
  C       -0.0000050    -1.1002640     0.0063140
  H       -2.1570970     1.5426200    -0.0181830
  H        2.1571050     1.5426070    -0.0181850
  H        0.0002870     3.5975410     1.0439770
  H        0.8855000     3.6300440    -0.4862980
  H       -0.8857170     3.6300520    -0.4858430
  H       -0.0000070    -2.1855250     0.0098050
units angstrom
no_reorient  #important for SAPT in psi4, default
symmetry c1  #important for SAPT in psi4, default
}

set PROPERTIES_ORIGIN ["COM"]
properties('MP2/aug-cc-pvtz', properties = ['dipole'])
--------------------------------------------------------------------------

    Molecular point group: c1
  Charge       = 0
  Multiplicity = 1
  Basis Set: AUG-CC-PVTZ
    Blend: AUG-CC-PVTZ
  Basis Set: (AUG-CC-PVTZ AUX)
    Blend: AUG-CC-PVTZ-JKFIT

    Orbital Energies [Eh]
    ---------------------

    Doubly Occupied:

       1A   -104.849415     2A   -104.849415     3A    -11.318307
       4A    -11.318300     5A    -11.271278     6A    -11.261315
       7A    -11.255459     8A    -11.255404     9A    -11.242567
      10A    -10.573202    11A    -10.573201    12A     -8.040105
      13A     -8.040105    14A     -8.038177    15A     -8.038177
      16A     -8.038171    17A     -8.038171    18A     -1.212350
      19A     -1.161041    20A     -1.118431    21A     -1.043730
      22A     -0.998395    23A     -0.959637    24A     -0.823063
      25A     -0.817230    26A     -0.708272    27A     -0.680690
      28A     -0.631333    29A     -0.616357    30A     -0.594827
      31A     -0.591327    32A     -0.560371    33A     -0.544108
      34A     -0.525072    35A     -0.510975    36A     -0.510372
      37A     -0.466465    38A     -0.457842    39A     -0.452947
      40A     -0.347651    41A     -0.341987

  @DF-RHF Final Energy: -1187.68852671712557

   => Energetics <=

    Nuclear Repulsion Energy =            542.7922435690842349
    One-Electron Energy =               -2711.6110580940771797
    Two-Electron Energy =                 981.1302878078671483
    Total Energy =                      -1187.6885267171255691
  Basis Set: (AUG-CC-PVTZ AUX)
    Blend: AUG-CC-PVTZ-RI
    Molecular point group: c1

    Geometry (in Angstrom), charge = 0, multiplicity = 1:

       Center              X                  Y                   Z               Mass
    ------------   -----------------  -----------------  -----------------  -----------------
         CL           2.700834463375    -1.160802362343    -0.005555031190    34.968852682000
         CL          -2.700843536625    -1.160785362343    -0.005555031190    34.968852682000
         C            0.000003463375     1.809762637657    -0.024267031190    12.000000000000
         C           -1.207231536625     1.102028637657    -0.016728031190    12.000000000000
         C            1.207237463375     1.102020637657    -0.016729031190    12.000000000000
         C            0.000018463375     3.315112637657     0.105873768810    12.000000000000
         C            1.193130463375    -0.291681362343    -0.007501031190    12.000000000000
         C           -1.193133536625    -0.291675362343    -0.007501031190    12.000000000000
         C           -0.000004536625    -1.012145362343    -0.000926031190    12.000000000000
         H           -2.157096536625     1.630738637657    -0.025423031190     1.007825032230
         H            2.157105463375     1.630725637657    -0.025425031190     1.007825032230
         H            0.000287463375     3.685659637657     1.036736968810     1.007825032230
         H            0.885500463375     3.718162637657    -0.493538031190     1.007825032230
         H           -0.885716536625     3.718170637657    -0.493083031190     1.007825032230
         H           -0.000006536625    -2.097406362343     0.002564968810     1.007825032230

  Basis Set: AUG-CC-PVTZ
    Blend: AUG-CC-PVTZ
  Basis Set: (AUG-CC-PVTZ AUX)
    Blend: AUG-CC-PVTZ-JKFIT
	 Reference Energy          =   -1187.6885267171255691 [Eh]
	 Singles Energy            =      -0.0000000000000000 [Eh]
	 Same-Spin Energy          =      -0.4300449509062998 [Eh]
	 Opposite-Spin Energy      =      -1.3005964836768538 [Eh]
	 Correlation Energy        =      -1.7306414345831536 [Eh]
	 Total Energy              =   -1189.4191681517086181 [Eh]

	 ================> DF-SCS-MP2 Energies <==================
	-----------------------------------------------------------
	 SCS Same-Spin Scale       =       0.3333333333333333 [-]
	 SCS Opposite-Spin Scale   =       1.2000000000000000 [-]
	 SCS Same-Spin Energy      =      -0.1433483169687666 [Eh]
	 SCS Opposite-Spin Energy  =      -1.5607157804122245 [Eh]
	 SCS Correlation Energy    =      -1.7040640973809911 [Eh]
	 SCS Total Energy          =   -1189.3925908145065478 [Eh]
	-----------------------------------------------------------

  Dipole Moment: [D]
     X:     0.0000      Y:     2.0666      Z:     0.0698     Total:     2.0678

*** Psi4 exiting successfully. Buy a developer a beer!
