                               Psi4 1.3.2 release

  ==> Input File <==

--------------------------------------------------------------------------
#psi4
#
memory 32 gb

molecule  {
0 1
 Cl        2.7008340    -1.2489210     0.0016850
 Cl       -2.7008440    -1.2489040     0.0016850
  C        0.0000030     1.7216440    -0.0170270
  C       -1.2072320     1.0139100    -0.0094880
  C        1.2072370     1.0139020    -0.0094890
  C        0.0000180     3.2280150     0.0131190
  C        1.1931300    -0.3798000    -0.0002610
  C       -1.1931340    -0.3797940    -0.0002610
  C       -0.0000050    -1.1002640     0.0063140
  H       -2.1570970     1.5426200    -0.0181830
  H        2.1571050     1.5426070    -0.0181850
  H        0.0002870     3.5975410     1.0439770
  H        0.8855000     3.6300440    -0.4862980
  H       -0.8857170     3.6300520    -0.4858430
  H       -0.0000070    -2.1855250     0.0098050
units angstrom
no_reorient  #important for SAPT in psi4, default
symmetry c1  #important for SAPT in psi4, default
}

set PROPERTIES_ORIGIN ["COM"]
properties('MP2/aug-cc-pvtz', properties = ['dipole'])
--------------------------------------------------------------------------

    Molecular point group: c1
  Charge       = 0
  Multiplicity = 1
  Basis Set: AUG-CC-PVTZ
    Blend: AUG-CC-PVTZ
  Basis Set: (AUG-CC-PVTZ AUX)
    Blend: AUG-CC-PVTZ-JKFIT

    Orbital Energies [Eh]
    ---------------------

    Doubly Occupied:

       1A   -104.849244     2A   -104.849243     3A    -11.318213
       4A    -11.318206     5A    -11.271119     6A    -11.260418
       7A    -11.254961     8A    -11.254907     9A    -11.241848
      10A    -10.573029    11A    -10.573028    12A     -8.039932
      13A     -8.039932    14A     -8.038005    15A     -8.038005
      16A     -8.037999    17A     -8.037998    18A     -1.212068
      19A     -1.160815    20A     -1.118539    21A     -1.043631
      22A     -0.998173    23A     -0.958717    24A     -0.823054
      25A     -0.815896    26A     -0.707472    27A     -0.682293
      28A     -0.626730    29A     -0.598248    30A     -0.594700
      31A     -0.594054    32A     -0.563563    33A     -0.555998
      34A     -0.525758    35A     -0.517451    36A     -0.510734
      37A     -0.466023    38A     -0.457829    39A     -0.452101
      40A     -0.346018    41A     -0.341869

  @DF-RHF Final Energy: -1187.70025801755332

   => Energetics <=

    Nuclear Repulsion Energy =            542.8272329327521675
    One-Electron Energy =               -2711.7193363385954399
    Two-Electron Energy =                 981.1918453882897211
    Total Energy =                      -1187.7002580175533240
  Basis Set: (AUG-CC-PVTZ AUX)
    Blend: AUG-CC-PVTZ-RI
    Molecular point group: c1

    Geometry (in Angstrom), charge = 0, multiplicity = 1:

       Center              X                  Y                   Z               Mass
    ------------   -----------------  -----------------  -----------------  -----------------
         CL           2.700834463375    -1.160878944687     0.001945298112    34.968852682000
         CL          -2.700843536625    -1.160861944687     0.001945298112    34.968852682000
         C            0.000003463375     1.809686055313    -0.016766701888    12.000000000000
         C           -1.207231536625     1.101952055313    -0.009227701888    12.000000000000
         C            1.207237463375     1.101944055313    -0.009228701888    12.000000000000
         C            0.000018463375     3.316057055313     0.013379298112    12.000000000000
         C            1.193130463375    -0.291757944687    -0.000000701888    12.000000000000
         C           -1.193133536625    -0.291751944687    -0.000000701888    12.000000000000
         C           -0.000004536625    -1.012221944687     0.006574298112    12.000000000000
         H           -2.157096536625     1.630662055313    -0.017922701888     1.007825032230
         H            2.157105463375     1.630649055313    -0.017924701888     1.007825032230
         H            0.000287463375     3.685583055313     1.044237298112     1.007825032230
         H            0.885500463375     3.718086055313    -0.486037701888     1.007825032230
         H           -0.885716536625     3.718094055313    -0.485582701888     1.007825032230
         H           -0.000006536625    -2.097482944687     0.010065298112     1.007825032230

  Basis Set: AUG-CC-PVTZ
    Blend: AUG-CC-PVTZ
  Basis Set: (AUG-CC-PVTZ AUX)
    Blend: AUG-CC-PVTZ-JKFIT
	 Reference Energy          =   -1187.7002580175533240 [Eh]
	 Singles Energy            =      -0.0000000000000000 [Eh]
	 Same-Spin Energy          =      -0.4298863798805886 [Eh]
	 Opposite-Spin Energy      =      -1.3000224553280004 [Eh]
	 Correlation Energy        =      -1.7299088352085890 [Eh]
	 Total Energy              =   -1189.4301668527618858 [Eh]

	 ================> DF-SCS-MP2 Energies <==================
	-----------------------------------------------------------
	 SCS Same-Spin Scale       =       0.3333333333333333 [-]
	 SCS Opposite-Spin Scale   =       1.2000000000000000 [-]
	 SCS Same-Spin Energy      =      -0.1432954599601962 [Eh]
	 SCS Opposite-Spin Energy  =      -1.5600269463936005 [Eh]
	 SCS Correlation Energy    =      -1.7033224063537968 [Eh]
	 SCS Total Energy          =   -1189.4035804239072149 [Eh]
	-----------------------------------------------------------

  Dipole Moment: [D]
     X:     0.0000      Y:     2.1379      Z:     0.0355     Total:     2.1382

*** Psi4 exiting successfully. Buy a developer a beer!
