                               Psi4 1.3.2 release

  ==> Input File <==

--------------------------------------------------------------------------
#psi4
#
memory 32 gb

molecule  {
0 1
 Cl        2.7008340    -1.2489210     0.0016850
 Cl       -2.7008440    -1.2489040     0.0016850
  C        0.0000030     1.7216440    -0.0170270
  C       -1.2072320     1.0139100    -0.0094880
  C        1.2072370     1.0139020    -0.0094890
  C        0.0000180     3.2280150     0.0131190
  C        1.1931300    -0.3798000    -0.0002610
  C       -1.1931340    -0.3797940    -0.0002610
  C        0.0002011    -1.0996342     0.1063118
  H       -2.1570970     1.5426200    -0.0181830
  H        2.1571050     1.5426070    -0.0181850
  H        0.0002870     3.5975410     1.0439770
  H        0.8855000     3.6300440    -0.4862980
  H       -0.8857170     3.6300520    -0.4858430
  H       -0.0000070    -2.1855250     0.0098050
units angstrom
no_reorient  #important for SAPT in psi4, default
symmetry c1  #important for SAPT in psi4, default
}

set PROPERTIES_ORIGIN ["COM"]
properties('MP2/aug-cc-pvtz', properties = ['dipole'])
--------------------------------------------------------------------------

    Molecular point group: c1
  Charge       = 0
  Multiplicity = 1
  Basis Set: AUG-CC-PVTZ
    Blend: AUG-CC-PVTZ
  Basis Set: (AUG-CC-PVTZ AUX)
    Blend: AUG-CC-PVTZ-JKFIT

    Orbital Energies [Eh]
    ---------------------

    Doubly Occupied:

       1A   -104.849326     2A   -104.849307     3A    -11.319057
       4A    -11.319019     5A    -11.271645     6A    -11.261181
       7A    -11.254851     8A    -11.254798     9A    -11.242058
      10A    -10.573121    11A    -10.573103    12A     -8.040024
      13A     -8.040006    14A     -8.038096    15A     -8.038088
      16A     -8.038079    17A     -8.038071    18A     -1.211744
      19A     -1.160812    20A     -1.118678    21A     -1.043118
      22A     -0.998229    23A     -0.958556    24A     -0.822134
      25A     -0.815838    26A     -0.706370    27A     -0.681598
      28A     -0.626846    29A     -0.598013    30A     -0.594746
      31A     -0.593448    32A     -0.563650    33A     -0.555153
      34A     -0.525427    35A     -0.518378    36A     -0.509613
      37A     -0.466076    38A     -0.457614    39A     -0.452043
      40A     -0.346112    41A     -0.341664

  @DF-RHF Final Energy: -1187.69724142931364

   => Energetics <=

    Nuclear Repulsion Energy =            542.6910791129007521
    One-Electron Energy =               -2711.4452608165111087
    Two-Electron Energy =                 981.0569402742967213
    Total Energy =                      -1187.6972414293136353
  Basis Set: (AUG-CC-PVTZ AUX)
    Blend: AUG-CC-PVTZ-RI
    Molecular point group: c1

    Geometry (in Angstrom), charge = 0, multiplicity = 1:

       Center              X                  Y                   Z               Mass
    ------------   -----------------  -----------------  -----------------  -----------------
         CL           2.700819004393    -1.160926184217    -0.005555256212    34.968852682000
         CL          -2.700858995607    -1.160909184217    -0.005555256212    34.968852682000
         C           -0.000011995607     1.809638815783    -0.024267256212    12.000000000000
         C           -1.207246995607     1.101904815783    -0.016728256212    12.000000000000
         C            1.207222004393     1.101896815783    -0.016729256212    12.000000000000
         C            0.000003004393     3.316009815783     0.005878743788    12.000000000000
         C            1.193115004393    -0.291805184217    -0.007501256212    12.000000000000
         C           -1.193148995607    -0.291799184217    -0.007501256212    12.000000000000
         C            0.000186104393    -1.011639384217     0.099071543788    12.000000000000
         H           -2.157111995607     1.630614815783    -0.025423256212     1.007825032230
         H            2.157090004393     1.630601815783    -0.025425256212     1.007825032230
         H            0.000272004393     3.685535815783     1.036736743788     1.007825032230
         H            0.885485004393     3.718038815783    -0.493538256212     1.007825032230
         H           -0.885731995607     3.718046815783    -0.493083256212     1.007825032230
         H           -0.000021995607    -2.097530184217     0.002564743788     1.007825032230

  Basis Set: AUG-CC-PVTZ
    Blend: AUG-CC-PVTZ
  Basis Set: (AUG-CC-PVTZ AUX)
    Blend: AUG-CC-PVTZ-JKFIT
	 Reference Energy          =   -1187.6972414293136353 [Eh]
	 Singles Energy            =      -0.0000000000000000 [Eh]
	 Same-Spin Energy          =      -0.4300574458758488 [Eh]
	 Opposite-Spin Energy      =      -1.3004490373789244 [Eh]
	 Correlation Energy        =      -1.7305064832547732 [Eh]
	 Total Energy              =   -1189.4277479125685204 [Eh]

	 ================> DF-SCS-MP2 Energies <==================
	-----------------------------------------------------------
	 SCS Same-Spin Scale       =       0.3333333333333333 [-]
	 SCS Opposite-Spin Scale   =       1.2000000000000000 [-]
	 SCS Same-Spin Energy      =      -0.1433524819586163 [Eh]
	 SCS Opposite-Spin Energy  =      -1.5605388448547093 [Eh]
	 SCS Correlation Energy    =      -1.7038913268133256 [Eh]
	 SCS Total Energy          =   -1189.4011327561270264 [Eh]
	-----------------------------------------------------------

  Dipole Moment: [D]
     X:    -0.0004      Y:     2.1595      Z:     0.0043     Total:     2.1595

*** Psi4 exiting successfully. Buy a developer a beer!
