                               Psi4 1.3.2 release

  ==> Input File <==

--------------------------------------------------------------------------
#psi4
#
memory 32 gb

molecule  {
0 1
 Cl        2.7008340    -1.2489210     0.0016850
 Cl       -2.7008440    -1.2489040     0.0016850
  C        0.0000030     1.7216440    -0.0170270
  C       -1.2072320     1.0139100    -0.0094880
  C        1.2072370     1.0139020    -0.0094890
  C        0.0000181     3.2254625     0.2631060
  C        1.1931300    -0.3798000    -0.0002610
  C       -1.1931340    -0.3797940    -0.0002610
  C       -0.0000050    -1.1002640     0.0063140
  H       -2.1570970     1.5426200    -0.0181830
  H        2.1571050     1.5426070    -0.0181850
  H        0.0002870     3.5975410     1.0439770
  H        0.8855000     3.6300440    -0.4862980
  H       -0.8857170     3.6300520    -0.4858430
  H       -0.0000070    -2.1855250     0.0098050
units angstrom
no_reorient  #important for SAPT in psi4, default
symmetry c1  #important for SAPT in psi4, default
}

set PROPERTIES_ORIGIN ["COM"]
properties('MP2/aug-cc-pvtz', properties = ['dipole'])
--------------------------------------------------------------------------

    Molecular point group: c1
  Charge       = 0
  Multiplicity = 1
  Basis Set: AUG-CC-PVTZ
    Blend: AUG-CC-PVTZ
  Basis Set: (AUG-CC-PVTZ AUX)
    Blend: AUG-CC-PVTZ-JKFIT

    Orbital Energies [Eh]
    ---------------------

    Doubly Occupied:

       1A   -104.850050     2A   -104.850050     3A    -11.318999
       4A    -11.318991     5A    -11.274956     6A    -11.263131
       7A    -11.256891     8A    -11.256841     9A    -11.249120
      10A    -10.573835    11A    -10.573834    12A     -8.040738
      13A     -8.040738    14A     -8.038808    15A     -8.038807
      16A     -8.038803    17A     -8.038802    18A     -1.213273
      19A     -1.161790    20A     -1.118539    21A     -1.044649
      22A     -0.999313    23A     -0.967312    24A     -0.826163
      25A     -0.823679    26A     -0.712036    27A     -0.679805
      28A     -0.662290    29A     -0.618107    30A     -0.595644
      31A     -0.585771    32A     -0.562976    33A     -0.532100
      34A     -0.521606    35A     -0.511656    36A     -0.485424
      37A     -0.468099    38A     -0.457653    39A     -0.451533
      40A     -0.348849    41A     -0.342715

  @DF-RHF Final Energy: -1187.61527522818460

   => Energetics <=

    Nuclear Repulsion Energy =            542.6439811676974614
    One-Electron Energy =               -2711.0897561390302144
    Two-Electron Energy =                 980.8304997431481524
    Total Energy =                      -1187.6152752281846006
  Basis Set: (AUG-CC-PVTZ AUX)
    Blend: AUG-CC-PVTZ-RI
    Molecular point group: c1

    Geometry (in Angstrom), charge = 0, multiplicity = 1:

       Center              X                  Y                   Z               Mass
    ------------   -----------------  -----------------  -----------------  -----------------
         CL           2.700834455875    -1.160687488826    -0.016805525144    34.968852682000
         CL          -2.700843544125    -1.160670488826    -0.016805525144    34.968852682000
         C            0.000003455875     1.809877511174    -0.035517525144    12.000000000000
         C           -1.207231544125     1.102143511174    -0.027978525144    12.000000000000
         C            1.207237455875     1.102135511174    -0.027979525144    12.000000000000
         C            0.000018555875     3.313696011174     0.244615474856    12.000000000000
         C            1.193130455875    -0.291566488826    -0.018751525144    12.000000000000
         C           -1.193133544125    -0.291560488826    -0.018751525144    12.000000000000
         C           -0.000004544125    -1.012030488826    -0.012176525144    12.000000000000
         H           -2.157096544125     1.630853511174    -0.036673525144     1.007825032230
         H            2.157105455875     1.630840511174    -0.036675525144     1.007825032230
         H            0.000287455875     3.685774511174     1.025486474856     1.007825032230
         H            0.885500455875     3.718277511174    -0.504788525144     1.007825032230
         H           -0.885716544125     3.718285511174    -0.504333525144     1.007825032230
         H           -0.000006544125    -2.097291488826    -0.008685525144     1.007825032230

  Basis Set: AUG-CC-PVTZ
    Blend: AUG-CC-PVTZ
  Basis Set: (AUG-CC-PVTZ AUX)
    Blend: AUG-CC-PVTZ-JKFIT
	 Reference Energy          =   -1187.6152752281846006 [Eh]
	 Singles Energy            =      -0.0000000000000000 [Eh]
	 Same-Spin Energy          =      -0.4308426220908707 [Eh]
	 Opposite-Spin Energy      =      -1.3034683047588032 [Eh]
	 Correlation Energy        =      -1.7343109268496737 [Eh]
	 Total Energy              =   -1189.3495861550343307 [Eh]

	 ================> DF-SCS-MP2 Energies <==================
	-----------------------------------------------------------
	 SCS Same-Spin Scale       =       0.3333333333333333 [-]
	 SCS Opposite-Spin Scale   =       1.2000000000000000 [-]
	 SCS Same-Spin Energy      =      -0.1436142073636235 [Eh]
	 SCS Opposite-Spin Energy  =      -1.5641619657105637 [Eh]
	 SCS Correlation Energy    =      -1.7077761730741872 [Eh]
	 SCS Total Energy          =   -1189.3230514012586809 [Eh]
	-----------------------------------------------------------

  Dipole Moment: [D]
     X:     0.0000      Y:     1.8906      Z:     0.0888     Total:     1.8927

*** Psi4 exiting successfully. Buy a developer a beer!
