                               Psi4 1.3.2 release

  ==> Input File <==

--------------------------------------------------------------------------
#psi4
#
memory 32 gb

molecule  {
0 1
 Cl        2.7008340    -1.2489210     0.0016850
 Cl       -2.7008440    -1.2489040     0.0016850
  C        0.0000030     1.7216440    -0.0170270
  C       -1.2072320     1.0139100    -0.0094880
  C        1.2072370     1.0139020    -0.0094890
  C        0.0000181     3.2259730     0.2131086
  C        1.1931300    -0.3798000    -0.0002610
  C       -1.1931340    -0.3797940    -0.0002610
  C       -0.0000050    -1.1002640     0.0063140
  H       -2.1570970     1.5426200    -0.0181830
  H        2.1571050     1.5426070    -0.0181850
  H        0.0002870     3.5975410     1.0439770
  H        0.8855000     3.6300440    -0.4862980
  H       -0.8857170     3.6300520    -0.4858430
  H       -0.0000070    -2.1855250     0.0098050
units angstrom
no_reorient  #important for SAPT in psi4, default
symmetry c1  #important for SAPT in psi4, default
}

set PROPERTIES_ORIGIN ["COM"]
properties('MP2/aug-cc-pvtz', properties = ['dipole'])
--------------------------------------------------------------------------

    Molecular point group: c1
  Charge       = 0
  Multiplicity = 1
  Basis Set: AUG-CC-PVTZ
    Blend: AUG-CC-PVTZ
  Basis Set: (AUG-CC-PVTZ AUX)
    Blend: AUG-CC-PVTZ-JKFIT

    Orbital Energies [Eh]
    ---------------------

    Doubly Occupied:

       1A   -104.849784     2A   -104.849784     3A    -11.318690
       4A    -11.318682     5A    -11.273255     6A    -11.262457
       7A    -11.256314     8A    -11.256261     9A    -11.246170
      10A    -10.573570    11A    -10.573570    12A     -8.040474
      13A     -8.040473    14A     -8.038544    15A     -8.038544
      16A     -8.038539    17A     -8.038538    18A     -1.212894
      19A     -1.161481    20A     -1.118459    21A     -1.044196
      22A     -0.998923    23A     -0.963661    24A     -0.823389
      25A     -0.822141    26A     -0.710338    27A     -0.679925
      28A     -0.652243    29A     -0.618480    30A     -0.595290
      31A     -0.587747    32A     -0.562360    33A     -0.534154
      34A     -0.523069    35A     -0.511366    36A     -0.495080
      37A     -0.467455    38A     -0.457824    39A     -0.452296
      40A     -0.348594    41A     -0.342395

  @DF-RHF Final Energy: -1187.64871797577916

   => Energetics <=

    Nuclear Repulsion Energy =            542.7020672822137612
    One-Electron Energy =               -2711.3067539927296821
    Two-Electron Energy =                 980.9559687347367571
    Total Energy =                      -1187.6487179757791637
  Basis Set: (AUG-CC-PVTZ AUX)
    Blend: AUG-CC-PVTZ-RI
    Molecular point group: c1

    Geometry (in Angstrom), charge = 0, multiplicity = 1:

       Center              X                  Y                   Z               Mass
    ------------   -----------------  -----------------  -----------------  -----------------
         CL           2.700834455875    -1.160725779998    -0.013055360493    34.968852682000
         CL          -2.700843544125    -1.160708779998    -0.013055360493    34.968852682000
         C            0.000003455875     1.809839220002    -0.031767360493    12.000000000000
         C           -1.207231544125     1.102105220002    -0.024228360493    12.000000000000
         C            1.207237455875     1.102097220002    -0.024229360493    12.000000000000
         C            0.000018555875     3.314168220002     0.198368239507    12.000000000000
         C            1.193130455875    -0.291604779998    -0.015001360493    12.000000000000
         C           -1.193133544125    -0.291598779998    -0.015001360493    12.000000000000
         C           -0.000004544125    -1.012068779998    -0.008426360493    12.000000000000
         H           -2.157096544125     1.630815220002    -0.032923360493     1.007825032230
         H            2.157105455875     1.630802220002    -0.032925360493     1.007825032230
         H            0.000287455875     3.685736220002     1.029236639507     1.007825032230
         H            0.885500455875     3.718239220002    -0.501038360493     1.007825032230
         H           -0.885716544125     3.718247220002    -0.500583360493     1.007825032230
         H           -0.000006544125    -2.097329779998    -0.004935360493     1.007825032230

  Basis Set: AUG-CC-PVTZ
    Blend: AUG-CC-PVTZ
  Basis Set: (AUG-CC-PVTZ AUX)
    Blend: AUG-CC-PVTZ-JKFIT
	 Reference Energy          =   -1187.6487179757791637 [Eh]
	 Singles Energy            =      -0.0000000000000000 [Eh]
	 Same-Spin Energy          =      -0.4304960110332984 [Eh]
	 Opposite-Spin Energy      =      -1.3022152976504784 [Eh]
	 Correlation Energy        =      -1.7327113086837769 [Eh]
	 Total Energy              =   -1189.3814292844629108 [Eh]

	 ================> DF-SCS-MP2 Energies <==================
	-----------------------------------------------------------
	 SCS Same-Spin Scale       =       0.3333333333333333 [-]
	 SCS Opposite-Spin Scale   =       1.2000000000000000 [-]
	 SCS Same-Spin Energy      =      -0.1434986703444328 [Eh]
	 SCS Opposite-Spin Energy  =      -1.5626583571805741 [Eh]
	 SCS Correlation Energy    =      -1.7061570275250069 [Eh]
	 SCS Total Energy          =   -1189.3548750033041870 [Eh]
	-----------------------------------------------------------

  Dipole Moment: [D]
     X:     0.0000      Y:     1.9592      Z:     0.0870     Total:     1.9611

*** Psi4 exiting successfully. Buy a developer a beer!
