                               Psi4 1.3.2 release

  ==> Input File <==

--------------------------------------------------------------------------
#psi4
#
memory 32 gb

molecule  {
0 1
 Cl        2.7008340    -1.2489210     0.0016850
 Cl       -2.7008440    -1.2489040     0.0016850
  C        0.0000030     1.7216440    -0.0170270
  C       -1.2072320     1.0139100    -0.0094880
  C        1.2072370     1.0139020    -0.0094890
  C        0.0000180     3.2280150     0.0131190
  C        1.1931300    -0.3798000    -0.0002610
  C       -1.1931340    -0.3797940    -0.0002610
  C        0.0003041    -1.0993193     0.1563107
  H       -2.1570970     1.5426200    -0.0181830
  H        2.1571050     1.5426070    -0.0181850
  H        0.0002870     3.5975410     1.0439770
  H        0.8855000     3.6300440    -0.4862980
  H       -0.8857170     3.6300520    -0.4858430
  H       -0.0000070    -2.1855250     0.0098050
units angstrom
no_reorient  #important for SAPT in psi4, default
symmetry c1  #important for SAPT in psi4, default
}

set PROPERTIES_ORIGIN ["COM"]
properties('MP2/aug-cc-pvtz', properties = ['dipole'])
--------------------------------------------------------------------------

    Molecular point group: c1
  Charge       = 0
  Multiplicity = 1
  Basis Set: AUG-CC-PVTZ
    Blend: AUG-CC-PVTZ
  Basis Set: (AUG-CC-PVTZ AUX)
    Blend: AUG-CC-PVTZ-JKFIT

    Orbital Energies [Eh]
    ---------------------

    Doubly Occupied:

       1A   -104.849413     2A   -104.849385     3A    -11.320059
       4A    -11.320005     5A    -11.272293     6A    -11.262080
       7A    -11.254732     8A    -11.254681     9A    -11.242327
      10A    -10.573219    11A    -10.573193    12A     -8.040120
      13A     -8.040094    14A     -8.038194    15A     -8.038183
      16A     -8.038167    17A     -8.038157    18A     -1.211358
      19A     -1.160808    20A     -1.118852    21A     -1.042488
      22A     -0.998304    23A     -0.958356    24A     -0.821042
      25A     -0.815784    26A     -0.705095    27A     -0.680757
      28A     -0.627010    29A     -0.598505    30A     -0.594801
      31A     -0.591817    32A     -0.563750    33A     -0.554302
      34A     -0.524988    35A     -0.519316    36A     -0.508447
      37A     -0.466147    38A     -0.457340    39A     -0.451963
      40A     -0.346214    41A     -0.341421

  @DF-RHF Final Energy: -1187.69350717422412

   => Energetics <=

    Nuclear Repulsion Energy =            542.5270954210337777
    One-Electron Energy =               -2711.1148719403190626
    Two-Electron Energy =                 980.8942693450612751
    Total Energy =                      -1187.6935071742241234
  Basis Set: (AUG-CC-PVTZ AUX)
    Blend: AUG-CC-PVTZ-RI
    Molecular point group: c1

    Geometry (in Angstrom), charge = 0, multiplicity = 1:

       Center              X                  Y                   Z               Mass
    ------------   -----------------  -----------------  -----------------  -----------------
         CL           2.700811278652    -1.160949803983    -0.009305533374    34.968852682000
         CL          -2.700866721348    -1.160932803983    -0.009305533374    34.968852682000
         C           -0.000019721348     1.809615196017    -0.028017533374    12.000000000000
         C           -1.207254721348     1.101881196017    -0.020478533374    12.000000000000
         C            1.207214278652     1.101873196017    -0.020479533374    12.000000000000
         C           -0.000004721348     3.315986196017     0.002128466626    12.000000000000
         C            1.193107278652    -0.291828803983    -0.011251533374    12.000000000000
         C           -1.193156721348    -0.291822803983    -0.011251533374    12.000000000000
         C            0.000281378652    -1.011348103983     0.145320166626    12.000000000000
         H           -2.157119721348     1.630591196017    -0.029173533374     1.007825032230
         H            2.157082278652     1.630578196017    -0.029175533374     1.007825032230
         H            0.000264278652     3.685512196017     1.032986466626     1.007825032230
         H            0.885477278652     3.718015196017    -0.497288533374     1.007825032230
         H           -0.885739721348     3.718023196017    -0.496833533374     1.007825032230
         H           -0.000029721348    -2.097553803983    -0.001185533374     1.007825032230

  Basis Set: AUG-CC-PVTZ
    Blend: AUG-CC-PVTZ
  Basis Set: (AUG-CC-PVTZ AUX)
    Blend: AUG-CC-PVTZ-JKFIT
	 Reference Energy          =   -1187.6935071742241234 [Eh]
	 Singles Energy            =      -0.0000000000000000 [Eh]
	 Same-Spin Energy          =      -0.4302635428177282 [Eh]
	 Opposite-Spin Energy      =      -1.3009824947038262 [Eh]
	 Correlation Energy        =      -1.7312460375215544 [Eh]
	 Total Energy              =   -1189.4247532117456103 [Eh]

	 ================> DF-SCS-MP2 Energies <==================
	-----------------------------------------------------------
	 SCS Same-Spin Scale       =       0.3333333333333333 [-]
	 SCS Opposite-Spin Scale   =       1.2000000000000000 [-]
	 SCS Same-Spin Energy      =      -0.1434211809392427 [Eh]
	 SCS Opposite-Spin Energy  =      -1.5611789936445915 [Eh]
	 SCS Correlation Energy    =      -1.7046001745838342 [Eh]
	 SCS Total Energy          =   -1189.3981073488080256 [Eh]
	-----------------------------------------------------------

  Dipole Moment: [D]
     X:    -0.0006      Y:     2.1863      Z:    -0.0122     Total:     2.1864

*** Psi4 exiting successfully. Buy a developer a beer!
