                               Psi4 1.3.2 release

  ==> Input File <==

--------------------------------------------------------------------------
#psi4
#
memory 32 gb

molecule  {
0 1
 Cl        2.7008340    -1.2489210     0.0016850
 Cl       -2.7008440    -1.2489040     0.0016850
  C        0.0000030     1.7216440    -0.0170270
  C       -1.2072320     1.0139100    -0.0094880
  C        1.2072370     1.0139020    -0.0094890
  C        0.0000180     3.2280150     0.0131190
  C        1.1931300    -0.3798000    -0.0002610
  C       -1.1931340    -0.3797940    -0.0002610
  C        0.0004071    -1.0990044     0.2063096
  H       -2.1570970     1.5426200    -0.0181830
  H        2.1571050     1.5426070    -0.0181850
  H        0.0002870     3.5975410     1.0439770
  H        0.8855000     3.6300440    -0.4862980
  H       -0.8857170     3.6300520    -0.4858430
  H       -0.0000070    -2.1855250     0.0098050
units angstrom
no_reorient  #important for SAPT in psi4, default
symmetry c1  #important for SAPT in psi4, default
}

set PROPERTIES_ORIGIN ["COM"]
properties('MP2/aug-cc-pvtz', properties = ['dipole'])
--------------------------------------------------------------------------

    Molecular point group: c1
  Charge       = 0
  Multiplicity = 1
  Basis Set: AUG-CC-PVTZ
    Blend: AUG-CC-PVTZ
  Basis Set: (AUG-CC-PVTZ AUX)
    Blend: AUG-CC-PVTZ-JKFIT

    Orbital Energies [Eh]
    ---------------------

    Doubly Occupied:

       1A   -104.849536     2A   -104.849499     3A    -11.321426
       4A    -11.321357     5A    -11.273206     6A    -11.263299
       7A    -11.254583     8A    -11.254533     9A    -11.242712
      10A    -10.573354    11A    -10.573320    12A     -8.040253
      13A     -8.040219    14A     -8.038328    15A     -8.038314
      16A     -8.038294    17A     -8.038280    18A     -1.210833
      19A     -1.160807    20A     -1.119100    21A     -1.041615
      22A     -0.998418    23A     -0.958064    24A     -0.819582
      25A     -0.815728    26A     -0.703433    27A     -0.679592
      28A     -0.627252    29A     -0.599036    30A     -0.594880
      31A     -0.589714    32A     -0.563887    33A     -0.553189
      34A     -0.524298    35A     -0.520351    36A     -0.507108
      37A     -0.466249    38A     -0.456944    39A     -0.451849
      40A     -0.346370    41A     -0.341097

  @DF-RHF Final Energy: -1187.68825407151303

   => Energetics <=

    Nuclear Repulsion Energy =            542.3009512480417698
    One-Electron Energy =               -2710.6585957460442842
    Two-Electron Energy =                 980.6693904264894854
    Total Energy =                      -1187.6882540715132563
  Basis Set: (AUG-CC-PVTZ AUX)
    Blend: AUG-CC-PVTZ-RI
    Molecular point group: c1

    Geometry (in Angstrom), charge = 0, multiplicity = 1:

       Center              X                  Y                   Z               Mass
    ------------   -----------------  -----------------  -----------------  -----------------
         CL           2.700803552911    -1.160973423748    -0.013055810536    34.968852682000
         CL          -2.700874447089    -1.160956423748    -0.013055810536    34.968852682000
         C           -0.000027447089     1.809591576252    -0.031767810536    12.000000000000
         C           -1.207262447089     1.101857576252    -0.024228810536    12.000000000000
         C            1.207206552911     1.101849576252    -0.024229810536    12.000000000000
         C           -0.000012447089     3.315962576252    -0.001621810536    12.000000000000
         C            1.193099552911    -0.291852423748    -0.015001810536    12.000000000000
         C           -1.193164447089    -0.291846423748    -0.015001810536    12.000000000000
         C            0.000376652911    -1.011056823748     0.191568789464    12.000000000000
         H           -2.157127447089     1.630567576252    -0.032923810536     1.007825032230
         H            2.157074552911     1.630554576252    -0.032925810536     1.007825032230
         H            0.000256552911     3.685488576252     1.029236189464     1.007825032230
         H            0.885469552911     3.717991576252    -0.501038810536     1.007825032230
         H           -0.885747447089     3.717999576252    -0.500583810536     1.007825032230
         H           -0.000037447089    -2.097577423748    -0.004935810536     1.007825032230

  Basis Set: AUG-CC-PVTZ
    Blend: AUG-CC-PVTZ
  Basis Set: (AUG-CC-PVTZ AUX)
    Blend: AUG-CC-PVTZ-JKFIT
	 Reference Energy          =   -1187.6882540715130290 [Eh]
	 Singles Energy            =      -0.0000000000000000 [Eh]
	 Same-Spin Energy          =      -0.4305477008680049 [Eh]
	 Opposite-Spin Energy      =      -1.3017438396338343 [Eh]
	 Correlation Energy        =      -1.7322915405018393 [Eh]
	 Total Energy              =   -1189.4205456120148483 [Eh]

	 ================> DF-SCS-MP2 Energies <==================
	-----------------------------------------------------------
	 SCS Same-Spin Scale       =       0.3333333333333333 [-]
	 SCS Opposite-Spin Scale   =       1.2000000000000000 [-]
	 SCS Same-Spin Energy      =      -0.1435159002893349 [Eh]
	 SCS Opposite-Spin Energy  =      -1.5620926075606012 [Eh]
	 SCS Correlation Energy    =      -1.7056085078499361 [Eh]
	 SCS Total Energy          =   -1189.3938625793630308 [Eh]
	-----------------------------------------------------------

  Dipole Moment: [D]
     X:    -0.0008      Y:     2.2235      Z:    -0.0300     Total:     2.2237

*** Psi4 exiting successfully. Buy a developer a beer!
