                               Psi4 1.4a3.dev225

  ==> Input File <==

--------------------------------------------------------------------------
#psi4
#
memory 32 gb

molecule  {
0 1
  N        0.5504050     0.2888980     0.0000030
  N        1.4110960    -0.7583650     0.0000030
  N       -1.6001010     1.1626980     0.0000020
  C       -0.8451450     0.0599490     0.0000010
  C        2.6332390    -0.1936150     0.0000010
  C        1.1883050     1.5005680    -0.0000010
  C        2.5380190     1.2166580    -0.0000050
  C       -1.3422810    -1.2473470    -0.0000020
  C        3.8383105    -1.0432990     0.0000000
  C       -2.7247750    -1.4016960    -0.0000020
  C       -3.5411930    -0.2684380    -0.0000010
  C       -2.9334870     0.9852400     0.0000010
  H        0.6241030     2.4207830    -0.0000050
  H        3.3483500     1.9335830    -0.0000020
  H       -0.6580170    -2.0875250    -0.0000030
  H        4.4729550    -0.8692260     0.8837650
  H        3.5568860    -2.1057260    -0.0000080
  H        4.4729610    -0.8692120    -0.8837580
  H       -3.1593860    -2.3981240    -0.0000040
  H       -4.6237380    -0.3528270    -0.0000020
  H       -3.5279520     1.8966820     0.0000020
units angstrom
no_reorient  #important for SAPT in psi4, default
symmetry c1  #important for SAPT in psi4, default
}

set PROPERTIES_ORIGIN ["COM"]
properties('MP2/aug-cc-pvtz', properties = ['dipole'])
--------------------------------------------------------------------------

    Molecular point group: c1
  Charge       = 0
  Multiplicity = 1
  Basis Set: AUG-CC-PVTZ
    Blend: AUG-CC-PVTZ
  Basis Set: (AUG-CC-PVTZ AUX)
    Blend: AUG-CC-PVTZ-JKFIT

    Orbital Energies [Eh]
    ---------------------

    Doubly Occupied:

       1A    -15.644330     2A    -15.582297     3A    -15.570975
       4A    -11.329298     5A    -11.285151     6A    -11.277999
       7A    -11.266162     8A    -11.265766     9A    -11.241308
      10A    -11.240463    11A    -11.226433    12A    -11.221593
      13A     -1.382842    14A     -1.268779    15A     -1.130049
      16A     -1.093771    17A     -1.060437    18A     -1.025112
      19A     -0.963174    20A     -0.875502    21A     -0.859626
      22A     -0.795831    23A     -0.759717    24A     -0.741071
      25A     -0.680793    26A     -0.664180    27A     -0.638214
      28A     -0.635406    29A     -0.606550    30A     -0.592726
      31A     -0.575253    32A     -0.570893    33A     -0.551806
      34A     -0.536114    35A     -0.533863    36A     -0.524686
      37A     -0.458709    38A     -0.433885    39A     -0.400657
      40A     -0.381555    41A     -0.345896    42A     -0.309830

  @DF-RHF Final Energy:  -509.55087365252143

   => Energetics <=

    Nuclear Repulsion Energy =            640.1164083477955273
    One-Electron Energy =               -1960.2371640949043012
    Two-Electron Energy =                 810.5698820945874559
    Total Energy =                       -509.5508736525214317
  Basis Set: (AUG-CC-PVTZ AUX)
    Blend: AUG-CC-PVTZ-RI
    Molecular point group: c1

    Geometry (in Angstrom), charge = 0, multiplicity = 1:

       Center              X                  Y                   Z               Mass
    ------------   -----------------  -----------------  -----------------  -----------------
         N            0.579735943782     0.272849525210     0.000002994297    14.003074004430
         N            1.440426943782    -0.774413474790     0.000002994297    14.003074004430
         N           -1.570770056218     1.146649525210     0.000001994297    14.003074004430
         C           -0.815814056218     0.043900525210     0.000000994297    12.000000000000
         C            2.662569943782    -0.209663474790     0.000000994297    12.000000000000
         C            1.217635943782     1.484519525210    -0.000001005703    12.000000000000
         C            2.567349943782     1.200609525210    -0.000005005703    12.000000000000
         C           -1.312950056218    -1.263395474790    -0.000002005703    12.000000000000
         C            3.867641443782    -1.059347474790    -0.000000005703    12.000000000000
         C           -2.695444056218    -1.417744474790    -0.000002005703    12.000000000000
         C           -3.511862056218    -0.284486474790    -0.000001005703    12.000000000000
         C           -2.904156056218     0.969191525210     0.000000994297    12.000000000000
         H            0.653433943782     2.404734525210    -0.000005005703     1.007825032230
         H            3.377680943782     1.917534525210    -0.000002005703     1.007825032230
         H           -0.628686056218    -2.103573474790    -0.000003005703     1.007825032230
         H            4.502285943782    -0.885274474790     0.883764994297     1.007825032230
         H            3.586216943782    -2.121774474790    -0.000008005703     1.007825032230
         H            4.502291943782    -0.885260474790    -0.883758005703     1.007825032230
         H           -3.130055056218    -2.414172474790    -0.000004005703     1.007825032230
         H           -4.594407056218    -0.368875474790    -0.000002005703     1.007825032230
         H           -3.498621056218     1.880633525210     0.000001994297     1.007825032230

  Basis Set: AUG-CC-PVTZ
    Blend: AUG-CC-PVTZ
  Basis Set: (AUG-CC-PVTZ AUX)
    Blend: AUG-CC-PVTZ-JKFIT
	 Reference Energy          =    -509.5508736525214317 [Eh]
	 Singles Energy            =      -0.0000000000000000 [Eh]
	 Same-Spin Energy          =      -0.5649958998286978 [Eh]
	 Opposite-Spin Energy      =      -1.7207957853602762 [Eh]
	 Correlation Energy        =      -2.2857916851889741 [Eh]
	 Total Energy              =    -511.8366653377104285 [Eh]

	 ================> DF-SCS-MP2 Energies <==================
	-----------------------------------------------------------
	 SCS Same-Spin Scale       =       0.3333333333333333 [-]
	 SCS Opposite-Spin Scale   =       1.2000000000000000 [-]
	 SCS Same-Spin Energy      =      -0.1883319666095659 [Eh]
	 SCS Opposite-Spin Energy  =      -2.0649549424323315 [Eh]
	 SCS Correlation Energy    =      -2.2532869090418974 [Eh]
	 SCS Total Energy          =    -511.8041605615633216 [Eh]
	-----------------------------------------------------------

  Dipole Moment: [D]
     X:    -1.1522      Y:    -0.3532      Z:    -0.0000     Total:     1.2051

*** Psi4 exiting successfully. Buy a developer a beer!
