                               Psi4 1.4a3.dev225

  ==> Input File <==

--------------------------------------------------------------------------
#psi4
#
memory 32 gb

molecule  {
0 1
  N        0.5504050     0.2888980     0.0000030
  N        1.4110960    -0.7583650     0.0000030
  N       -1.6001010     1.1626980     0.0000020
  C       -0.8451450     0.0599490     0.0000010
  C        2.6332390    -0.1936150     0.0000010
  C        1.1883050     1.5005680    -0.0000010
  C        2.5380190     1.2166580    -0.0000050
  C       -1.3422810    -1.2473470    -0.0000020
  C        3.8546560    -1.0548240     0.0000000
  C       -2.7744663    -1.4072438    -0.0000020
  C       -3.5411930    -0.2684380    -0.0000010
  C       -2.9334870     0.9852400     0.0000010
  H        0.6241030     2.4207830    -0.0000050
  H        3.3483500     1.9335830    -0.0000020
  H       -0.6580170    -2.0875250    -0.0000030
  H        4.4729550    -0.8692260     0.8837650
  H        3.5568860    -2.1057260    -0.0000080
  H        4.4729610    -0.8692120    -0.8837580
  H       -3.1593860    -2.3981240    -0.0000040
  H       -4.6237380    -0.3528270    -0.0000020
  H       -3.5279520     1.8966820     0.0000020
units angstrom
no_reorient  #important for SAPT in psi4, default
symmetry c1  #important for SAPT in psi4, default
}

set PROPERTIES_ORIGIN ["COM"]
properties('MP2/aug-cc-pvtz', properties = ['dipole'])
--------------------------------------------------------------------------

    Molecular point group: c1
  Charge       = 0
  Multiplicity = 1
  Basis Set: AUG-CC-PVTZ
    Blend: AUG-CC-PVTZ
  Basis Set: (AUG-CC-PVTZ AUX)
    Blend: AUG-CC-PVTZ-JKFIT

    Orbital Energies [Eh]
    ---------------------

    Doubly Occupied:

       1A    -15.643196     2A    -15.581251     3A    -15.572518
       4A    -11.327178     5A    -11.287639     6A    -11.277093
       7A    -11.267216     8A    -11.266050     9A    -11.245093
      10A    -11.240040    11A    -11.225333    12A    -11.220533
      13A     -1.381611    14A     -1.268459    15A     -1.128644
      16A     -1.090946    17A     -1.060228    18A     -1.022332
      19A     -0.961381    20A     -0.878805    21A     -0.857901
      22A     -0.796573    23A     -0.758811    24A     -0.741033
      25A     -0.680264    26A     -0.663634    27A     -0.639358
      28A     -0.634171    29A     -0.606053    30A     -0.592361
      31A     -0.581011    32A     -0.572202    33A     -0.546266
      34A     -0.534129    35A     -0.532490    36A     -0.525540
      37A     -0.457248    38A     -0.435792    39A     -0.402367
      40A     -0.377743    41A     -0.344918    42A     -0.309479

  @DF-RHF Final Energy:  -509.54781111455236

   => Energetics <=

    Nuclear Repulsion Energy =            639.0928690435628141
    One-Electron Energy =               -1958.2115836709331234
    Two-Electron Energy =                 809.5709035128179494
    Total Energy =                       -509.5478111145523599
  Basis Set: (AUG-CC-PVTZ AUX)
    Blend: AUG-CC-PVTZ-RI
    Molecular point group: c1

    Geometry (in Angstrom), charge = 0, multiplicity = 1:

       Center              X                  Y                   Z               Mass
    ------------   -----------------  -----------------  -----------------  -----------------
         N            0.582251347901     0.274137393290     0.000002994297    14.003074004430
         N            1.442942347901    -0.773125606710     0.000002994297    14.003074004430
         N           -1.568254652099     1.147937393290     0.000001994297    14.003074004430
         C           -0.813298652099     0.045188393290     0.000000994297    12.000000000000
         C            2.665085347901    -0.208375606710     0.000000994297    12.000000000000
         C            1.220151347901     1.485807393290    -0.000001005703    12.000000000000
         C            2.569865347901     1.201897393290    -0.000005005703    12.000000000000
         C           -1.310434652099    -1.262107606710    -0.000002005703    12.000000000000
         C            3.886502347901    -1.069584606710    -0.000000005703    12.000000000000
         C           -2.742619952099    -1.422004406710    -0.000002005703    12.000000000000
         C           -3.509346652099    -0.283198606710    -0.000001005703    12.000000000000
         C           -2.901640652099     0.970479393290     0.000000994297    12.000000000000
         H            0.655949347901     2.406022393290    -0.000005005703     1.007825032230
         H            3.380196347901     1.918822393290    -0.000002005703     1.007825032230
         H           -0.626170652099    -2.102285606710    -0.000003005703     1.007825032230
         H            4.504801347901    -0.883986606710     0.883764994297     1.007825032230
         H            3.588732347901    -2.120486606710    -0.000008005703     1.007825032230
         H            4.504807347901    -0.883972606710    -0.883758005703     1.007825032230
         H           -3.127539652099    -2.412884606710    -0.000004005703     1.007825032230
         H           -4.591891652099    -0.367587606710    -0.000002005703     1.007825032230
         H           -3.496105652099     1.881921393290     0.000001994297     1.007825032230

  Basis Set: AUG-CC-PVTZ
    Blend: AUG-CC-PVTZ
  Basis Set: (AUG-CC-PVTZ AUX)
    Blend: AUG-CC-PVTZ-JKFIT
	 Reference Energy          =    -509.5478111145523599 [Eh]
	 Singles Energy            =      -0.0000000000000000 [Eh]
	 Same-Spin Energy          =      -0.5650118978981775 [Eh]
	 Opposite-Spin Energy      =      -1.7211538866289144 [Eh]
	 Correlation Energy        =      -2.2861657845270917 [Eh]
	 Total Energy              =    -511.8339768990794596 [Eh]

	 ================> DF-SCS-MP2 Energies <==================
	-----------------------------------------------------------
	 SCS Same-Spin Scale       =       0.3333333333333333 [-]
	 SCS Opposite-Spin Scale   =       1.2000000000000000 [-]
	 SCS Same-Spin Energy      =      -0.1883372992993925 [Eh]
	 SCS Opposite-Spin Energy  =      -2.0653846639546973 [Eh]
	 SCS Correlation Energy    =      -2.2537219632540899 [Eh]
	 SCS Total Energy          =    -511.8015330778064254 [Eh]
	-----------------------------------------------------------

  Dipole Moment: [D]
     X:    -1.2113      Y:    -0.3657      Z:    -0.0000     Total:     1.2654

*** Psi4 exiting successfully. Buy a developer a beer!
