                               Psi4 1.4a3.dev225

  ==> Input File <==

--------------------------------------------------------------------------
#psi4
#
memory 32 gb

molecule  {
0 1
  N        0.5504050     0.2888980     0.0000030
  N        1.4110960    -0.7583650     0.0000030
  N       -1.6001010     1.1626980     0.0000020
  C       -0.8451450     0.0599490     0.0000010
  C        2.6150837    -0.2020045     0.0000010
  C        1.1883050     1.5005680    -0.0000010
  C        2.5380190     1.2166580    -0.0000050
  C       -1.3422810    -1.2473470    -0.0000020
  C        3.8546560    -1.0548240     0.0000000
  C       -2.7247750    -1.4016960    -0.0000020
  C       -3.5411930    -0.2684380    -0.0000010
  C       -2.9334870     0.9852400     0.0000010
  H        0.6241030     2.4207830    -0.0000050
  H        3.3483500     1.9335830    -0.0000020
  H       -0.6580170    -2.0875250    -0.0000030
  H        4.4729550    -0.8692260     0.8837650
  H        3.5568860    -2.1057260    -0.0000080
  H        4.4729610    -0.8692120    -0.8837580
  H       -3.1593860    -2.3981240    -0.0000040
  H       -4.6237380    -0.3528270    -0.0000020
  H       -3.5279520     1.8966820     0.0000020
units angstrom
no_reorient  #important for SAPT in psi4, default
symmetry c1  #important for SAPT in psi4, default
}

set PROPERTIES_ORIGIN ["COM"]
properties('MP2/aug-cc-pvtz', properties = ['dipole'])
--------------------------------------------------------------------------

    Molecular point group: c1
  Charge       = 0
  Multiplicity = 1
  Basis Set: AUG-CC-PVTZ
    Blend: AUG-CC-PVTZ
  Basis Set: (AUG-CC-PVTZ AUX)
    Blend: AUG-CC-PVTZ-JKFIT

    Orbital Energies [Eh]
    ---------------------

    Doubly Occupied:

       1A    -15.643070     2A    -15.581940     3A    -15.570545
       4A    -11.329130     5A    -11.284983     6A    -11.278154
       7A    -11.266387     8A    -11.265617     9A    -11.240995
      10A    -11.240075    11A    -11.226173    12A    -11.221642
      13A     -1.385203    14A     -1.269103    15A     -1.131443
      16A     -1.093453    17A     -1.061280    18A     -1.022684
      19A     -0.961807    20A     -0.875306    21A     -0.859196
      22A     -0.796907    23A     -0.759035    24A     -0.741862
      25A     -0.680319    26A     -0.663860    27A     -0.637201
      28A     -0.636433    29A     -0.606266    30A     -0.592875
      31A     -0.574313    32A     -0.572158    33A     -0.549903
      34A     -0.534981    35A     -0.534577    36A     -0.526233
      37A     -0.458630    38A     -0.433688    39A     -0.401685
      40A     -0.381656    41A     -0.348714    42A     -0.309679

  @DF-RHF Final Energy:  -509.55296285466716

   => Energetics <=

    Nuclear Repulsion Energy =            640.0240955455038829
    One-Electron Energy =               -1960.0557915596032217
    Two-Electron Energy =                 810.4787331594322950
    Total Energy =                       -509.5529628546671574
  Basis Set: (AUG-CC-PVTZ AUX)
    Blend: AUG-CC-PVTZ-RI
    Molecular point group: c1

    Geometry (in Angstrom), charge = 0, multiplicity = 1:

       Center              X                  Y                   Z               Mass
    ------------   -----------------  -----------------  -----------------  -----------------
         N            0.579872464075     0.274351753836     0.000002994297    14.003074004430
         N            1.440563464075    -0.772911246164     0.000002994297    14.003074004430
         N           -1.570633535925     1.148151753836     0.000001994297    14.003074004430
         C           -0.815677535925     0.045402753836     0.000000994297    12.000000000000
         C            2.644551164075    -0.216550746164     0.000000994297    12.000000000000
         C            1.217772464075     1.486021753836    -0.000001005703    12.000000000000
         C            2.567486464075     1.202111753836    -0.000005005703    12.000000000000
         C           -1.312813535925    -1.261893246164    -0.000002005703    12.000000000000
         C            3.884123464075    -1.069370246164    -0.000000005703    12.000000000000
         C           -2.695307535925    -1.416242246164    -0.000002005703    12.000000000000
         C           -3.511725535925    -0.282984246164    -0.000001005703    12.000000000000
         C           -2.904019535925     0.970693753836     0.000000994297    12.000000000000
         H            0.653570464075     2.406236753836    -0.000005005703     1.007825032230
         H            3.377817464075     1.919036753836    -0.000002005703     1.007825032230
         H           -0.628549535925    -2.102071246164    -0.000003005703     1.007825032230
         H            4.502422464075    -0.883772246164     0.883764994297     1.007825032230
         H            3.586353464075    -2.120272246164    -0.000008005703     1.007825032230
         H            4.502428464075    -0.883758246164    -0.883758005703     1.007825032230
         H           -3.129918535925    -2.412670246164    -0.000004005703     1.007825032230
         H           -4.594270535925    -0.367373246164    -0.000002005703     1.007825032230
         H           -3.498484535925     1.882135753836     0.000001994297     1.007825032230

  Basis Set: AUG-CC-PVTZ
    Blend: AUG-CC-PVTZ
  Basis Set: (AUG-CC-PVTZ AUX)
    Blend: AUG-CC-PVTZ-JKFIT
	 Reference Energy          =    -509.5529628546671574 [Eh]
	 Singles Energy            =      -0.0000000000000000 [Eh]
	 Same-Spin Energy          =      -0.5641033862759617 [Eh]
	 Opposite-Spin Energy      =      -1.7195316353419603 [Eh]
	 Correlation Energy        =      -2.2836350216179220 [Eh]
	 Total Energy              =    -511.8365978762850546 [Eh]

	 ================> DF-SCS-MP2 Energies <==================
	-----------------------------------------------------------
	 SCS Same-Spin Scale       =       0.3333333333333333 [-]
	 SCS Opposite-Spin Scale   =       1.2000000000000000 [-]
	 SCS Same-Spin Energy      =      -0.1880344620919872 [Eh]
	 SCS Opposite-Spin Energy  =      -2.0634379624103523 [Eh]
	 SCS Correlation Energy    =      -2.2514724245023396 [Eh]
	 SCS Total Energy          =    -511.8044352791695246 [Eh]
	-----------------------------------------------------------

  Dipole Moment: [D]
     X:    -1.1226      Y:    -0.3478      Z:    -0.0000     Total:     1.1753

*** Psi4 exiting successfully. Buy a developer a beer!
