                               Psi4 1.4a3.dev225

  ==> Input File <==

--------------------------------------------------------------------------
#psi4
#
memory 32 gb

molecule  {
0 1
  N        0.5504050     0.2888980     0.0000030
  N        1.4110960    -0.7583650     0.0000030
  N       -1.6001010     1.1626980     0.0000020
  C       -0.8451450     0.0599490     0.0000010
  C        2.6332390    -0.1936150     0.0000010
  C        1.1883050     1.5005680    -0.0000010
  C        2.5413873     1.1667716    -0.0000048
  C       -1.3422810    -1.2473470    -0.0000020
  C        3.8546560    -1.0548240     0.0000000
  C       -2.7247750    -1.4016960    -0.0000020
  C       -3.5411930    -0.2684380    -0.0000010
  C       -2.9334870     0.9852400     0.0000010
  H        0.6241030     2.4207830    -0.0000050
  H        3.3483500     1.9335830    -0.0000020
  H       -0.6580170    -2.0875250    -0.0000030
  H        4.4729550    -0.8692260     0.8837650
  H        3.5568860    -2.1057260    -0.0000080
  H        4.4729610    -0.8692120    -0.8837580
  H       -3.1593860    -2.3981240    -0.0000040
  H       -4.6237380    -0.3528270    -0.0000020
  H       -3.5279520     1.8966820     0.0000020
units angstrom
no_reorient  #important for SAPT in psi4, default
symmetry c1  #important for SAPT in psi4, default
}

set PROPERTIES_ORIGIN ["COM"]
properties('MP2/aug-cc-pvtz', properties = ['dipole'])
--------------------------------------------------------------------------

    Molecular point group: c1
  Charge       = 0
  Multiplicity = 1
  Basis Set: AUG-CC-PVTZ
    Blend: AUG-CC-PVTZ
  Basis Set: (AUG-CC-PVTZ AUX)
    Blend: AUG-CC-PVTZ-JKFIT

    Orbital Energies [Eh]
    ---------------------

    Doubly Occupied:

       1A    -15.647068     2A    -15.579362     3A    -15.572220
       4A    -11.329643     5A    -11.285803     6A    -11.278819
       7A    -11.266318     8A    -11.260221     9A    -11.242188
      10A    -11.241560    11A    -11.224745    12A    -11.219851
      13A     -1.384259    14A     -1.269847    15A     -1.131963
      16A     -1.094586    17A     -1.058592    18A     -1.025676
      19A     -0.962490    20A     -0.876322    21A     -0.862238
      22A     -0.796792    23A     -0.759691    24A     -0.740449
      25A     -0.681148    26A     -0.663883    27A     -0.637871
      28A     -0.636157    29A     -0.609005    30A     -0.587925
      31A     -0.573898    32A     -0.572729    33A     -0.544620
      34A     -0.535345    35A     -0.535272    36A     -0.528978
      37A     -0.458060    38A     -0.434743    39A     -0.403097
      40A     -0.383215    41A     -0.340992    42A     -0.313097

  @DF-RHF Final Energy:  -509.54711504987756

   => Energetics <=

    Nuclear Repulsion Energy =            640.4881060851319035
    One-Electron Energy =               -1960.9689691141959429
    Two-Electron Energy =                 810.9337479791864780
    Total Energy =                       -509.5471150498775614
  Basis Set: (AUG-CC-PVTZ AUX)
    Blend: AUG-CC-PVTZ-RI
    Molecular point group: c1

    Geometry (in Angstrom), charge = 0, multiplicity = 1:

       Center              X                  Y                   Z               Mass
    ------------   -----------------  -----------------  -----------------  -----------------
         N            0.578248854742     0.277482027308     0.000002979210    14.003074004430
         N            1.438939854742    -0.769780972692     0.000002979210    14.003074004430
         N           -1.572257145258     1.151282027308     0.000001979210    14.003074004430
         C           -0.817301145258     0.048533027308     0.000000979210    12.000000000000
         C            2.661082854742    -0.205030972692     0.000000979210    12.000000000000
         C            1.216148854742     1.489152027308    -0.000001020790    12.000000000000
         C            2.569231154742     1.155355627308    -0.000004820790    12.000000000000
         C           -1.314437145258    -1.258762972692    -0.000002020790    12.000000000000
         C            3.882499854742    -1.066239972692    -0.000000020790    12.000000000000
         C           -2.696931145258    -1.413111972692    -0.000002020790    12.000000000000
         C           -3.513349145258    -0.279853972692    -0.000001020790    12.000000000000
         C           -2.905643145258     0.973824027308     0.000000979210    12.000000000000
         H            0.651946854742     2.409367027308    -0.000005020790     1.007825032230
         H            3.376193854742     1.922167027308    -0.000002020790     1.007825032230
         H           -0.630173145258    -2.098940972692    -0.000003020790     1.007825032230
         H            4.500798854742    -0.880641972692     0.883764979210     1.007825032230
         H            3.584729854742    -2.117141972692    -0.000008020790     1.007825032230
         H            4.500804854742    -0.880627972692    -0.883758020790     1.007825032230
         H           -3.131542145258    -2.409539972692    -0.000004020790     1.007825032230
         H           -4.595894145258    -0.364242972692    -0.000002020790     1.007825032230
         H           -3.500108145258     1.885266027308     0.000001979210     1.007825032230

  Basis Set: AUG-CC-PVTZ
    Blend: AUG-CC-PVTZ
  Basis Set: (AUG-CC-PVTZ AUX)
    Blend: AUG-CC-PVTZ-JKFIT
	 Reference Energy          =    -509.5471150498775614 [Eh]
	 Singles Energy            =      -0.0000000000000000 [Eh]
	 Same-Spin Energy          =      -0.5656818418166369 [Eh]
	 Opposite-Spin Energy      =      -1.7215306395770471 [Eh]
	 Correlation Energy        =      -2.2872124813936843 [Eh]
	 Total Energy              =    -511.8343275312712422 [Eh]

	 ================> DF-SCS-MP2 Energies <==================
	-----------------------------------------------------------
	 SCS Same-Spin Scale       =       0.3333333333333333 [-]
	 SCS Opposite-Spin Scale   =       1.2000000000000000 [-]
	 SCS Same-Spin Energy      =      -0.1885606139388790 [Eh]
	 SCS Opposite-Spin Energy  =      -2.0658367674924563 [Eh]
	 SCS Correlation Energy    =      -2.2543973814313354 [Eh]
	 SCS Total Energy          =    -511.8015124313088791 [Eh]
	-----------------------------------------------------------

  Dipole Moment: [D]
     X:    -1.2726      Y:    -0.3503      Z:    -0.0000     Total:     1.3199

*** Psi4 exiting successfully. Buy a developer a beer!
