                               Psi4 1.4a3.dev225

  ==> Input File <==

--------------------------------------------------------------------------
#psi4
#
memory 32 gb

molecule  {
0 1
  N        0.5504050     0.2888980     0.0000030
  N        1.4110960    -0.7583650     0.0000030
  N       -1.6001010     1.1626980     0.0000020
  C       -0.8451450     0.0599490     0.0000010
  C        2.6332390    -0.1936150     0.0000010
  C        1.1883050     1.5005680    -0.0000010
  C        2.5380190     1.2166580    -0.0000050
  C       -1.3422810    -1.2473470    -0.0000020
  C        3.8546560    -1.0548240     0.0000000
  C       -2.7247750    -1.4016960    -0.0000020
  C       -3.5411930    -0.2684380    -0.0000010
  C       -2.9334870     0.9852400     0.0000010
  H        0.6241030     2.4207830    -0.0000050
  H        3.3483500     1.9335830    -0.0000020
  H       -0.6580170    -2.0875250    -0.0000030
  H        4.4729550    -0.8692260     0.8837650
  H        3.5623383    -2.0864835    -0.0000079
  H        4.4729610    -0.8692120    -0.8837580
  H       -3.1593860    -2.3981240    -0.0000040
  H       -4.6237380    -0.3528270    -0.0000020
  H       -3.5279520     1.8966820     0.0000020
units angstrom
no_reorient  #important for SAPT in psi4, default
symmetry c1  #important for SAPT in psi4, default
}

set PROPERTIES_ORIGIN ["COM"]
properties('MP2/aug-cc-pvtz', properties = ['dipole'])
--------------------------------------------------------------------------

    Molecular point group: c1
  Charge       = 0
  Multiplicity = 1
  Basis Set: AUG-CC-PVTZ
    Blend: AUG-CC-PVTZ
  Basis Set: (AUG-CC-PVTZ AUX)
    Blend: AUG-CC-PVTZ-JKFIT

    Orbital Energies [Eh]
    ---------------------

    Doubly Occupied:

       1A    -15.644226     2A    -15.582161     3A    -15.570909
       4A    -11.329235     5A    -11.285098     6A    -11.277827
       7A    -11.266855     8A    -11.265716     9A    -11.241250
      10A    -11.240408    11A    -11.223650    12A    -11.221408
      13A     -1.382632    14A     -1.268663    15A     -1.128929
      16A     -1.093679    17A     -1.060228    18A     -1.024280
      19A     -0.964028    20A     -0.875421    21A     -0.860102
      22A     -0.795499    23A     -0.759839    24A     -0.740862
      25A     -0.680491    26A     -0.664038    27A     -0.637945
      28A     -0.635155    29A     -0.607442    30A     -0.592689
      31A     -0.574687    32A     -0.572794    33A     -0.549337
      34A     -0.535149    35A     -0.534655    36A     -0.530156
      37A     -0.458261    38A     -0.433816    39A     -0.400907
      40A     -0.381637    41A     -0.345802    42A     -0.309935

  @DF-RHF Final Energy:  -509.55162502766018

   => Energetics <=

    Nuclear Repulsion Energy =            639.8351822701263245
    One-Electron Energy =               -1959.6780126185003610
    Two-Electron Energy =                 810.2912053207138570
    Total Energy =                       -509.5516250276601795
  Basis Set: (AUG-CC-PVTZ AUX)
    Blend: AUG-CC-PVTZ-RI
    Molecular point group: c1

    Geometry (in Angstrom), charge = 0, multiplicity = 1:

       Center              X                  Y                   Z               Mass
    ------------   -----------------  -----------------  -----------------  -----------------
         N            0.578468396564     0.273596993090     0.000002993664    14.003074004430
         N            1.439159396564    -0.773666006910     0.000002993664    14.003074004430
         N           -1.572037603436     1.147396993090     0.000001993664    14.003074004430
         C           -0.817081603436     0.044647993090     0.000000993664    12.000000000000
         C            2.661302396564    -0.208916006910     0.000000993664    12.000000000000
         C            1.216368396564     1.485266993090    -0.000001006336    12.000000000000
         C            2.566082396564     1.201356993090    -0.000005006336    12.000000000000
         C           -1.314217603436    -1.262648006910    -0.000002006336    12.000000000000
         C            3.882719396564    -1.070125006910    -0.000000006336    12.000000000000
         C           -2.696711603436    -1.416997006910    -0.000002006336    12.000000000000
         C           -3.513129603436    -0.283739006910    -0.000001006336    12.000000000000
         C           -2.905423603436     0.969938993090     0.000000993664    12.000000000000
         H            0.652166396564     2.405481993090    -0.000005006336     1.007825032230
         H            3.376413396564     1.918281993090    -0.000002006336     1.007825032230
         H           -0.629953603436    -2.102826006910    -0.000003006336     1.007825032230
         H            4.501018396564    -0.884527006910     0.883764993664     1.007825032230
         H            3.590401696564    -2.101784506910    -0.000007906336     1.007825032230
         H            4.501024396564    -0.884513006910    -0.883758006336     1.007825032230
         H           -3.131322603436    -2.413425006910    -0.000004006336     1.007825032230
         H           -4.595674603436    -0.368128006910    -0.000002006336     1.007825032230
         H           -3.499888603436     1.881380993090     0.000001993664     1.007825032230

  Basis Set: AUG-CC-PVTZ
    Blend: AUG-CC-PVTZ
  Basis Set: (AUG-CC-PVTZ AUX)
    Blend: AUG-CC-PVTZ-JKFIT
	 Reference Energy          =    -509.5516250276601795 [Eh]
	 Singles Energy            =      -0.0000000000000000 [Eh]
	 Same-Spin Energy          =      -0.5647957721489295 [Eh]
	 Opposite-Spin Energy      =      -1.7204741613735395 [Eh]
	 Correlation Energy        =      -2.2852699335224691 [Eh]
	 Total Energy              =    -511.8368949611826224 [Eh]

	 ================> DF-SCS-MP2 Energies <==================
	-----------------------------------------------------------
	 SCS Same-Spin Scale       =       0.3333333333333333 [-]
	 SCS Opposite-Spin Scale   =       1.2000000000000000 [-]
	 SCS Same-Spin Energy      =      -0.1882652573829765 [Eh]
	 SCS Opposite-Spin Energy  =      -2.0645689936482472 [Eh]
	 SCS Correlation Energy    =      -2.2528342510312238 [Eh]
	 SCS Total Energy          =    -511.8044592786914109 [Eh]
	-----------------------------------------------------------

  Dipole Moment: [D]
     X:    -1.1475      Y:    -0.3605      Z:    -0.0000     Total:     1.2028

*** Psi4 exiting successfully. Buy a developer a beer!
