                               Psi4 1.4a3.dev225

  ==> Input File <==

--------------------------------------------------------------------------
#psi4
#
memory 32 gb

molecule  {
0 1
  N        0.5504050     0.2888980     0.0000030
  N        1.4110960    -0.7583650     0.0000030
  N       -1.6001010     1.1626980     0.0000020
  C       -0.8451450     0.0599490     0.0000010
  C        2.6332390    -0.1936150     0.0000010
  C        1.1883050     1.5005680    -0.0000010
  C        2.5380190     1.2166580    -0.0000050
  C       -1.3422810    -1.2473470    -0.0000020
  C        3.8546560    -1.0548240     0.0000000
  C       -2.7247750    -1.4016960    -0.0000020
  C       -3.5411930    -0.2684380    -0.0000010
  C       -2.9334870     0.9852400     0.0000010
  H        0.6241030     2.4207830    -0.0000050
  H        3.3483500     1.9335830    -0.0000020
  H       -0.6580170    -2.0875250    -0.0000030
  H        4.4729550    -0.8692260     0.8837650
  H        3.5432553    -2.1538322    -0.0000084
  H        4.4729610    -0.8692120    -0.8837580
  H       -3.1593860    -2.3981240    -0.0000040
  H       -4.6237380    -0.3528270    -0.0000020
  H       -3.5279520     1.8966820     0.0000020
units angstrom
no_reorient  #important for SAPT in psi4, default
symmetry c1  #important for SAPT in psi4, default
}

set PROPERTIES_ORIGIN ["COM"]
properties('MP2/aug-cc-pvtz', properties = ['dipole'])
--------------------------------------------------------------------------

    Molecular point group: c1
  Charge       = 0
  Multiplicity = 1
  Basis Set: AUG-CC-PVTZ
    Blend: AUG-CC-PVTZ
  Basis Set: (AUG-CC-PVTZ AUX)
    Blend: AUG-CC-PVTZ-JKFIT

    Orbital Energies [Eh]
    ---------------------

    Doubly Occupied:

       1A    -15.644403     2A    -15.582347     3A    -15.571018
       4A    -11.329329     5A    -11.285175     6A    -11.278072
       7A    -11.267375     8A    -11.265786     9A    -11.241338
      10A    -11.240498    11A    -11.231675    12A    -11.221885
      13A     -1.382814    14A     -1.268765    15A     -1.128760
      16A     -1.093762    17A     -1.060399    18A     -1.023461
      19A     -0.960156    20A     -0.875446    21A     -0.859383
      22A     -0.795645    23A     -0.758720    24A     -0.741028
      25A     -0.680452    26A     -0.664106    27A     -0.637091
      28A     -0.635348    29A     -0.604115    30A     -0.592630
      31A     -0.574825    32A     -0.573466    33A     -0.549034
      34A     -0.534871    35A     -0.534751    36A     -0.519970
      37A     -0.458378    38A     -0.433912    39A     -0.401061
      40A     -0.381779    41A     -0.345954    42A     -0.310127

  @DF-RHF Final Energy:  -509.54935146834197

   => Energetics <=

    Nuclear Repulsion Energy =            639.5519216388751147
    One-Electron Energy =               -1959.1243222634550420
    Two-Electron Energy =                 810.0230491562381303
    Total Energy =                       -509.5493514683419107
  Basis Set: (AUG-CC-PVTZ AUX)
    Blend: AUG-CC-PVTZ-RI
    Molecular point group: c1

    Geometry (in Angstrom), charge = 0, multiplicity = 1:

       Center              X                  Y                   Z               Mass
    ------------   -----------------  -----------------  -----------------  -----------------
         N            0.578589294022     0.274023670587     0.000002996831    14.003074004430
         N            1.439280294022    -0.773239329413     0.000002996831    14.003074004430
         N           -1.571916705978     1.147823670587     0.000001996831    14.003074004430
         C           -0.816960705978     0.045074670587     0.000000996831    12.000000000000
         C            2.661423294022    -0.208489329413     0.000000996831    12.000000000000
         C            1.216489294022     1.485693670587    -0.000001003169    12.000000000000
         C            2.566203294022     1.201783670587    -0.000005003169    12.000000000000
         C           -1.314096705978    -1.262221329413    -0.000002003169    12.000000000000
         C            3.882840294022    -1.069698329413    -0.000000003169    12.000000000000
         C           -2.696590705978    -1.416570329413    -0.000002003169    12.000000000000
         C           -3.513008705978    -0.283312329413    -0.000001003169    12.000000000000
         C           -2.905302705978     0.970365670587     0.000000996831    12.000000000000
         H            0.652287294022     2.405908670587    -0.000005003169     1.007825032230
         H            3.376534294022     1.918708670587    -0.000002003169     1.007825032230
         H           -0.629832705978    -2.102399329413    -0.000003003169     1.007825032230
         H            4.501139294022    -0.884100329413     0.883764996831     1.007825032230
         H            3.571439594022    -2.168706529413    -0.000008403169     1.007825032230
         H            4.501145294022    -0.884086329413    -0.883758003169     1.007825032230
         H           -3.131201705978    -2.412998329413    -0.000004003169     1.007825032230
         H           -4.595553705978    -0.367701329413    -0.000002003169     1.007825032230
         H           -3.499767705978     1.881807670587     0.000001996831     1.007825032230

  Basis Set: AUG-CC-PVTZ
    Blend: AUG-CC-PVTZ
  Basis Set: (AUG-CC-PVTZ AUX)
    Blend: AUG-CC-PVTZ-JKFIT
	 Reference Energy          =    -509.5493514683419676 [Eh]
	 Singles Energy            =      -0.0000000000000000 [Eh]
	 Same-Spin Energy          =      -0.5648436992017835 [Eh]
	 Opposite-Spin Energy      =      -1.7210031095105078 [Eh]
	 Correlation Energy        =      -2.2858468087122912 [Eh]
	 Total Energy              =    -511.8351982770542463 [Eh]

	 ================> DF-SCS-MP2 Energies <==================
	-----------------------------------------------------------
	 SCS Same-Spin Scale       =       0.3333333333333333 [-]
	 SCS Opposite-Spin Scale   =       1.2000000000000000 [-]
	 SCS Same-Spin Energy      =      -0.1882812330672611 [Eh]
	 SCS Opposite-Spin Energy  =      -2.0652037314126095 [Eh]
	 SCS Correlation Energy    =      -2.2534849644798705 [Eh]
	 SCS Total Energy          =    -511.8028364328218345 [Eh]
	-----------------------------------------------------------

  Dipole Moment: [D]
     X:    -1.1637      Y:    -0.3318      Z:    -0.0000     Total:     1.2101

*** Psi4 exiting successfully. Buy a developer a beer!
