                               Psi4 1.4a3.dev225

  ==> Input File <==

--------------------------------------------------------------------------
#psi4
#
memory 32 gb

molecule  {
0 1
  N        0.5504050     0.2888980     0.0000030
  N        1.4110960    -0.7583650     0.0000030
  N       -1.6001010     1.1626980     0.0000020
  C       -0.8451450     0.0599490     0.0000010
  C        2.6332390    -0.1936150     0.0000010
  C        1.1883050     1.5005680    -0.0000010
  C        2.5380190     1.2166580    -0.0000050
  C       -1.3422810    -1.2473470    -0.0000020
  C        3.8546560    -1.0548240     0.0000000
  C       -2.7446515    -1.4039151    -0.0000020
  C       -3.5411930    -0.2684380    -0.0000010
  C       -2.9334870     0.9852400     0.0000010
  H        0.6241030     2.4207830    -0.0000050
  H        3.3483500     1.9335830    -0.0000020
  H       -0.6580170    -2.0875250    -0.0000030
  H        4.4729550    -0.8692260     0.8837650
  H        3.5568860    -2.1057260    -0.0000080
  H        4.4729610    -0.8692120    -0.8837580
  H       -3.1593860    -2.3981240    -0.0000040
  H       -4.6237380    -0.3528270    -0.0000020
  H       -3.5279520     1.8966820     0.0000020
units angstrom
no_reorient  #important for SAPT in psi4, default
symmetry c1  #important for SAPT in psi4, default
}

set PROPERTIES_ORIGIN ["COM"]
properties('MP2/aug-cc-pvtz', properties = ['dipole'])
--------------------------------------------------------------------------

    Molecular point group: c1
  Charge       = 0
  Multiplicity = 1
  Basis Set: AUG-CC-PVTZ
    Blend: AUG-CC-PVTZ
  Basis Set: (AUG-CC-PVTZ AUX)
    Blend: AUG-CC-PVTZ-JKFIT

    Orbital Energies [Eh]
    ---------------------

    Doubly Occupied:

       1A    -15.643832     2A    -15.581820     3A    -15.571560
       4A    -11.328416     5A    -11.286128     6A    -11.277567
       7A    -11.266610     8A    -11.266375     9A    -11.242882
      10A    -11.240264    11A    -11.225714    12A    -11.221128
      13A     -1.382244    14A     -1.268577    15A     -1.128763
      16A     -1.092361    17A     -1.060260    18A     -1.023399
      19A     -0.962257    20A     -0.876672    21A     -0.859183
      22A     -0.795952    23A     -0.759182    24A     -0.740954
      25A     -0.680349    26A     -0.663717    27A     -0.638358
      28A     -0.634783    29A     -0.606190    30A     -0.592417
      31A     -0.577346    32A     -0.572652    33A     -0.547959
      34A     -0.534450    35A     -0.534272    36A     -0.526976
      37A     -0.457879    38A     -0.434663    39A     -0.401401
      40A     -0.380028    41A     -0.345462    42A     -0.309829

  @DF-RHF Final Energy:  -509.55076920904730

   => Energetics <=

    Nuclear Repulsion Energy =            639.4842326976590812
    One-Electron Energy =               -1958.9883327854586241
    Two-Electron Energy =                 809.9533308787522401
    Total Energy =                       -509.5507692090473029
  Basis Set: (AUG-CC-PVTZ AUX)
    Blend: AUG-CC-PVTZ-RI
    Molecular point group: c1

    Geometry (in Angstrom), charge = 0, multiplicity = 1:

       Center              X                  Y                   Z               Mass
    ------------   -----------------  -----------------  -----------------  -----------------
         N            0.580002300923     0.273886296430     0.000002994297    14.003074004430
         N            1.440693300923    -0.773376703570     0.000002994297    14.003074004430
         N           -1.570503699077     1.147686296430     0.000001994297    14.003074004430
         C           -0.815547699077     0.044937296430     0.000000994297    12.000000000000
         C            2.662836300923    -0.208626703570     0.000000994297    12.000000000000
         C            1.217902300923     1.485556296430    -0.000001005703    12.000000000000
         C            2.567616300923     1.201646296430    -0.000005005703    12.000000000000
         C           -1.312683699077    -1.262358703570    -0.000002005703    12.000000000000
         C            3.884253300923    -1.069835703570    -0.000000005703    12.000000000000
         C           -2.715054199077    -1.418926803570    -0.000002005703    12.000000000000
         C           -3.511595699077    -0.283449703570    -0.000001005703    12.000000000000
         C           -2.903889699077     0.970228296430     0.000000994297    12.000000000000
         H            0.653700300923     2.405771296430    -0.000005005703     1.007825032230
         H            3.377947300923     1.918571296430    -0.000002005703     1.007825032230
         H           -0.628419699077    -2.102536703570    -0.000003005703     1.007825032230
         H            4.502552300923    -0.884237703570     0.883764994297     1.007825032230
         H            3.586483300923    -2.120737703570    -0.000008005703     1.007825032230
         H            4.502558300923    -0.884223703570    -0.883758005703     1.007825032230
         H           -3.129788699077    -2.413135703570    -0.000004005703     1.007825032230
         H           -4.594140699077    -0.367838703570    -0.000002005703     1.007825032230
         H           -3.498354699077     1.881670296430     0.000001994297     1.007825032230

  Basis Set: AUG-CC-PVTZ
    Blend: AUG-CC-PVTZ
  Basis Set: (AUG-CC-PVTZ AUX)
    Blend: AUG-CC-PVTZ-JKFIT
	 Reference Energy          =    -509.5507692090473029 [Eh]
	 Singles Energy            =      -0.0000000000000000 [Eh]
	 Same-Spin Energy          =      -0.5648950626672855 [Eh]
	 Opposite-Spin Energy      =      -1.7207975187027722 [Eh]
	 Correlation Energy        =      -2.2856925813700579 [Eh]
	 Total Energy              =    -511.8364617904173883 [Eh]

	 ================> DF-SCS-MP2 Energies <==================
	-----------------------------------------------------------
	 SCS Same-Spin Scale       =       0.3333333333333333 [-]
	 SCS Opposite-Spin Scale   =       1.2000000000000000 [-]
	 SCS Same-Spin Energy      =      -0.1882983542224285 [Eh]
	 SCS Opposite-Spin Energy  =      -2.0649570224433265 [Eh]
	 SCS Correlation Energy    =      -2.2532553766657548 [Eh]
	 SCS Total Energy          =    -511.8040245857130799 [Eh]
	-----------------------------------------------------------

  Dipole Moment: [D]
     X:    -1.1762      Y:    -0.3584      Z:    -0.0000     Total:     1.2296

*** Psi4 exiting successfully. Buy a developer a beer!
