                               Psi4 1.4a3.dev225

  ==> Input File <==

--------------------------------------------------------------------------
#psi4
#
memory 32 gb

molecule  {
0 1
  N        0.5504050     0.2888980     0.0000030
  N        1.4110960    -0.7583650     0.0000030
  N       -1.6001010     1.1626980     0.0000020
  C       -0.8451450     0.0599490     0.0000010
  C        2.5878507    -0.2145888     0.0000011
  C        1.1883050     1.5005680    -0.0000010
  C        2.5380190     1.2166580    -0.0000050
  C       -1.3422810    -1.2473470    -0.0000020
  C        3.8546560    -1.0548240     0.0000000
  C       -2.7247750    -1.4016960    -0.0000020
  C       -3.5411930    -0.2684380    -0.0000010
  C       -2.9334870     0.9852400     0.0000010
  H        0.6241030     2.4207830    -0.0000050
  H        3.3483500     1.9335830    -0.0000020
  H       -0.6580170    -2.0875250    -0.0000030
  H        4.4729550    -0.8692260     0.8837650
  H        3.5568860    -2.1057260    -0.0000080
  H        4.4729610    -0.8692120    -0.8837580
  H       -3.1593860    -2.3981240    -0.0000040
  H       -4.6237380    -0.3528270    -0.0000020
  H       -3.5279520     1.8966820     0.0000020
units angstrom
no_reorient  #important for SAPT in psi4, default
symmetry c1  #important for SAPT in psi4, default
}

set PROPERTIES_ORIGIN ["COM"]
properties('MP2/aug-cc-pvtz', properties = ['dipole'])
--------------------------------------------------------------------------

    Molecular point group: c1
  Charge       = 0
  Multiplicity = 1
  Basis Set: AUG-CC-PVTZ
    Blend: AUG-CC-PVTZ
  Basis Set: (AUG-CC-PVTZ AUX)
    Blend: AUG-CC-PVTZ-JKFIT

    Orbital Energies [Eh]
    ---------------------

    Doubly Occupied:

       1A    -15.641321     2A    -15.581319     3A    -15.569968
       4A    -11.328946     5A    -11.284789     6A    -11.278505
       7A    -11.265453     8A    -11.265412     9A    -11.240595
      10A    -11.239555    11A    -11.226462    12A    -11.221833
      13A     -1.389428    14A     -1.269793    15A     -1.135867
      16A     -1.093096    17A     -1.062603    18A     -1.020695
      19A     -0.960234    20A     -0.875238    21A     -0.858158
      22A     -0.799192    23A     -0.758085    24A     -0.743229
      25A     -0.680105    26A     -0.663573    27A     -0.638478
      28A     -0.636525    29A     -0.606108    30A     -0.593117
      31A     -0.573742    32A     -0.571006    33A     -0.551643
      34A     -0.535424    35A     -0.534836    36A     -0.523570
      37A     -0.457842    38A     -0.433423    39A     -0.403187
      40A     -0.381767    41A     -0.352920    42A     -0.309063

  @DF-RHF Final Energy:  -509.55306075402615

   => Energetics <=

    Nuclear Repulsion Energy =            640.4449488192404942
    One-Electron Energy =               -1960.8838026163441555
    Two-Electron Energy =                 810.8857930430773422
    Total Energy =                       -509.5530607540262054
  Basis Set: (AUG-CC-PVTZ AUX)
    Blend: AUG-CC-PVTZ-RI
    Molecular point group: c1

    Geometry (in Angstrom), charge = 0, multiplicity = 1:

       Center              X                  Y                   Z               Mass
    ------------   -----------------  -----------------  -----------------  -----------------
         N            0.581926755780     0.275301036805     0.000002986754    14.003074004430
         N            1.442617755780    -0.771961963195     0.000002986754    14.003074004430
         N           -1.568579244220     1.149101036805     0.000001986754    14.003074004430
         C           -0.813623244220     0.046352036805     0.000000986754    12.000000000000
         C            2.619372455780    -0.228185763195     0.000001086754    12.000000000000
         C            1.219826755780     1.486971036805    -0.000001013246    12.000000000000
         C            2.569540755780     1.203061036805    -0.000005013246    12.000000000000
         C           -1.310759244220    -1.260943963195    -0.000002013246    12.000000000000
         C            3.886177755780    -1.068420963195    -0.000000013246    12.000000000000
         C           -2.693253244220    -1.415292963195    -0.000002013246    12.000000000000
         C           -3.509671244220    -0.282034963195    -0.000001013246    12.000000000000
         C           -2.901965244220     0.971643036805     0.000000986754    12.000000000000
         H            0.655624755780     2.407186036805    -0.000005013246     1.007825032230
         H            3.379871755780     1.919986036805    -0.000002013246     1.007825032230
         H           -0.626495244220    -2.101121963195    -0.000003013246     1.007825032230
         H            4.504476755780    -0.882822963195     0.883764986754     1.007825032230
         H            3.588407755780    -2.119322963195    -0.000008013246     1.007825032230
         H            4.504482755780    -0.882808963195    -0.883758013246     1.007825032230
         H           -3.127864244220    -2.411720963195    -0.000004013246     1.007825032230
         H           -4.592216244220    -0.366423963195    -0.000002013246     1.007825032230
         H           -3.496430244220     1.883085036805     0.000001986754     1.007825032230

  Basis Set: AUG-CC-PVTZ
    Blend: AUG-CC-PVTZ
  Basis Set: (AUG-CC-PVTZ AUX)
    Blend: AUG-CC-PVTZ-JKFIT
	 Reference Energy          =    -509.5530607540261485 [Eh]
	 Singles Energy            =      -0.0000000000000000 [Eh]
	 Same-Spin Energy          =      -0.5630878781066629 [Eh]
	 Opposite-Spin Energy      =      -1.7180162468332907 [Eh]
	 Correlation Energy        =      -2.2811041249399535 [Eh]
	 Total Energy              =    -511.8341648789660780 [Eh]

	 ================> DF-SCS-MP2 Energies <==================
	-----------------------------------------------------------
	 SCS Same-Spin Scale       =       0.3333333333333333 [-]
	 SCS Opposite-Spin Scale   =       1.2000000000000000 [-]
	 SCS Same-Spin Energy      =      -0.1876959593688876 [Eh]
	 SCS Opposite-Spin Energy  =      -2.0616194961999486 [Eh]
	 SCS Correlation Energy    =      -2.2493154555688362 [Eh]
	 SCS Total Energy          =    -511.8023762095949678 [Eh]
	-----------------------------------------------------------

  Dipole Moment: [D]
     X:    -1.0768      Y:    -0.3436      Z:    -0.0000     Total:     1.1303

*** Psi4 exiting successfully. Buy a developer a beer!
