                               Psi4 1.4a3.dev225

  ==> Input File <==

--------------------------------------------------------------------------
#psi4
#
memory 32 gb

molecule  {
0 1
  N        0.5504050     0.2888980     0.0000030
  N        1.4110960    -0.7583650     0.0000030
  N       -1.6001010     1.1626980     0.0000020
  C       -0.8451450     0.0599490     0.0000010
  C        2.6332390    -0.1936150     0.0000010
  C        1.1883050     1.5005680    -0.0000010
  C        2.5346507     1.2665444    -0.0000052
  C       -1.3422810    -1.2473470    -0.0000020
  C        3.8546560    -1.0548240     0.0000000
  C       -2.7247750    -1.4016960    -0.0000020
  C       -3.5411930    -0.2684380    -0.0000010
  C       -2.9334870     0.9852400     0.0000010
  H        0.6241030     2.4207830    -0.0000050
  H        3.3483500     1.9335830    -0.0000020
  H       -0.6580170    -2.0875250    -0.0000030
  H        4.4729550    -0.8692260     0.8837650
  H        3.5568860    -2.1057260    -0.0000080
  H        4.4729610    -0.8692120    -0.8837580
  H       -3.1593860    -2.3981240    -0.0000040
  H       -4.6237380    -0.3528270    -0.0000020
  H       -3.5279520     1.8966820     0.0000020
units angstrom
no_reorient  #important for SAPT in psi4, default
symmetry c1  #important for SAPT in psi4, default
}

set PROPERTIES_ORIGIN ["COM"]
properties('MP2/aug-cc-pvtz', properties = ['dipole'])
--------------------------------------------------------------------------

    Molecular point group: c1
  Charge       = 0
  Multiplicity = 1
  Basis Set: AUG-CC-PVTZ
    Blend: AUG-CC-PVTZ
  Basis Set: (AUG-CC-PVTZ AUX)
    Blend: AUG-CC-PVTZ-JKFIT

    Orbital Energies [Eh]
    ---------------------

    Doubly Occupied:

       1A    -15.641887     2A    -15.584834     3A    -15.569789
       4A    -11.328956     5A    -11.284511     6A    -11.277282
       7A    -11.272940     8A    -11.265228     9A    -11.240483
      10A    -11.239433    11A    -11.227096    12A    -11.223246
      13A     -1.381296    14A     -1.267673    15A     -1.126461
      16A     -1.092905    17A     -1.061721    18A     -1.022658
      19A     -0.963164    20A     -0.875039    21A     -0.858061
      22A     -0.795549    23A     -0.758182    24A     -0.740915
      25A     -0.680008    26A     -0.664542    27A     -0.638501
      28A     -0.634411    29A     -0.603928    30A     -0.599690
      31A     -0.575393    32A     -0.573264    33A     -0.551724
      34A     -0.534184    35A     -0.533795    36A     -0.524304
      37A     -0.457546    38A     -0.432986    39A     -0.399271
      40A     -0.380325    41A     -0.350559    42A     -0.307239

  @DF-RHF Final Energy:  -509.54989358183082

   => Energetics <=

    Nuclear Repulsion Energy =            639.0398063615243700
    One-Electron Energy =               -1958.0974390983919875
    Two-Electron Energy =                 809.5077391550368020
    Total Energy =                       -509.5498935818308155
  Basis Set: (AUG-CC-PVTZ AUX)
    Blend: AUG-CC-PVTZ-RI
    Molecular point group: c1

    Geometry (in Angstrom), charge = 0, multiplicity = 1:

       Center              X                  Y                   Z               Mass
    ------------   -----------------  -----------------  -----------------  -----------------
         N            0.578757022829     0.269955774766     0.000003009384    14.003074004430
         N            1.439448022829    -0.777307225234     0.000003009384    14.003074004430
         N           -1.571748977171     1.143755774766     0.000002009384    14.003074004430
         C           -0.816792977171     0.041006774766     0.000001009384    12.000000000000
         C            2.661591022829    -0.212557225234     0.000001009384    12.000000000000
         C            1.216657022829     1.481625774766    -0.000000990616    12.000000000000
         C            2.563002722829     1.247602174766    -0.000005190616    12.000000000000
         C           -1.313928977171    -1.266289225234    -0.000001990616    12.000000000000
         C            3.883008022829    -1.073766225234     0.000000009384    12.000000000000
         C           -2.696422977171    -1.420638225234    -0.000001990616    12.000000000000
         C           -3.512840977171    -0.287380225234    -0.000000990616    12.000000000000
         C           -2.905134977171     0.966297774766     0.000001009384    12.000000000000
         H            0.652455022829     2.401840774766    -0.000004990616     1.007825032230
         H            3.376702022829     1.914640774766    -0.000001990616     1.007825032230
         H           -0.629664977171    -2.106467225234    -0.000002990616     1.007825032230
         H            4.501307022829    -0.888168225234     0.883765009384     1.007825032230
         H            3.585238022829    -2.124668225234    -0.000007990616     1.007825032230
         H            4.501313022829    -0.888154225234    -0.883757990616     1.007825032230
         H           -3.131033977171    -2.417066225234    -0.000003990616     1.007825032230
         H           -4.595385977171    -0.371769225234    -0.000001990616     1.007825032230
         H           -3.499599977171     1.877739774766     0.000002009384     1.007825032230

  Basis Set: AUG-CC-PVTZ
    Blend: AUG-CC-PVTZ
  Basis Set: (AUG-CC-PVTZ AUX)
    Blend: AUG-CC-PVTZ-JKFIT
	 Reference Energy          =    -509.5498935818308155 [Eh]
	 Singles Energy            =      -0.0000000000000000 [Eh]
	 Same-Spin Energy          =      -0.5640612268765161 [Eh]
	 Opposite-Spin Energy      =      -1.7200496082890435 [Eh]
	 Correlation Energy        =      -2.2841108351655595 [Eh]
	 Total Energy              =    -511.8340044169963789 [Eh]

	 ================> DF-SCS-MP2 Energies <==================
	-----------------------------------------------------------
	 SCS Same-Spin Scale       =       0.3333333333333333 [-]
	 SCS Opposite-Spin Scale   =       1.2000000000000000 [-]
	 SCS Same-Spin Energy      =      -0.1880204089588387 [Eh]
	 SCS Opposite-Spin Energy  =      -2.0640595299468520 [Eh]
	 SCS Correlation Energy    =      -2.2520799389056907 [Eh]
	 SCS Total Energy          =    -511.8019735207365102 [Eh]
	-----------------------------------------------------------

  Dipole Moment: [D]
     X:    -1.0371      Y:    -0.3654      Z:    -0.0000     Total:     1.0996

*** Psi4 exiting successfully. Buy a developer a beer!
