                               Psi4 1.4a3.dev225

  ==> Input File <==

--------------------------------------------------------------------------
#psi4
#
memory 32 gb

molecule  {
0 1
  N        0.5504050     0.2888980     0.0000030
  N        1.4110960    -0.7583650     0.0000030
  N       -1.6001010     1.1626980     0.0000020
  C       -0.8451450     0.0599490     0.0000010
  C        2.6332390    -0.1936150     0.0000010
  C        1.1883050     1.5005680    -0.0000010
  C        2.5393663     1.1967034    -0.0000049
  C       -1.3422810    -1.2473470    -0.0000020
  C        3.8546560    -1.0548240     0.0000000
  C       -2.7247750    -1.4016960    -0.0000020
  C       -3.5411930    -0.2684380    -0.0000010
  C       -2.9334870     0.9852400     0.0000010
  H        0.6241030     2.4207830    -0.0000050
  H        3.3483500     1.9335830    -0.0000020
  H       -0.6580170    -2.0875250    -0.0000030
  H        4.4729550    -0.8692260     0.8837650
  H        3.5568860    -2.1057260    -0.0000080
  H        4.4729610    -0.8692120    -0.8837580
  H       -3.1593860    -2.3981240    -0.0000040
  H       -4.6237380    -0.3528270    -0.0000020
  H       -3.5279520     1.8966820     0.0000020
units angstrom
no_reorient  #important for SAPT in psi4, default
symmetry c1  #important for SAPT in psi4, default
}

set PROPERTIES_ORIGIN ["COM"]
properties('MP2/aug-cc-pvtz', properties = ['dipole'])
--------------------------------------------------------------------------

    Molecular point group: c1
  Charge       = 0
  Multiplicity = 1
  Basis Set: AUG-CC-PVTZ
    Blend: AUG-CC-PVTZ
  Basis Set: (AUG-CC-PVTZ AUX)
    Blend: AUG-CC-PVTZ-JKFIT

    Orbital Energies [Eh]
    ---------------------

    Doubly Occupied:

       1A    -15.645341     2A    -15.581094     3A    -15.571435
       4A    -11.329403     5A    -11.285383     6A    -11.278230
       7A    -11.265959     8A    -11.264383     9A    -11.241624
      10A    -11.240868    11A    -11.225494    12A    -11.220865
      13A     -1.383287    14A     -1.269135    15A     -1.130014
      16A     -1.094044    17A     -1.059626    18A     -1.024629
      19A     -0.962687    20A     -0.875710    21A     -0.860768
      22A     -0.795894    23A     -0.759707    24A     -0.740779
      25A     -0.680718    26A     -0.663955    27A     -0.637628
      28A     -0.635565    29A     -0.607433    30A     -0.590424
      31A     -0.574370    32A     -0.572861    33A     -0.547515
      34A     -0.535287    35A     -0.534933    36A     -0.528391
      37A     -0.458309    38A     -0.434197    39A     -0.401743
      40A     -0.382270    41A     -0.343913    42A     -0.311187

  @DF-RHF Final Energy:  -509.55057206349170

   => Energetics <=

    Nuclear Repulsion Energy =            640.0430680830293113
    One-Electron Energy =               -1960.0931635460569851
    Two-Electron Energy =                 810.4995233995359740
    Total Energy =                       -509.5505720634916997
  Basis Set: (AUG-CC-PVTZ AUX)
    Blend: AUG-CC-PVTZ-RI
    Molecular point group: c1

    Geometry (in Angstrom), charge = 0, multiplicity = 1:

       Center              X                  Y                   Z               Mass
    ------------   -----------------  -----------------  -----------------  -----------------
         N            0.578401306677     0.275224154563     0.000002986754    14.003074004430
         N            1.439092306677    -0.772038845437     0.000002986754    14.003074004430
         N           -1.572104693323     1.149024154563     0.000001986754    14.003074004430
         C           -0.817148693323     0.046275154563     0.000000986754    12.000000000000
         C            2.661235306677    -0.207288845437     0.000000986754    12.000000000000
         C            1.216301306677     1.486894154563    -0.000001013246    12.000000000000
         C            2.567362606677     1.183029554563    -0.000004913246    12.000000000000
         C           -1.314284693323    -1.261020845437    -0.000002013246    12.000000000000
         C            3.882652306677    -1.068497845437    -0.000000013246    12.000000000000
         C           -2.696778693323    -1.415369845437    -0.000002013246    12.000000000000
         C           -3.513196693323    -0.282111845437    -0.000001013246    12.000000000000
         C           -2.905490693323     0.971566154563     0.000000986754    12.000000000000
         H            0.652099306677     2.407109154563    -0.000005013246     1.007825032230
         H            3.376346306677     1.919909154563    -0.000002013246     1.007825032230
         H           -0.630020693323    -2.101198845437    -0.000003013246     1.007825032230
         H            4.500951306677    -0.882899845437     0.883764986754     1.007825032230
         H            3.584882306677    -2.119399845437    -0.000008013246     1.007825032230
         H            4.500957306677    -0.882885845437    -0.883758013246     1.007825032230
         H           -3.131389693323    -2.411797845437    -0.000004013246     1.007825032230
         H           -4.595741693323    -0.366500845437    -0.000002013246     1.007825032230
         H           -3.499955693323     1.883008154563     0.000001986754     1.007825032230

  Basis Set: AUG-CC-PVTZ
    Blend: AUG-CC-PVTZ
  Basis Set: (AUG-CC-PVTZ AUX)
    Blend: AUG-CC-PVTZ-JKFIT
	 Reference Energy          =    -509.5505720634916997 [Eh]
	 Singles Energy            =      -0.0000000000000000 [Eh]
	 Same-Spin Energy          =      -0.5651436223273745 [Eh]
	 Opposite-Spin Energy      =      -1.7209378357524523 [Eh]
	 Correlation Energy        =      -2.2860814580798268 [Eh]
	 Total Energy              =    -511.8366535215715203 [Eh]

	 ================> DF-SCS-MP2 Energies <==================
	-----------------------------------------------------------
	 SCS Same-Spin Scale       =       0.3333333333333333 [-]
	 SCS Opposite-Spin Scale   =       1.2000000000000000 [-]
	 SCS Same-Spin Energy      =      -0.1883812074424581 [Eh]
	 SCS Opposite-Spin Energy  =      -2.0651254029029427 [Eh]
	 SCS Correlation Energy    =      -2.2535066103454007 [Eh]
	 SCS Total Energy          =    -511.8040786738371253 [Eh]
	-----------------------------------------------------------

  Dipole Moment: [D]
     X:    -1.1997      Y:    -0.3506      Z:    -0.0000     Total:     1.2498

*** Psi4 exiting successfully. Buy a developer a beer!
