                               Psi4 1.4a3.dev225

  ==> Input File <==

--------------------------------------------------------------------------
#psi4
#
memory 32 gb

molecule  {
0 1
  N        0.5504050     0.2888980     0.0000030
  N        1.4110960    -0.7583650     0.0000030
  N       -1.6001010     1.1626980     0.0000020
  C       -0.8451450     0.0599490     0.0000010
  C        2.6332390    -0.1936150     0.0000010
  C        1.1883050     1.5005680    -0.0000010
  C        2.5366717     1.2366126    -0.0000051
  C       -1.3422810    -1.2473470    -0.0000020
  C        3.8546560    -1.0548240     0.0000000
  C       -2.7247750    -1.4016960    -0.0000020
  C       -3.5411930    -0.2684380    -0.0000010
  C       -2.9334870     0.9852400     0.0000010
  H        0.6241030     2.4207830    -0.0000050
  H        3.3483500     1.9335830    -0.0000020
  H       -0.6580170    -2.0875250    -0.0000030
  H        4.4729550    -0.8692260     0.8837650
  H        3.5568860    -2.1057260    -0.0000080
  H        4.4729610    -0.8692120    -0.8837580
  H       -3.1593860    -2.3981240    -0.0000040
  H       -4.6237380    -0.3528270    -0.0000020
  H       -3.5279520     1.8966820     0.0000020
units angstrom
no_reorient  #important for SAPT in psi4, default
symmetry c1  #important for SAPT in psi4, default
}

set PROPERTIES_ORIGIN ["COM"]
properties('MP2/aug-cc-pvtz', properties = ['dipole'])
--------------------------------------------------------------------------

    Molecular point group: c1
  Charge       = 0
  Multiplicity = 1
  Basis Set: AUG-CC-PVTZ
    Blend: AUG-CC-PVTZ
  Basis Set: (AUG-CC-PVTZ AUX)
    Blend: AUG-CC-PVTZ-JKFIT

    Orbital Energies [Eh]
    ---------------------

    Doubly Occupied:

       1A    -15.643269     2A    -15.583287     3A    -15.570462
       4A    -11.329128     5A    -11.284866     6A    -11.277605
       7A    -11.269473     8A    -11.265522     9A    -11.240942
      10A    -11.240017    11A    -11.226439    12A    -11.222212
      13A     -1.382103    14A     -1.268266    15A     -1.127827
      16A     -1.093371    17A     -1.060878    18A     -1.023427
      19A     -0.962957    20A     -0.875218    21A     -0.859081
      22A     -0.795387    23A     -0.759078    24A     -0.740961
      25A     -0.680258    26A     -0.664201    27A     -0.637844
      28A     -0.634870    29A     -0.605374    30A     -0.595316
      31A     -0.575038    32A     -0.573082    33A     -0.550435
      34A     -0.534496    35A     -0.534423    36A     -0.526511
      37A     -0.458123    38A     -0.433493    39A     -0.400227
      40A     -0.381110    41A     -0.347749    42A     -0.308843

  @DF-RHF Final Energy:  -509.55158168632340

   => Energetics <=

    Nuclear Repulsion Energy =            639.4643672236992415
    One-Electron Energy =               -1958.9455591058340360
    Two-Electron Energy =                 809.9296101958112786
    Total Energy =                       -509.5515816863234022
  Basis Set: (AUG-CC-PVTZ AUX)
    Blend: AUG-CC-PVTZ-RI
    Molecular point group: c1

    Geometry (in Angstrom), charge = 0, multiplicity = 1:

       Center              X                  Y                   Z               Mass
    ------------   -----------------  -----------------  -----------------  -----------------
         N            0.578604570894     0.272213647511     0.000003001840    14.003074004430
         N            1.439295570894    -0.775049352489     0.000003001840    14.003074004430
         N           -1.571901429106     1.146013647511     0.000002001840    14.003074004430
         C           -0.816945429106     0.043264647511     0.000001001840    12.000000000000
         C            2.661438570894    -0.210299352489     0.000001001840    12.000000000000
         C            1.216504570894     1.483883647511    -0.000000998160    12.000000000000
         C            2.564871270894     1.219928247511    -0.000005098160    12.000000000000
         C           -1.314081429106    -1.264031352489    -0.000001998160    12.000000000000
         C            3.882855570894    -1.071508352489     0.000000001840    12.000000000000
         C           -2.696575429106    -1.418380352489    -0.000001998160    12.000000000000
         C           -3.512993429106    -0.285122352489    -0.000000998160    12.000000000000
         C           -2.905287429106     0.968555647511     0.000001001840    12.000000000000
         H            0.652302570894     2.404098647511    -0.000004998160     1.007825032230
         H            3.376549570894     1.916898647511    -0.000001998160     1.007825032230
         H           -0.629817429106    -2.104209352489    -0.000002998160     1.007825032230
         H            4.501154570894    -0.885910352489     0.883765001840     1.007825032230
         H            3.585085570894    -2.122410352489    -0.000007998160     1.007825032230
         H            4.501160570894    -0.885896352489    -0.883757998160     1.007825032230
         H           -3.131186429106    -2.414808352489    -0.000003998160     1.007825032230
         H           -4.595538429106    -0.369511352489    -0.000001998160     1.007825032230
         H           -3.499752429106     1.879997647511     0.000002001840     1.007825032230

  Basis Set: AUG-CC-PVTZ
    Blend: AUG-CC-PVTZ
  Basis Set: (AUG-CC-PVTZ AUX)
    Blend: AUG-CC-PVTZ-JKFIT
	 Reference Energy          =    -509.5515816863234022 [Eh]
	 Singles Energy            =      -0.0000000000000000 [Eh]
	 Same-Spin Energy          =      -0.5644923007510119 [Eh]
	 Opposite-Spin Energy      =      -1.7203437405452571 [Eh]
	 Correlation Energy        =      -2.2848360412962689 [Eh]
	 Total Energy              =    -511.8364177276196756 [Eh]

	 ================> DF-SCS-MP2 Energies <==================
	-----------------------------------------------------------
	 SCS Same-Spin Scale       =       0.3333333333333333 [-]
	 SCS Opposite-Spin Scale   =       1.2000000000000000 [-]
	 SCS Same-Spin Energy      =      -0.1881641002503373 [Eh]
	 SCS Opposite-Spin Energy  =      -2.0644124886543085 [Eh]
	 SCS Correlation Energy    =      -2.2525765889046458 [Eh]
	 SCS Total Energy          =    -511.8041582752280760 [Eh]
	-----------------------------------------------------------

  Dipole Moment: [D]
     X:    -1.1052      Y:    -0.3568      Z:    -0.0000     Total:     1.1614

*** Psi4 exiting successfully. Buy a developer a beer!
