                               Psi4 1.4a3.dev225

  ==> Input File <==

--------------------------------------------------------------------------
#psi4
#
memory 32 gb

molecule  {
0 1
  N        0.5504050     0.2888980     0.0000030
  N        1.4110960    -0.7583650     0.0000030
  N       -1.6001010     1.1626980     0.0000020
  C       -0.8451450     0.0599490     0.0000010
  C        2.6513943    -0.1852255     0.0000010
  C        1.1883050     1.5005680    -0.0000010
  C        2.5380190     1.2166580    -0.0000050
  C       -1.3422810    -1.2473470    -0.0000020
  C        3.8546560    -1.0548240     0.0000000
  C       -2.7247750    -1.4016960    -0.0000020
  C       -3.5411930    -0.2684380    -0.0000010
  C       -2.9334870     0.9852400     0.0000010
  H        0.6241030     2.4207830    -0.0000050
  H        3.3483500     1.9335830    -0.0000020
  H       -0.6580170    -2.0875250    -0.0000030
  H        4.4729550    -0.8692260     0.8837650
  H        3.5568860    -2.1057260    -0.0000080
  H        4.4729610    -0.8692120    -0.8837580
  H       -3.1593860    -2.3981240    -0.0000040
  H       -4.6237380    -0.3528270    -0.0000020
  H       -3.5279520     1.8966820     0.0000020
units angstrom
no_reorient  #important for SAPT in psi4, default
symmetry c1  #important for SAPT in psi4, default
}

set PROPERTIES_ORIGIN ["COM"]
properties('MP2/aug-cc-pvtz', properties = ['dipole'])
--------------------------------------------------------------------------

    Molecular point group: c1
  Charge       = 0
  Multiplicity = 1
  Basis Set: AUG-CC-PVTZ
    Blend: AUG-CC-PVTZ
  Basis Set: (AUG-CC-PVTZ AUX)
    Blend: AUG-CC-PVTZ-JKFIT

    Orbital Energies [Eh]
    ---------------------

    Doubly Occupied:

       1A    -15.645496     2A    -15.582364     3A    -15.571335
       4A    -11.329391     5A    -11.285257     6A    -11.277607
       7A    -11.267571     8A    -11.265856     9A    -11.241559
      10A    -11.240794    11A    -11.225783    12A    -11.221453
      13A     -1.380367    14A     -1.268309    15A     -1.126586
      16A     -1.093952    17A     -1.059173    18A     -1.025306
      19A     -0.963807    20A     -0.875601    21A     -0.860548
      22A     -0.794316    23A     -0.759769    24A     -0.739913
      25A     -0.680627    26A     -0.664247    27A     -0.638096
      28A     -0.634072    29A     -0.606538    30A     -0.592439
      31A     -0.575161    32A     -0.573809    33A     -0.548905
      34A     -0.535991    35A     -0.534461    36A     -0.528007
      37A     -0.457352    38A     -0.433966    39A     -0.400374
      40A     -0.381753    41A     -0.343003    42A     -0.310177

  @DF-RHF Final Energy:  -509.54920196371728

   => Energetics <=

    Nuclear Repulsion Energy =            639.4854410086215921
    One-Electron Energy =               -1958.9870991985576438
    Two-Electron Energy =                 809.9524562262188283
    Total Energy =                       -509.5492019637172234
  Basis Set: (AUG-CC-PVTZ AUX)
    Blend: AUG-CC-PVTZ-RI
    Molecular point group: c1

    Geometry (in Angstrom), charge = 0, multiplicity = 1:

       Center              X                  Y                   Z               Mass
    ------------   -----------------  -----------------  -----------------  -----------------
         N            0.577133413496     0.273086048239     0.000002994297    14.003074004430
         N            1.437824413496    -0.774176951761     0.000002994297    14.003074004430
         N           -1.573372586504     1.146886048239     0.000001994297    14.003074004430
         C           -0.818416586504     0.044137048239     0.000000994297    12.000000000000
         C            2.678122713496    -0.201037451761     0.000000994297    12.000000000000
         C            1.215033413496     1.484756048239    -0.000001005703    12.000000000000
         C            2.564747413496     1.200846048239    -0.000005005703    12.000000000000
         C           -1.315552586504    -1.263158951761    -0.000002005703    12.000000000000
         C            3.881384413496    -1.070635951761    -0.000000005703    12.000000000000
         C           -2.698046586504    -1.417507951761    -0.000002005703    12.000000000000
         C           -3.514464586504    -0.284249951761    -0.000001005703    12.000000000000
         C           -2.906758586504     0.969428048239     0.000000994297    12.000000000000
         H            0.650831413496     2.404971048239    -0.000005005703     1.007825032230
         H            3.375078413496     1.917771048239    -0.000002005703     1.007825032230
         H           -0.631288586504    -2.103336951761    -0.000003005703     1.007825032230
         H            4.499683413496    -0.885037951761     0.883764994297     1.007825032230
         H            3.583614413496    -2.121537951761    -0.000008005703     1.007825032230
         H            4.499689413496    -0.885023951761    -0.883758005703     1.007825032230
         H           -3.132657586504    -2.413935951761    -0.000004005703     1.007825032230
         H           -4.597009586504    -0.368638951761    -0.000002005703     1.007825032230
         H           -3.501223586504     1.880870048239     0.000001994297     1.007825032230

  Basis Set: AUG-CC-PVTZ
    Blend: AUG-CC-PVTZ
  Basis Set: (AUG-CC-PVTZ AUX)
    Blend: AUG-CC-PVTZ-JKFIT
	 Reference Energy          =    -509.5492019637172803 [Eh]
	 Singles Energy            =      -0.0000000000000000 [Eh]
	 Same-Spin Energy          =      -0.5655310538610936 [Eh]
	 Opposite-Spin Energy      =      -1.7217465351554593 [Eh]
	 Correlation Energy        =      -2.2872775890165529 [Eh]
	 Total Energy              =    -511.8364795527338060 [Eh]

	 ================> DF-SCS-MP2 Energies <==================
	-----------------------------------------------------------
	 SCS Same-Spin Scale       =       0.3333333333333333 [-]
	 SCS Opposite-Spin Scale   =       1.2000000000000000 [-]
	 SCS Same-Spin Energy      =      -0.1885103512870312 [Eh]
	 SCS Opposite-Spin Energy  =      -2.0660958421865510 [Eh]
	 SCS Correlation Energy    =      -2.2546061934735819 [Eh]
	 SCS Total Energy          =    -511.8038081571908720 [Eh]
	-----------------------------------------------------------

  Dipole Moment: [D]
     X:    -1.1799      Y:    -0.3598      Z:    -0.0000     Total:     1.2336

*** Psi4 exiting successfully. Buy a developer a beer!
