                               Psi4 1.4a3.dev225

  ==> Input File <==

--------------------------------------------------------------------------
#psi4
#
memory 32 gb

molecule  {
0 1
  N        0.5504050     0.2888980     0.0000030
  N        1.4110960    -0.7583650     0.0000030
  N       -1.6001010     1.1626980     0.0000020
  C       -0.8451450     0.0599490     0.0000010
  C        2.6332390    -0.1936150     0.0000010
  C        1.1883050     1.5005680    -0.0000010
  C        2.5380190     1.2166580    -0.0000050
  C       -1.3422810    -1.2473470    -0.0000020
  C        3.8546560    -1.0548240     0.0000000
  C       -2.7048985    -1.3994769    -0.0000020
  C       -3.5411930    -0.2684380    -0.0000010
  C       -2.9334870     0.9852400     0.0000010
  H        0.6241030     2.4207830    -0.0000050
  H        3.3483500     1.9335830    -0.0000020
  H       -0.6580170    -2.0875250    -0.0000030
  H        4.4729550    -0.8692260     0.8837650
  H        3.5568860    -2.1057260    -0.0000080
  H        4.4729610    -0.8692120    -0.8837580
  H       -3.1593860    -2.3981240    -0.0000040
  H       -4.6237380    -0.3528270    -0.0000020
  H       -3.5279520     1.8966820     0.0000020
units angstrom
no_reorient  #important for SAPT in psi4, default
symmetry c1  #important for SAPT in psi4, default
}

set PROPERTIES_ORIGIN ["COM"]
properties('MP2/aug-cc-pvtz', properties = ['dipole'])
--------------------------------------------------------------------------

    Molecular point group: c1
  Charge       = 0
  Multiplicity = 1
  Basis Set: AUG-CC-PVTZ
    Blend: AUG-CC-PVTZ
  Basis Set: (AUG-CC-PVTZ AUX)
    Blend: AUG-CC-PVTZ-JKFIT

    Orbital Energies [Eh]
    ---------------------

    Doubly Occupied:

       1A    -15.644724     2A    -15.582603     3A    -15.570332
       4A    -11.330115     5A    -11.284110     6A    -11.278224
       7A    -11.267385     8A    -11.265022     9A    -11.240612
      10A    -11.239553    11A    -11.226241    12A    -11.221953
      13A     -1.383124    14A     -1.268833    15A     -1.128982
      16A     -1.095372    17A     -1.060288    18A     -1.024495
      19A     -0.963363    20A     -0.874419    21A     -0.860343
      22A     -0.795120    23A     -0.759821    24A     -0.740866
      25A     -0.680639    26A     -0.664561    27A     -0.636939
      28A     -0.635639    29A     -0.606671    30A     -0.593036
      31A     -0.573294    32A     -0.572262    33A     -0.550210
      34A     -0.535016    35A     -0.534920    36A     -0.528113
      37A     -0.458704    38A     -0.432959    39A     -0.400701
      40A     -0.383372    41A     -0.346232    42A     -0.310081

  @DF-RHF Final Energy:  -509.55134736999526

   => Energetics <=

    Nuclear Repulsion Energy =            640.0250836437824091
    One-Electron Energy =               -1960.0543610142347006
    Two-Electron Energy =                 810.4779300004570359
    Total Energy =                       -509.5513473699952556
  Basis Set: (AUG-CC-PVTZ AUX)
    Blend: AUG-CC-PVTZ-RI
    Molecular point group: c1

    Geometry (in Angstrom), charge = 0, multiplicity = 1:

       Center              X                  Y                   Z               Mass
    ------------   -----------------  -----------------  -----------------  -----------------
         N            0.577003576648     0.273551505645     0.000002994297    14.003074004430
         N            1.437694576648    -0.773711494355     0.000002994297    14.003074004430
         N           -1.573502423352     1.147351505645     0.000001994297    14.003074004430
         C           -0.818546423352     0.044602505645     0.000000994297    12.000000000000
         C            2.659837576648    -0.208961494355     0.000000994297    12.000000000000
         C            1.214903576648     1.485221505645    -0.000001005703    12.000000000000
         C            2.564617576648     1.201311505645    -0.000005005703    12.000000000000
         C           -1.315682423352    -1.262693494355    -0.000002005703    12.000000000000
         C            3.881254576648    -1.070170494355    -0.000000005703    12.000000000000
         C           -2.678299923352    -1.414823394355    -0.000002005703    12.000000000000
         C           -3.514594423352    -0.283784494355    -0.000001005703    12.000000000000
         C           -2.906888423352     0.969893505645     0.000000994297    12.000000000000
         H            0.650701576648     2.405436505645    -0.000005005703     1.007825032230
         H            3.374948576648     1.918236505645    -0.000002005703     1.007825032230
         H           -0.631418423352    -2.102871494355    -0.000003005703     1.007825032230
         H            4.499553576648    -0.884572494355     0.883764994297     1.007825032230
         H            3.583484576648    -2.121072494355    -0.000008005703     1.007825032230
         H            4.499559576648    -0.884558494355    -0.883758005703     1.007825032230
         H           -3.132787423352    -2.413470494355    -0.000004005703     1.007825032230
         H           -4.597139423352    -0.368173494355    -0.000002005703     1.007825032230
         H           -3.501353423352     1.881335505645     0.000001994297     1.007825032230

  Basis Set: AUG-CC-PVTZ
    Blend: AUG-CC-PVTZ
  Basis Set: (AUG-CC-PVTZ AUX)
    Blend: AUG-CC-PVTZ-JKFIT
	 Reference Energy          =    -509.5513473699952556 [Eh]
	 Singles Energy            =      -0.0000000000000000 [Eh]
	 Same-Spin Energy          =      -0.5647124696666836 [Eh]
	 Opposite-Spin Energy      =      -1.7204694897960737 [Eh]
	 Correlation Energy        =      -2.2851819594627574 [Eh]
	 Total Energy              =    -511.8365293294580169 [Eh]

	 ================> DF-SCS-MP2 Energies <==================
	-----------------------------------------------------------
	 SCS Same-Spin Scale       =       0.3333333333333333 [-]
	 SCS Opposite-Spin Scale   =       1.2000000000000000 [-]
	 SCS Same-Spin Energy      =      -0.1882374898888945 [Eh]
	 SCS Opposite-Spin Energy  =      -2.0645633877552885 [Eh]
	 SCS Correlation Energy    =      -2.2528008776441828 [Eh]
	 SCS Total Energy          =    -511.8041482476394322 [Eh]
	-----------------------------------------------------------

  Dipole Moment: [D]
     X:    -1.1268      Y:    -0.3468      Z:    -0.0000     Total:     1.1790

*** Psi4 exiting successfully. Buy a developer a beer!
