                               Psi4 1.4a3.dev225

  ==> Input File <==

--------------------------------------------------------------------------
#psi4
#
memory 32 gb

molecule  {
0 1
  N        0.5504050     0.2888980     0.0000030
  N        1.4110960    -0.7583650     0.0000030
  N       -1.6001010     1.1626980     0.0000020
  C       -0.8451450     0.0599490     0.0000010
  C        2.6332390    -0.1936150     0.0000010
  C        1.1883050     1.5005680    -0.0000010
  C        2.5380190     1.2166580    -0.0000050
  C       -1.3422810    -1.2473470    -0.0000020
  C        3.8137924    -1.0260115     0.0000000
  C       -2.7247750    -1.4016960    -0.0000020
  C       -3.5411930    -0.2684380    -0.0000010
  C       -2.9334870     0.9852400     0.0000010
  H        0.6241030     2.4207830    -0.0000050
  H        3.3483500     1.9335830    -0.0000020
  H       -0.6580170    -2.0875250    -0.0000030
  H        4.4729550    -0.8692260     0.8837650
  H        3.5568860    -2.1057260    -0.0000080
  H        4.4729610    -0.8692120    -0.8837580
  H       -3.1593860    -2.3981240    -0.0000040
  H       -4.6237380    -0.3528270    -0.0000020
  H       -3.5279520     1.8966820     0.0000020
units angstrom
no_reorient  #important for SAPT in psi4, default
symmetry c1  #important for SAPT in psi4, default
}

set PROPERTIES_ORIGIN ["COM"]
properties('MP2/aug-cc-pvtz', properties = ['dipole'])
--------------------------------------------------------------------------

    Molecular point group: c1
  Charge       = 0
  Multiplicity = 1
  Basis Set: AUG-CC-PVTZ
    Blend: AUG-CC-PVTZ
  Basis Set: (AUG-CC-PVTZ AUX)
    Blend: AUG-CC-PVTZ-JKFIT

    Orbital Energies [Eh]
    ---------------------

    Doubly Occupied:

       1A    -15.644415     2A    -15.582430     3A    -15.571029
       4A    -11.329351     5A    -11.285196     6A    -11.278154
       7A    -11.265811     8A    -11.264767     9A    -11.241359
      10A    -11.240507    11A    -11.227321    12A    -11.221676
      13A     -1.383092    14A     -1.268917    15A     -1.132026
      16A     -1.093877    17A     -1.060692    18A     -1.026925
      19A     -0.963823    20A     -0.875621    21A     -0.859213
      22A     -0.796291    23A     -0.760021    24A     -0.741320
      25A     -0.681324    26A     -0.664382    27A     -0.639158
      28A     -0.635739    29A     -0.606942    30A     -0.592816
      31A     -0.576385    32A     -0.568152    33A     -0.556729
      34A     -0.536934    35A     -0.532366    36A     -0.519459
      37A     -0.459210    38A     -0.433947    39A     -0.400162
      40A     -0.381328    41A     -0.345955    42A     -0.309541

  @DF-RHF Final Energy:  -509.54819490189135

   => Energetics <=

    Nuclear Repulsion Energy =            640.6738729450842129
    One-Electron Energy =               -1961.3354150901889170
    Two-Electron Energy =                 811.1133472432134113
    Total Energy =                       -509.5481949018912928
  Basis Set: (AUG-CC-PVTZ AUX)
    Blend: AUG-CC-PVTZ-RI
    Molecular point group: c1

    Geometry (in Angstrom), charge = 0, multiplicity = 1:

       Center              X                  Y                   Z               Mass
    ------------   -----------------  -----------------  -----------------  -----------------
         N            0.581585439962     0.271545461469     0.000002994297    14.003074004430
         N            1.442276439962    -0.775717538531     0.000002994297    14.003074004430
         N           -1.568920560038     1.145345461469     0.000001994297    14.003074004430
         C           -0.813964560038     0.042596461469     0.000000994297    12.000000000000
         C            2.664419439962    -0.210967538531     0.000000994297    12.000000000000
         C            1.219485439962     1.483215461469    -0.000001005703    12.000000000000
         C            2.569199439962     1.199305461469    -0.000005005703    12.000000000000
         C           -1.311100560038    -1.264699538531    -0.000002005703    12.000000000000
         C            3.844972839962    -1.043364038531    -0.000000005703    12.000000000000
         C           -2.693594560038    -1.419048538531    -0.000002005703    12.000000000000
         C           -3.510012560038    -0.285790538531    -0.000001005703    12.000000000000
         C           -2.902306560038     0.967887461469     0.000000994297    12.000000000000
         H            0.655283439962     2.403430461469    -0.000005005703     1.007825032230
         H            3.379530439962     1.916230461469    -0.000002005703     1.007825032230
         H           -0.626836560038    -2.104877538531    -0.000003005703     1.007825032230
         H            4.504135439962    -0.886578538531     0.883764994297     1.007825032230
         H            3.588066439962    -2.123078538531    -0.000008005703     1.007825032230
         H            4.504141439962    -0.886564538531    -0.883758005703     1.007825032230
         H           -3.128205560038    -2.415476538531    -0.000004005703     1.007825032230
         H           -4.592557560038    -0.370179538531    -0.000002005703     1.007825032230
         H           -3.496771560038     1.879329461469     0.000001994297     1.007825032230

  Basis Set: AUG-CC-PVTZ
    Blend: AUG-CC-PVTZ
  Basis Set: (AUG-CC-PVTZ AUX)
    Blend: AUG-CC-PVTZ-JKFIT
	 Reference Energy          =    -509.5481949018913497 [Eh]
	 Singles Energy            =      -0.0000000000000000 [Eh]
	 Same-Spin Energy          =      -0.5653444057996263 [Eh]
	 Opposite-Spin Energy      =      -1.7211834676751407 [Eh]
	 Correlation Energy        =      -2.2865278734747672 [Eh]
	 Total Energy              =    -511.8347227753661173 [Eh]

	 ================> DF-SCS-MP2 Energies <==================
	-----------------------------------------------------------
	 SCS Same-Spin Scale       =       0.3333333333333333 [-]
	 SCS Opposite-Spin Scale   =       1.2000000000000000 [-]
	 SCS Same-Spin Energy      =      -0.1884481352665421 [Eh]
	 SCS Opposite-Spin Energy  =      -2.0654201612101688 [Eh]
	 SCS Correlation Energy    =      -2.2538682964767109 [Eh]
	 SCS Total Energy          =    -511.8020631983680460 [Eh]
	-----------------------------------------------------------

  Dipole Moment: [D]
     X:    -1.1534      Y:    -0.3533      Z:    -0.0000     Total:     1.2063

*** Psi4 exiting successfully. Buy a developer a beer!
