                               Psi4 1.4a3.dev225

  ==> Input File <==

--------------------------------------------------------------------------
#psi4
#
memory 32 gb

molecule  {
0 1
  N        0.5504050     0.2888980     0.0000030
  N        1.4110960    -0.7583650     0.0000030
  N       -1.6001010     1.1626980     0.0000020
  C       -0.8451450     0.0599490     0.0000010
  C        2.6332390    -0.1936150     0.0000010
  C        1.1883050     1.5005680    -0.0000010
  C        2.5380190     1.2166580    -0.0000050
  C       -1.3422810    -1.2473470    -0.0000020
  C        3.8546560    -1.0548240     0.0000000
  C       -2.7247750    -1.4016960    -0.0000020
  C       -3.5411930    -0.2684380    -0.0000010
  C       -2.9334870     0.9852400     0.0000010
  H        0.6241030     2.4207830    -0.0000050
  H        3.3483500     1.9335830    -0.0000020
  H       -0.6580170    -2.0875250    -0.0000030
  H        4.4729550    -0.8692260     0.8837650
  H        3.5514337    -2.1249685    -0.0000081
  H        4.4729610    -0.8692120    -0.8837580
  H       -3.1593860    -2.3981240    -0.0000040
  H       -4.6237380    -0.3528270    -0.0000020
  H       -3.5279520     1.8966820     0.0000020
units angstrom
no_reorient  #important for SAPT in psi4, default
symmetry c1  #important for SAPT in psi4, default
}

set PROPERTIES_ORIGIN ["COM"]
properties('MP2/aug-cc-pvtz', properties = ['dipole'])
--------------------------------------------------------------------------

    Molecular point group: c1
  Charge       = 0
  Multiplicity = 1
  Basis Set: AUG-CC-PVTZ
    Blend: AUG-CC-PVTZ
  Basis Set: (AUG-CC-PVTZ AUX)
    Blend: AUG-CC-PVTZ-JKFIT

    Orbital Energies [Eh]
    ---------------------

    Doubly Occupied:

       1A    -15.644322     2A    -15.582260     3A    -15.570968
       4A    -11.329286     5A    -11.285140     6A    -11.277962
       7A    -11.267141     8A    -11.265754     9A    -11.241298
      10A    -11.240457    11A    -11.228276    12A    -11.221671
      13A     -1.382730    14A     -1.268718    15A     -1.128814
      16A     -1.093723    17A     -1.060318    18A     -1.023760
      19A     -0.961695    20A     -0.875430    21A     -0.859671
      22A     -0.795578    23A     -0.759157    24A     -0.740952
      25A     -0.680458    26A     -0.664072    27A     -0.637399
      28A     -0.635259    29A     -0.605422    30A     -0.592657
      31A     -0.574761    32A     -0.573155    33A     -0.549066
      34A     -0.534784    35A     -0.534772    36A     -0.524710
      37A     -0.458327    38A     -0.433868    39A     -0.400991
      40A     -0.381715    41A     -0.345884    42A     -0.310040

  @DF-RHF Final Energy:  -509.55100803599339

   => Energetics <=

    Nuclear Repulsion Energy =            639.6703930076869256
    One-Electron Energy =               -1959.3579590365125114
    Two-Electron Energy =                 810.1365579928321949
    Total Energy =                       -509.5510080359933909
  Basis Set: (AUG-CC-PVTZ AUX)
    Blend: AUG-CC-PVTZ-RI
    Molecular point group: c1

    Geometry (in Angstrom), charge = 0, multiplicity = 1:

       Center              X                  Y                   Z               Mass
    ------------   -----------------  -----------------  -----------------  -----------------
         N            0.578537481007     0.273840808984     0.000002994931    14.003074004430
         N            1.439228481007    -0.773422191016     0.000002994931    14.003074004430
         N           -1.571968518993     1.147640808984     0.000001994931    14.003074004430
         C           -0.817012518993     0.044891808984     0.000000994931    12.000000000000
         C            2.661371481007    -0.208672191016     0.000000994931    12.000000000000
         C            1.216437481007     1.485510808984    -0.000001005069    12.000000000000
         C            2.566151481007     1.201600808984    -0.000005005069    12.000000000000
         C           -1.314148518993    -1.262404191016    -0.000002005069    12.000000000000
         C            3.882788481007    -1.069881191016    -0.000000005069    12.000000000000
         C           -2.696642518993    -1.416753191016    -0.000002005069    12.000000000000
         C           -3.513060518993    -0.283495191016    -0.000001005069    12.000000000000
         C           -2.905354518993     0.970182808984     0.000000994931    12.000000000000
         H            0.652235481007     2.405725808984    -0.000005005069     1.007825032230
         H            3.376482481007     1.918525808984    -0.000002005069     1.007825032230
         H           -0.629884518993    -2.102582191016    -0.000003005069     1.007825032230
         H            4.501087481007    -0.884283191016     0.883764994931     1.007825032230
         H            3.579566181007    -2.140025691016    -0.000008105069     1.007825032230
         H            4.501093481007    -0.884269191016    -0.883758005069     1.007825032230
         H           -3.131253518993    -2.413181191016    -0.000004005069     1.007825032230
         H           -4.595605518993    -0.367884191016    -0.000002005069     1.007825032230
         H           -3.499819518993     1.881624808984     0.000001994931     1.007825032230

  Basis Set: AUG-CC-PVTZ
    Blend: AUG-CC-PVTZ
  Basis Set: (AUG-CC-PVTZ AUX)
    Blend: AUG-CC-PVTZ-JKFIT
	 Reference Energy          =    -509.5510080359933909 [Eh]
	 Singles Energy            =      -0.0000000000000000 [Eh]
	 Same-Spin Energy          =      -0.5648212075477953 [Eh]
	 Opposite-Spin Energy      =      -1.7207612227233464 [Eh]
	 Correlation Energy        =      -2.2855824302711416 [Eh]
	 Total Energy              =    -511.8365904662645107 [Eh]

	 ================> DF-SCS-MP2 Energies <==================
	-----------------------------------------------------------
	 SCS Same-Spin Scale       =       0.3333333333333333 [-]
	 SCS Opposite-Spin Scale   =       1.2000000000000000 [-]
	 SCS Same-Spin Energy      =      -0.1882737358492651 [Eh]
	 SCS Opposite-Spin Energy  =      -2.0649134672680156 [Eh]
	 SCS Correlation Energy    =      -2.2531872031172808 [Eh]
	 SCS Total Energy          =    -511.8041952391106975 [Eh]
	-----------------------------------------------------------

  Dipole Moment: [D]
     X:    -1.1566      Y:    -0.3448      Z:    -0.0000     Total:     1.2069

*** Psi4 exiting successfully. Buy a developer a beer!
