                               Psi4 1.4a3.dev225

  ==> Input File <==

--------------------------------------------------------------------------
#psi4
#
memory 32 gb

molecule  {
0 1
  N        0.5504050     0.2888980     0.0000030
  N        1.4110960    -0.7583650     0.0000030
  N       -1.6001010     1.1626980     0.0000020
  C       -0.8451450     0.0599490     0.0000010
  C        2.6332390    -0.1936150     0.0000010
  C        1.1883050     1.5005680    -0.0000010
  C        2.5380190     1.2166580    -0.0000050
  C       -1.3422810    -1.2473470    -0.0000020
  C        3.8546560    -1.0548240     0.0000000
  C       -2.6750837    -1.3961482    -0.0000020
  C       -3.5411930    -0.2684380    -0.0000010
  C       -2.9334870     0.9852400     0.0000010
  H        0.6241030     2.4207830    -0.0000050
  H        3.3483500     1.9335830    -0.0000020
  H       -0.6580170    -2.0875250    -0.0000030
  H        4.4729550    -0.8692260     0.8837650
  H        3.5568860    -2.1057260    -0.0000080
  H        4.4729610    -0.8692120    -0.8837580
  H       -3.1593860    -2.3981240    -0.0000040
  H       -4.6237380    -0.3528270    -0.0000020
  H       -3.5279520     1.8966820     0.0000020
units angstrom
no_reorient  #important for SAPT in psi4, default
symmetry c1  #important for SAPT in psi4, default
}

set PROPERTIES_ORIGIN ["COM"]
properties('MP2/aug-cc-pvtz', properties = ['dipole'])
--------------------------------------------------------------------------

    Molecular point group: c1
  Charge       = 0
  Multiplicity = 1
  Basis Set: AUG-CC-PVTZ
    Blend: AUG-CC-PVTZ
  Basis Set: (AUG-CC-PVTZ AUX)
    Blend: AUG-CC-PVTZ-JKFIT

    Orbital Energies [Eh]
    ---------------------

    Doubly Occupied:

       1A    -15.645423     2A    -15.583204     3A    -15.569458
       4A    -11.331418     5A    -11.282612     6A    -11.278732
       7A    -11.267984     8A    -11.263806     9A    -11.240899
      10A    -11.236773    11A    -11.226648    12A    -11.222589
      13A     -1.383807    14A     -1.269114    15A     -1.129187
      16A     -1.098525    17A     -1.060357    18A     -1.024999
      19A     -0.964130    20A     -0.873600    21A     -0.860365
      22A     -0.794493    23A     -0.760385    24A     -0.740830
      25A     -0.680969    26A     -0.665549    27A     -0.636310
      28A     -0.635900    29A     -0.607214    30A     -0.593697
      31A     -0.573811    32A     -0.569488    33A     -0.551083
      34A     -0.535561    35A     -0.533772    36A     -0.528743
      37A     -0.459310    38A     -0.431509    39A     -0.400891
      40A     -0.385852    41A     -0.346837    42A     -0.310113

  @DF-RHF Final Energy:  -509.54896210264360

   => Energetics <=

    Nuclear Repulsion Energy =            640.4467922150118966
    One-Electron Energy =               -1960.8796155896845903
    Two-Electron Energy =                 810.8838612720292076
    Total Energy =                       -509.5489621026435998
  Basis Set: (AUG-CC-PVTZ AUX)
    Blend: AUG-CC-PVTZ-RI
    Molecular point group: c1

    Geometry (in Angstrom), charge = 0, multiplicity = 1:

       Center              X                  Y                   Z               Mass
    ------------   -----------------  -----------------  -----------------  -----------------
         N            0.574754529670     0.273300408784     0.000002994297    14.003074004430
         N            1.435445529670    -0.773962591216     0.000002994297    14.003074004430
         N           -1.575751470330     1.147100408784     0.000001994297    14.003074004430
         C           -0.820795470330     0.044351408784     0.000000994297    12.000000000000
         C            2.657588529670    -0.209212591216     0.000000994297    12.000000000000
         C            1.212654529670     1.484970408784    -0.000001005703    12.000000000000
         C            2.562368529670     1.201060408784    -0.000005005703    12.000000000000
         C           -1.317931470330    -1.262944591216    -0.000002005703    12.000000000000
         C            3.879005529670    -1.070421591216    -0.000000005703    12.000000000000
         C           -2.650734170330    -1.411745791216    -0.000002005703    12.000000000000
         C           -3.516843470330    -0.284035591216    -0.000001005703    12.000000000000
         C           -2.909137470330     0.969642408784     0.000000994297    12.000000000000
         H            0.648452529670     2.405185408784    -0.000005005703     1.007825032230
         H            3.372699529670     1.917985408784    -0.000002005703     1.007825032230
         H           -0.633667470330    -2.103122591216    -0.000003005703     1.007825032230
         H            4.497304529670    -0.884823591216     0.883764994297     1.007825032230
         H            3.581235529670    -2.121323591216    -0.000008005703     1.007825032230
         H            4.497310529670    -0.884809591216    -0.883758005703     1.007825032230
         H           -3.135036470330    -2.413721591216    -0.000004005703     1.007825032230
         H           -4.599388470330    -0.368424591216    -0.000002005703     1.007825032230
         H           -3.503602470330     1.881084408784     0.000001994297     1.007825032230

  Basis Set: AUG-CC-PVTZ
    Blend: AUG-CC-PVTZ
  Basis Set: (AUG-CC-PVTZ AUX)
    Blend: AUG-CC-PVTZ-JKFIT
	 Reference Energy          =    -509.5489621026435998 [Eh]
	 Singles Energy            =      -0.0000000000000000 [Eh]
	 Same-Spin Energy          =      -0.5645557735598062 [Eh]
	 Opposite-Spin Energy      =      -1.7203351512941416 [Eh]
	 Correlation Energy        =      -2.2848909248539480 [Eh]
	 Total Energy              =    -511.8338530274975255 [Eh]

	 ================> DF-SCS-MP2 Energies <==================
	-----------------------------------------------------------
	 SCS Same-Spin Scale       =       0.3333333333333333 [-]
	 SCS Opposite-Spin Scale   =       1.2000000000000000 [-]
	 SCS Same-Spin Energy      =      -0.1881852578532687 [Eh]
	 SCS Opposite-Spin Energy  =      -2.0644021815529698 [Eh]
	 SCS Correlation Energy    =      -2.2525874394062386 [Eh]
	 SCS Total Energy          =    -511.8015495420498269 [Eh]
	-----------------------------------------------------------

  Dipole Moment: [D]
     X:    -1.0870      Y:    -0.3366      Z:    -0.0000     Total:     1.1379

*** Psi4 exiting successfully. Buy a developer a beer!
