                               Psi4 1.4a3.dev225

  ==> Input File <==

--------------------------------------------------------------------------
#psi4
#
memory 32 gb

molecule  {
0 1
  N        0.5504050     0.2888980     0.0000030
  N        1.4110960    -0.7583650     0.0000030
  N       -1.6001010     1.1626980     0.0000020
  C       -0.8451450     0.0599490     0.0000010
  C        2.6332390    -0.1936150     0.0000010
  C        1.1883050     1.5005680    -0.0000010
  C        2.5380190     1.2166580    -0.0000050
  C       -1.3422810    -1.2473470    -0.0000020
  C        3.8710015    -1.0663490    -0.0000000
  C       -2.7247750    -1.4016960    -0.0000020
  C       -3.5411930    -0.2684380    -0.0000010
  C       -2.9334870     0.9852400     0.0000010
  H        0.6241030     2.4207830    -0.0000050
  H        3.3483500     1.9335830    -0.0000020
  H       -0.6580170    -2.0875250    -0.0000030
  H        4.4729550    -0.8692260     0.8837650
  H        3.5568860    -2.1057260    -0.0000080
  H        4.4729610    -0.8692120    -0.8837580
  H       -3.1593860    -2.3981240    -0.0000040
  H       -4.6237380    -0.3528270    -0.0000020
  H       -3.5279520     1.8966820     0.0000020
units angstrom
no_reorient  #important for SAPT in psi4, default
symmetry c1  #important for SAPT in psi4, default
}

set PROPERTIES_ORIGIN ["COM"]
properties('MP2/aug-cc-pvtz', properties = ['dipole'])
--------------------------------------------------------------------------

    Molecular point group: c1
  Charge       = 0
  Multiplicity = 1
  Basis Set: AUG-CC-PVTZ
    Blend: AUG-CC-PVTZ
  Basis Set: (AUG-CC-PVTZ AUX)
    Blend: AUG-CC-PVTZ-JKFIT

    Orbital Energies [Eh]
    ---------------------

    Doubly Occupied:

       1A    -15.644211     2A    -15.582119     3A    -15.570899
       4A    -11.329218     5A    -11.285085     6A    -11.277784
       7A    -11.267751     8A    -11.265701     9A    -11.241236
      10A    -11.240399    11A    -11.225633    12A    -11.221479
      13A     -1.382519    14A     -1.268602    15A     -1.127775
      16A     -1.093629    17A     -1.060106    18A     -1.022964
      19A     -0.962532    20A     -0.875346    21A     -0.860115
      22A     -0.795251    23A     -0.759232    24A     -0.740741
      25A     -0.680171    26A     -0.663931    27A     -0.637135
      28A     -0.635018    29A     -0.606320    30A     -0.592627
      31A     -0.575211    32A     -0.574307    33A     -0.547744
      34A     -0.535445    35A     -0.533101    36A     -0.529458
      37A     -0.457807    38A     -0.433796    39A     -0.401206
      40A     -0.381772    41A     -0.345776    42A     -0.310115

  @DF-RHF Final Energy:  -509.55145592366932

   => Energetics <=

    Nuclear Repulsion Energy =            639.3923216839688166
    One-Electron Energy =               -1958.8050229848399795
    Two-Electron Energy =                 809.8612453772017261
    Total Energy =                       -509.5514559236693231
  Basis Set: (AUG-CC-PVTZ AUX)
    Blend: AUG-CC-PVTZ-RI
    Molecular point group: c1

    Geometry (in Angstrom), charge = 0, multiplicity = 1:

       Center              X                  Y                   Z               Mass
    ------------   -----------------  -----------------  -----------------  -----------------
         N            0.577269933789     0.274588276865     0.000002994297    14.003074004430
         N            1.437960933789    -0.772674723135     0.000002994297    14.003074004430
         N           -1.573236066211     1.148388276865     0.000001994297    14.003074004430
         C           -0.818280066211     0.045639276865     0.000000994297    12.000000000000
         C            2.660103933789    -0.207924723135     0.000000994297    12.000000000000
         C            1.215169933789     1.486258276865    -0.000001005703    12.000000000000
         C            2.564883933789     1.202348276865    -0.000005005703    12.000000000000
         C           -1.315416066211    -1.261656723135    -0.000002005703    12.000000000000
         C            3.897866433789    -1.080658723135    -0.000000005703    12.000000000000
         C           -2.697910066211    -1.416005723135    -0.000002005703    12.000000000000
         C           -3.514328066211    -0.282747723135    -0.000001005703    12.000000000000
         C           -2.906622066211     0.970930276865     0.000000994297    12.000000000000
         H            0.650967933789     2.406473276865    -0.000005005703     1.007825032230
         H            3.375214933789     1.919273276865    -0.000002005703     1.007825032230
         H           -0.631152066211    -2.101834723135    -0.000003005703     1.007825032230
         H            4.499819933789    -0.883535723135     0.883764994297     1.007825032230
         H            3.583750933789    -2.120035723135    -0.000008005703     1.007825032230
         H            4.499825933789    -0.883521723135    -0.883758005703     1.007825032230
         H           -3.132521066211    -2.412433723135    -0.000004005703     1.007825032230
         H           -4.596873066211    -0.367136723135    -0.000002005703     1.007825032230
         H           -3.501087066211     1.882372276865     0.000001994297     1.007825032230

  Basis Set: AUG-CC-PVTZ
    Blend: AUG-CC-PVTZ
  Basis Set: (AUG-CC-PVTZ AUX)
    Blend: AUG-CC-PVTZ-JKFIT
	 Reference Energy          =    -509.5514559236693231 [Eh]
	 Singles Energy            =      -0.0000000000000000 [Eh]
	 Same-Spin Energy          =      -0.5646531957712880 [Eh]
	 Opposite-Spin Energy      =      -1.7204860158942095 [Eh]
	 Correlation Energy        =      -2.2851392116654976 [Eh]
	 Total Energy              =    -511.8365951353348464 [Eh]

	 ================> DF-SCS-MP2 Energies <==================
	-----------------------------------------------------------
	 SCS Same-Spin Scale       =       0.3333333333333333 [-]
	 SCS Opposite-Spin Scale   =       1.2000000000000000 [-]
	 SCS Same-Spin Energy      =      -0.1882177319237627 [Eh]
	 SCS Opposite-Spin Energy  =      -2.0645832190730511 [Eh]
	 SCS Correlation Energy    =      -2.2528009509968139 [Eh]
	 SCS Total Energy          =    -511.8042568746661232 [Eh]
	-----------------------------------------------------------

  Dipole Moment: [D]
     X:    -1.1522      Y:    -0.3524      Z:    -0.0000     Total:     1.2049

*** Psi4 exiting successfully. Buy a developer a beer!
