                               Psi4 1.4a3.dev225

  ==> Input File <==

--------------------------------------------------------------------------
#psi4
#
memory 32 gb

molecule  {
0 1
  N        0.5504050     0.2888980     0.0000030
  N        1.4110960    -0.7583650     0.0000030
  N       -1.6001010     1.1626980     0.0000020
  C       -0.8451450     0.0599490     0.0000010
  C        2.6332390    -0.1936150     0.0000010
  C        1.1883050     1.5005680    -0.0000010
  C        2.5380190     1.2166580    -0.0000050
  C       -1.3422810    -1.2473470    -0.0000020
  C        3.8955196    -1.0836365    -0.0000000
  C       -2.7247750    -1.4016960    -0.0000020
  C       -3.5411930    -0.2684380    -0.0000010
  C       -2.9334870     0.9852400     0.0000010
  H        0.6241030     2.4207830    -0.0000050
  H        3.3483500     1.9335830    -0.0000020
  H       -0.6580170    -2.0875250    -0.0000030
  H        4.4729550    -0.8692260     0.8837650
  H        3.5568860    -2.1057260    -0.0000080
  H        4.4729610    -0.8692120    -0.8837580
  H       -3.1593860    -2.3981240    -0.0000040
  H       -4.6237380    -0.3528270    -0.0000020
  H       -3.5279520     1.8966820     0.0000020
units angstrom
no_reorient  #important for SAPT in psi4, default
symmetry c1  #important for SAPT in psi4, default
}

set PROPERTIES_ORIGIN ["COM"]
properties('MP2/aug-cc-pvtz', properties = ['dipole'])
--------------------------------------------------------------------------

    Molecular point group: c1
  Charge       = 0
  Multiplicity = 1
  Basis Set: AUG-CC-PVTZ
    Blend: AUG-CC-PVTZ
  Basis Set: (AUG-CC-PVTZ AUX)
    Blend: AUG-CC-PVTZ-JKFIT

    Orbital Energies [Eh]
    ---------------------

    Doubly Occupied:

       1A    -15.644114     2A    -15.581981     3A    -15.570836
       4A    -11.329152     5A    -11.285031     6A    -11.277615
       7A    -11.268749     8A    -11.265649     9A    -11.241177
      10A    -11.240347    11A    -11.225348    12A    -11.221387
      13A     -1.382281    14A     -1.268473    15A     -1.126296
      16A     -1.093523    17A     -1.059860    18A     -1.021537
      19A     -0.962216    20A     -0.875229    21A     -0.860433
      22A     -0.794839    23A     -0.758833    24A     -0.740495
      25A     -0.679758    26A     -0.663757    27A     -0.636444
      28A     -0.634765    29A     -0.606379    30A     -0.592569
      31A     -0.578835    32A     -0.573829    33A     -0.548216
      34A     -0.536345    35A     -0.533587    36A     -0.525858
      37A     -0.456923    38A     -0.433723    39A     -0.401536
      40A     -0.381882    41A     -0.345658    42A     -0.310264

  @DF-RHF Final Energy:  -509.54991828554233

   => Energetics <=

    Nuclear Repulsion Energy =            638.8621274195329534
    One-Electron Energy =               -1957.7526367341829427
    Two-Electron Energy =                 809.3405910291075998
    Total Energy =                       -509.5499182855423896
  Basis Set: (AUG-CC-PVTZ AUX)
    Blend: AUG-CC-PVTZ-RI
    Molecular point group: c1

    Geometry (in Angstrom), charge = 0, multiplicity = 1:

       Center              X                  Y                   Z               Mass
    ------------   -----------------  -----------------  -----------------  -----------------
         N            0.575420437609     0.275892340606     0.000002994297    14.003074004430
         N            1.436111437609    -0.771370659394     0.000002994297    14.003074004430
         N           -1.575085562391     1.149692340606     0.000001994297    14.003074004430
         C           -0.820129562391     0.046943340606     0.000000994297    12.000000000000
         C            2.658254437609    -0.206620659394     0.000000994297    12.000000000000
         C            1.213320437609     1.487562340606    -0.000001005703    12.000000000000
         C            2.563034437609     1.203652340606    -0.000005005703    12.000000000000
         C           -1.317265562391    -1.260352659394    -0.000002005703    12.000000000000
         C            3.920535037609    -1.096642159394    -0.000000005703    12.000000000000
         C           -2.699759562391    -1.414701659394    -0.000002005703    12.000000000000
         C           -3.516177562391    -0.281443659394    -0.000001005703    12.000000000000
         C           -2.908471562391     0.972234340606     0.000000994297    12.000000000000
         H            0.649118437609     2.407777340606    -0.000005005703     1.007825032230
         H            3.373365437609     1.920577340606    -0.000002005703     1.007825032230
         H           -0.633001562391    -2.100530659394    -0.000003005703     1.007825032230
         H            4.497970437609    -0.882231659394     0.883764994297     1.007825032230
         H            3.581901437609    -2.118731659394    -0.000008005703     1.007825032230
         H            4.497976437609    -0.882217659394    -0.883758005703     1.007825032230
         H           -3.134370562391    -2.411129659394    -0.000004005703     1.007825032230
         H           -4.598722562391    -0.365832659394    -0.000002005703     1.007825032230
         H           -3.502936562391     1.883676340606     0.000001994297     1.007825032230

  Basis Set: AUG-CC-PVTZ
    Blend: AUG-CC-PVTZ
  Basis Set: (AUG-CC-PVTZ AUX)
    Blend: AUG-CC-PVTZ-JKFIT
	 Reference Energy          =    -509.5499182855423328 [Eh]
	 Singles Energy            =      -0.0000000000000000 [Eh]
	 Same-Spin Energy          =      -0.5644815628409406 [Eh]
	 Opposite-Spin Energy      =      -1.7203995910846701 [Eh]
	 Correlation Energy        =      -2.2848811539256109 [Eh]
	 Total Energy              =    -511.8347994394679290 [Eh]

	 ================> DF-SCS-MP2 Energies <==================
	-----------------------------------------------------------
	 SCS Same-Spin Scale       =       0.3333333333333333 [-]
	 SCS Opposite-Spin Scale   =       1.2000000000000000 [-]
	 SCS Same-Spin Energy      =      -0.1881605209469802 [Eh]
	 SCS Opposite-Spin Energy  =      -2.0644795093016040 [Eh]
	 SCS Correlation Energy    =      -2.2526400302485841 [Eh]
	 SCS Total Energy          =    -511.8025583157909182 [Eh]
	-----------------------------------------------------------

  Dipole Moment: [D]
     X:    -1.1533      Y:    -0.3513      Z:    -0.0000     Total:     1.2057

*** Psi4 exiting successfully. Buy a developer a beer!
