                               Psi4 1.4a3.dev225

  ==> Input File <==

--------------------------------------------------------------------------
#psi4
#
memory 32 gb

molecule  {
0 1
  N        0.5504050     0.2888980     0.0000030
  N        1.4110960    -0.7583650     0.0000030
  N       -1.6001010     1.1626980     0.0000020
  C       -0.8451450     0.0599490     0.0000010
  C        2.6332390    -0.1936150     0.0000010
  C        1.1883050     1.5005680    -0.0000010
  C        2.5380190     1.2166580    -0.0000050
  C       -1.3422810    -1.2473470    -0.0000020
  C        3.8546560    -1.0548240     0.0000000
  C       -2.7247750    -1.4016960    -0.0000020
  C       -3.5411930    -0.2684380    -0.0000010
  C       -2.9334870     0.9852400     0.0000010
  H        0.6241030     2.4207830    -0.0000050
  H        3.3483500     1.9335830    -0.0000020
  H       -0.6580170    -2.0875250    -0.0000030
  H        4.4729550    -0.8692260     0.8837650
  H        3.5705167    -2.0576198    -0.0000076
  H        4.4729610    -0.8692120    -0.8837580
  H       -3.1593860    -2.3981240    -0.0000040
  H       -4.6237380    -0.3528270    -0.0000020
  H       -3.5279520     1.8966820     0.0000020
units angstrom
no_reorient  #important for SAPT in psi4, default
symmetry c1  #important for SAPT in psi4, default
}

set PROPERTIES_ORIGIN ["COM"]
properties('MP2/aug-cc-pvtz', properties = ['dipole'])
--------------------------------------------------------------------------

    Molecular point group: c1
  Charge       = 0
  Multiplicity = 1
  Basis Set: AUG-CC-PVTZ
    Blend: AUG-CC-PVTZ
  Basis Set: (AUG-CC-PVTZ AUX)
    Blend: AUG-CC-PVTZ-JKFIT

    Orbital Energies [Eh]
    ---------------------

    Doubly Occupied:

       1A    -15.644165     2A    -15.582100     3A    -15.570869
       4A    -11.329201     5A    -11.285070     6A    -11.277736
       7A    -11.266662     8A    -11.265690     9A    -11.241217
      10A    -11.240375    11A    -11.221228    12A    -11.220122
      13A     -1.382568    14A     -1.268627    15A     -1.129051
      16A     -1.093650    17A     -1.060173    18A     -1.024779
      19A     -0.965995    20A     -0.875423    21A     -0.860461
      22A     -0.795448    23A     -0.760428    24A     -0.740802
      25A     -0.680535    26A     -0.664022    27A     -0.638482
      28A     -0.635088    29A     -0.609156    30A     -0.592710
      31A     -0.574641    32A     -0.572562    33A     -0.549808
      34A     -0.536411    35A     -0.534580    36A     -0.532689
      37A     -0.458213    38A     -0.433781    39A     -0.400852
      40A     -0.381584    41A     -0.345749    42A     -0.309865

  @DF-RHF Final Energy:  -509.55064828629276

   => Energetics <=

    Nuclear Repulsion Energy =            639.9643562361144404
    One-Electron Energy =               -1959.9248680488612990
    Two-Electron Energy =                 810.4098635264541599
    Total Energy =                       -509.5506482862928124
  Basis Set: (AUG-CC-PVTZ AUX)
    Blend: AUG-CC-PVTZ-RI
    Molecular point group: c1

    Geometry (in Angstrom), charge = 0, multiplicity = 1:

       Center              X                  Y                   Z               Mass
    ------------   -----------------  -----------------  -----------------  -----------------
         N            0.578416583548     0.273414131487     0.000002991763    14.003074004430
         N            1.439107583548    -0.773848868513     0.000002991763    14.003074004430
         N           -1.572089416452     1.147214131487     0.000001991763    14.003074004430
         C           -0.817133416452     0.044465131487     0.000000991763    12.000000000000
         C            2.661250583548    -0.209098868513     0.000000991763    12.000000000000
         C            1.216316583548     1.485084131487    -0.000001008237    12.000000000000
         C            2.566030583548     1.201174131487    -0.000005008237    12.000000000000
         C           -1.314269416452    -1.262830868513    -0.000002008237    12.000000000000
         C            3.882667583548    -1.070307868513    -0.000000008237    12.000000000000
         C           -2.696763416452    -1.417179868513    -0.000002008237    12.000000000000
         C           -3.513181416452    -0.283921868513    -0.000001008237    12.000000000000
         C           -2.905475416452     0.969756131487     0.000000991763    12.000000000000
         H            0.652114583548     2.405299131487    -0.000005008237     1.007825032230
         H            3.376361583548     1.918099131487    -0.000002008237     1.007825032230
         H           -0.630005416452    -2.103008868513    -0.000003008237     1.007825032230
         H            4.500966583548    -0.884709868513     0.883764991763     1.007825032230
         H            3.598528283548    -2.073103668513    -0.000007608237     1.007825032230
         H            4.500972583548    -0.884695868513    -0.883758008237     1.007825032230
         H           -3.131374416452    -2.413607868513    -0.000004008237     1.007825032230
         H           -4.595726416452    -0.368310868513    -0.000002008237     1.007825032230
         H           -3.499940416452     1.881198131487     0.000001991763     1.007825032230

  Basis Set: AUG-CC-PVTZ
    Blend: AUG-CC-PVTZ
  Basis Set: (AUG-CC-PVTZ AUX)
    Blend: AUG-CC-PVTZ-JKFIT
	 Reference Energy          =    -509.5506482862927555 [Eh]
	 Singles Energy            =      -0.0000000000000000 [Eh]
	 Same-Spin Energy          =      -0.5647814015052772 [Eh]
	 Opposite-Spin Energy      =      -1.7202893695607770 [Eh]
	 Correlation Energy        =      -2.2850707710660543 [Eh]
	 Total Energy              =    -511.8357190573588014 [Eh]

	 ================> DF-SCS-MP2 Energies <==================
	-----------------------------------------------------------
	 SCS Same-Spin Scale       =       0.3333333333333333 [-]
	 SCS Opposite-Spin Scale   =       1.2000000000000000 [-]
	 SCS Same-Spin Energy      =      -0.1882604671684257 [Eh]
	 SCS Opposite-Spin Energy  =      -2.0643472434729322 [Eh]
	 SCS Correlation Energy    =      -2.2526077106413580 [Eh]
	 SCS Total Energy          =    -511.8032559969341264 [Eh]
	-----------------------------------------------------------

  Dipole Moment: [D]
     X:    -1.1410      Y:    -0.3709      Z:    -0.0000     Total:     1.1998

*** Psi4 exiting successfully. Buy a developer a beer!
