                               Psi4 1.4a3.dev225

  ==> Input File <==

--------------------------------------------------------------------------
#psi4
#
memory 32 gb

molecule  {
0 1
  N        0.5504050     0.2888980     0.0000030
  N        1.4110960    -0.7583650     0.0000030
  N       -1.6001010     1.1626980     0.0000020
  C       -0.8451450     0.0599490     0.0000010
  C        2.6786273    -0.1726412     0.0000009
  C        1.1883050     1.5005680    -0.0000010
  C        2.5380190     1.2166580    -0.0000050
  C       -1.3422810    -1.2473470    -0.0000020
  C        3.8546560    -1.0548240     0.0000000
  C       -2.7247750    -1.4016960    -0.0000020
  C       -3.5411930    -0.2684380    -0.0000010
  C       -2.9334870     0.9852400     0.0000010
  H        0.6241030     2.4207830    -0.0000050
  H        3.3483500     1.9335830    -0.0000020
  H       -0.6580170    -2.0875250    -0.0000030
  H        4.4729550    -0.8692260     0.8837650
  H        3.5568860    -2.1057260    -0.0000080
  H        4.4729610    -0.8692120    -0.8837580
  H       -3.1593860    -2.3981240    -0.0000040
  H       -4.6237380    -0.3528270    -0.0000020
  H       -3.5279520     1.8966820     0.0000020
units angstrom
no_reorient  #important for SAPT in psi4, default
symmetry c1  #important for SAPT in psi4, default
}

set PROPERTIES_ORIGIN ["COM"]
properties('MP2/aug-cc-pvtz', properties = ['dipole'])
--------------------------------------------------------------------------

    Molecular point group: c1
  Charge       = 0
  Multiplicity = 1
  Basis Set: AUG-CC-PVTZ
    Blend: AUG-CC-PVTZ
  Basis Set: (AUG-CC-PVTZ AUX)
    Blend: AUG-CC-PVTZ-JKFIT

    Orbital Energies [Eh]
    ---------------------

    Doubly Occupied:

       1A    -15.647358     2A    -15.582395     3A    -15.571934
       4A    -11.329591     5A    -11.285469     6A    -11.277131
       7A    -11.268393     8A    -11.266044     9A    -11.241997
      10A    -11.241344    11A    -11.225518    12A    -11.221373
      13A     -1.377254    14A     -1.267796    15A     -1.123718
      16A     -1.094335    17A     -1.057405    18A     -1.027229
      19A     -0.965234    20A     -0.875987    21A     -0.861508
      22A     -0.792808    23A     -0.759874    24A     -0.738356
      25A     -0.680865    26A     -0.664539    27A     -0.638749
      28A     -0.632532    29A     -0.606794    30A     -0.592025
      31A     -0.575896    32A     -0.575136    33A     -0.549824
      34A     -0.538431    35A     -0.534115    36A     -0.526934
      37A     -0.454981    38A     -0.434064    39A     -0.399752
      40A     -0.381963    41A     -0.338972    42A     -0.310169

  @DF-RHF Final Energy:  -509.54400861844158

   => Energetics <=

    Nuclear Repulsion Energy =            639.0961086852504422
    One-Electron Energy =               -1958.2086502711883895
    Two-Electron Energy =                 809.5685329674962531
    Total Energy =                       -509.5440086184415804
  Basis Set: (AUG-CC-PVTZ AUX)
    Blend: AUG-CC-PVTZ-RI
    Molecular point group: c1

    Geometry (in Angstrom), charge = 0, multiplicity = 1:

       Center              X                  Y                   Z               Mass
    ------------   -----------------  -----------------  -----------------  -----------------
         N            0.575079121790     0.272136765269     0.000003001840    14.003074004430
         N            1.435770121790    -0.775126234731     0.000003001840    14.003074004430
         N           -1.575426878210     1.145936765269     0.000002001840    14.003074004430
         C           -0.820470878210     0.043187765269     0.000001001840    12.000000000000
         C            2.703301421790    -0.189402434731     0.000000901840    12.000000000000
         C            1.212979121790     1.483806765269    -0.000000998160    12.000000000000
         C            2.562693121790     1.199896765269    -0.000004998160    12.000000000000
         C           -1.317606878210    -1.264108234731    -0.000001998160    12.000000000000
         C            3.879330121790    -1.071585234731     0.000000001840    12.000000000000
         C           -2.700100878210    -1.418457234731    -0.000001998160    12.000000000000
         C           -3.516518878210    -0.285199234731    -0.000000998160    12.000000000000
         C           -2.908812878210     0.968478765269     0.000001001840    12.000000000000
         H            0.648777121790     2.404021765269    -0.000004998160     1.007825032230
         H            3.373024121790     1.916821765269    -0.000001998160     1.007825032230
         H           -0.633342878210    -2.104286234731    -0.000002998160     1.007825032230
         H            4.497629121790    -0.885987234731     0.883765001840     1.007825032230
         H            3.581560121790    -2.122487234731    -0.000007998160     1.007825032230
         H            4.497635121790    -0.885973234731    -0.883757998160     1.007825032230
         H           -3.134711878210    -2.414885234731    -0.000003998160     1.007825032230
         H           -4.599063878210    -0.369588234731    -0.000001998160     1.007825032230
         H           -3.503277878210     1.879920765269     0.000002001840     1.007825032230

  Basis Set: AUG-CC-PVTZ
    Blend: AUG-CC-PVTZ
  Basis Set: (AUG-CC-PVTZ AUX)
    Blend: AUG-CC-PVTZ-JKFIT
	 Reference Energy          =    -509.5440086184415804 [Eh]
	 Singles Energy            =      -0.0000000000000000 [Eh]
	 Same-Spin Energy          =      -0.5666469649552144 [Eh]
	 Opposite-Spin Energy      =      -1.7235432188240811 [Eh]
	 Correlation Energy        =      -2.2901901837792957 [Eh]
	 Total Energy              =    -511.8341988022208966 [Eh]

	 ================> DF-SCS-MP2 Energies <==================
	-----------------------------------------------------------
	 SCS Same-Spin Scale       =       0.3333333333333333 [-]
	 SCS Opposite-Spin Scale   =       1.2000000000000000 [-]
	 SCS Same-Spin Energy      =      -0.1888823216517381 [Eh]
	 SCS Opposite-Spin Energy  =      -2.0682518625888973 [Eh]
	 SCS Correlation Energy    =      -2.2571341842406354 [Eh]
	 SCS Total Energy          =    -511.8011428026821932 [Eh]
	-----------------------------------------------------------

  Dipole Moment: [D]
     X:    -1.2184      Y:    -0.3734      Z:    -0.0000     Total:     1.2743

*** Psi4 exiting successfully. Buy a developer a beer!
