                               Psi4 1.3.2 release

  ==> Input File <==

--------------------------------------------------------------------------
#psi4
#
memory 32 gb

molecule  {
0 1
  S        0.8137250     0.0000590     0.8799220
  F        1.3317230     1.0914540    -1.4540400
  F        2.9966120    -0.0000550    -0.5541220
  F        1.3316930    -1.0916270    -1.4539100
  O        1.1369530     1.2876430     1.4974560
  O        1.1369560    -1.2874430     1.4976250
  C       -0.8817330     0.0000240     0.3730510
  C        1.6764180    -0.0000490    -0.7553320
  C       -1.5228280    -1.2242020     0.1676730
  C       -1.4645110     1.2242116    -0.0237815
  C       -2.8546580    -1.2129640    -0.2466500
  C       -2.8546630     1.2129290    -0.2467960
  C       -3.5156380    -0.0000320    -0.4592530
  H       -0.9944820    -2.1545490     0.3558040
  H       -0.9944910     2.1545950     0.3555450
  H       -3.3764830    -2.1529200    -0.4053950
  H       -3.3764920     2.1528630    -0.4056540
  H       -4.5535710    -0.0000530    -0.7823510
units angstrom
no_reorient  #important for SAPT in psi4, default
symmetry c1  #important for SAPT in psi4, default
}

set PROPERTIES_ORIGIN ["COM"]
properties('MP2/aug-cc-pvtz', properties = ['dipole'])
--------------------------------------------------------------------------

    Molecular point group: c1
  Charge       = 0
  Multiplicity = 1
  Basis Set: AUG-CC-PVTZ
    Blend: AUG-CC-PVTZ
  Basis Set: (AUG-CC-PVTZ AUX)
    Blend: AUG-CC-PVTZ-JKFIT

    Orbital Energies [Eh]
    ---------------------

    Doubly Occupied:

       1A    -92.219436     2A    -26.373880     3A    -26.373558
       4A    -26.371395     5A    -20.577552     6A    -20.577195
       7A    -11.552937     8A    -11.303253     9A    -11.290895
      10A    -11.287497    11A    -11.282308    12A    -11.276707
      13A    -11.274924    14A     -9.188261    15A     -6.873138
      16A     -6.872383    17A     -6.872062    18A     -1.759322
      19A     -1.667550    20A     -1.666826    21A     -1.469168
      22A     -1.361711    23A     -1.197549    24A     -1.085997
      25A     -1.056521    26A     -1.031259    27A     -0.936983
      28A     -0.872096    29A     -0.868833    30A     -0.852963
      31A     -0.851056    32A     -0.802081    33A     -0.749410
      34A     -0.738865    35A     -0.734621    36A     -0.698058
      37A     -0.697413    38A     -0.687378    39A     -0.680585
      40A     -0.675767    41A     -0.669646    42A     -0.651165
      43A     -0.645078    44A     -0.626427    45A     -0.561001
      46A     -0.547012    47A     -0.533262    48A     -0.525955
      49A     -0.518351    50A     -0.500379    51A     -0.470821
      52A     -0.387799    53A     -0.375125

  @DF-RHF Final Energy: -1113.76467498142460

   => Energetics <=

    Nuclear Repulsion Energy =            997.6431025835718174
    One-Electron Energy =               -3519.3727267087679138
    Two-Electron Energy =                1407.9649491437714914
    Total Energy =                      -1113.7646749814246050
  Basis Set: (AUG-CC-PVTZ AUX)
    Blend: AUG-CC-PVTZ-RI
    Molecular point group: c1

    Geometry (in Angstrom), charge = 0, multiplicity = 1:

       Center              X                  Y                   Z               Mass
    ------------   -----------------  -----------------  -----------------  -----------------
         S            0.720827930156     0.000060426700     0.903336043708    31.972071174400
         F            1.238825930156     1.091455426700    -1.430625956292    18.998403162730
         F            2.903714930156    -0.000053573300    -0.530707956292    18.998403162730
         F            1.238795930156    -1.091625573300    -1.430495956292    18.998403162730
         O            1.044055930156     1.287644426700     1.520870043708    15.994914619570
         O            1.044058930156    -1.287441573300     1.521039043708    15.994914619570
         C           -0.974630069844     0.000025426700     0.396465043708    12.000000000000
         C            1.583520930156    -0.000047573300    -0.731917956292    12.000000000000
         C           -1.615725069844    -1.224200573300     0.191087043708    12.000000000000
         C           -1.557408069844     1.224213026700    -0.000367456292    12.000000000000
         C           -2.947555069844    -1.212962573300    -0.223235956292    12.000000000000
         C           -2.947560069844     1.212930426700    -0.223381956292    12.000000000000
         C           -3.608535069844    -0.000030573300    -0.435838956292    12.000000000000
         H           -1.087379069844    -2.154547573300     0.379218043708     1.007825032230
         H           -1.087388069844     2.154596426700     0.378959043708     1.007825032230
         H           -3.469380069844    -2.152918573300    -0.381980956292     1.007825032230
         H           -3.469389069844     2.152864426700    -0.382239956292     1.007825032230
         H           -4.646468069844    -0.000051573300    -0.758936956292     1.007825032230

  Basis Set: AUG-CC-PVTZ
    Blend: AUG-CC-PVTZ
  Basis Set: (AUG-CC-PVTZ AUX)
    Blend: AUG-CC-PVTZ-JKFIT
	 Reference Energy          =   -1113.7646749814246050 [Eh]
	 Singles Energy            =      -0.0000000000000000 [Eh]
	 Same-Spin Energy          =      -0.7268543900076677 [Eh]
	 Opposite-Spin Energy      =      -2.0894733019825429 [Eh]
	 Correlation Energy        =      -2.8163276919902107 [Eh]
	 Total Energy              =   -1116.5810026734147868 [Eh]

	 ================> DF-SCS-MP2 Energies <==================
	-----------------------------------------------------------
	 SCS Same-Spin Scale       =       0.3333333333333333 [-]
	 SCS Opposite-Spin Scale   =       1.2000000000000000 [-]
	 SCS Same-Spin Energy      =      -0.2422847966692226 [Eh]
	 SCS Opposite-Spin Energy  =      -2.5073679623790515 [Eh]
	 SCS Correlation Energy    =      -2.7496527590482742 [Eh]
	 SCS Total Energy          =   -1116.5143277404729361 [Eh]
	-----------------------------------------------------------

  Dipole Moment: [D]
     X:    -4.6824      Y:    -0.0677      Z:    -2.2596     Total:     5.1996

*** Psi4 exiting successfully. Buy a developer a beer!
