                               Psi4 1.3.2 release

  ==> Input File <==

--------------------------------------------------------------------------
#psi4
#
memory 32 gb

molecule  {
0 1
  S        0.8137250     0.0000590     0.8799220
  F        1.3317230     1.0914540    -1.4540400
  F        2.9966120    -0.0000550    -0.5541220
  F        1.3316930    -1.0916270    -1.4539100
  O        1.1369530     1.2876430     1.4974560
  O        1.1369560    -1.2874430     1.4976250
  C       -0.8817330     0.0000240     0.3730510
  C        1.6764180    -0.0000490    -0.7553320
  C       -1.5228280    -1.2242020     0.1676730
  C       -1.5082525     1.2242202     0.1196991
  C       -2.8546580    -1.2129640    -0.2466500
  C       -2.8546630     1.2129290    -0.2467960
  C       -3.5156380    -0.0000320    -0.4592530
  H       -0.9944820    -2.1545490     0.3558040
  H       -0.9944910     2.1545950     0.3555450
  H       -3.3764830    -2.1529200    -0.4053950
  H       -3.3764920     2.1528630    -0.4056540
  H       -4.5535710    -0.0000530    -0.7823510
units angstrom
no_reorient  #important for SAPT in psi4, default
symmetry c1  #important for SAPT in psi4, default
}

set PROPERTIES_ORIGIN ["COM"]
properties('MP2/aug-cc-pvtz', properties = ['dipole'])
--------------------------------------------------------------------------

    Molecular point group: c1
  Charge       = 0
  Multiplicity = 1
  Basis Set: AUG-CC-PVTZ
    Blend: AUG-CC-PVTZ
  Basis Set: (AUG-CC-PVTZ AUX)
    Blend: AUG-CC-PVTZ-JKFIT

    Orbital Energies [Eh]
    ---------------------

    Doubly Occupied:

       1A    -92.219645     2A    -26.374127     3A    -26.374082
       4A    -26.371634     5A    -20.577497     6A    -20.577409
       7A    -11.553219     8A    -11.300534     9A    -11.287822
      10A    -11.287634    11A    -11.282561    12A    -11.273201
      13A    -11.273056    14A     -9.188431    15A     -6.873293
      16A     -6.872562    17A     -6.872247    18A     -1.759620
      19A     -1.667879    20A     -1.667099    21A     -1.469303
      22A     -1.361860    23A     -1.198820    24A     -1.086045
      25A     -1.057958    26A     -1.031972    27A     -0.937508
      28A     -0.872654    29A     -0.870357    30A     -0.853271
      31A     -0.851537    32A     -0.802869    33A     -0.750798
      34A     -0.739143    35A     -0.735554    36A     -0.698805
      37A     -0.697740    38A     -0.687794    39A     -0.680890
      40A     -0.677522    41A     -0.670128    42A     -0.651784
      43A     -0.646158    44A     -0.629747    45A     -0.562129
      46A     -0.547093    47A     -0.537404    48A     -0.526223
      49A     -0.518942    50A     -0.500621    51A     -0.471163
      52A     -0.388897    53A     -0.375132

  @DF-RHF Final Energy: -1113.77773454724911

   => Energetics <=

    Nuclear Repulsion Energy =            997.5545689054489458
    One-Electron Energy =               -3519.1818555442523575
    Two-Electron Energy =                1407.8495520915544148
    Total Energy =                      -1113.7777345472491106
  Basis Set: (AUG-CC-PVTZ AUX)
    Blend: AUG-CC-PVTZ-RI
    Molecular point group: c1

    Geometry (in Angstrom), charge = 0, multiplicity = 1:

       Center              X                  Y                   Z               Mass
    ------------   -----------------  -----------------  -----------------  -----------------
         S            0.723327489254     0.000059935262     0.895137005285    31.972071174400
         F            1.241325489254     1.091454935262    -1.438824994715    18.998403162730
         F            2.906214489254    -0.000054064738    -0.538906994715    18.998403162730
         F            1.241295489254    -1.091626064738    -1.438694994715    18.998403162730
         O            1.046555489254     1.287643935262     1.512671005285    15.994914619570
         O            1.046558489254    -1.287442064738     1.512840005285    15.994914619570
         C           -0.972130510746     0.000024935262     0.388266005285    12.000000000000
         C            1.586020489254    -0.000048064738    -0.740116994715    12.000000000000
         C           -1.613225510746    -1.224201064738     0.182888005285    12.000000000000
         C           -1.598650010746     1.224221135262     0.134914105285    12.000000000000
         C           -2.945055510746    -1.212963064738    -0.231434994715    12.000000000000
         C           -2.945060510746     1.212929935262    -0.231580994715    12.000000000000
         C           -3.606035510746    -0.000031064738    -0.444037994715    12.000000000000
         H           -1.084879510746    -2.154548064738     0.371019005285     1.007825032230
         H           -1.084888510746     2.154595935262     0.370760005285     1.007825032230
         H           -3.466880510746    -2.152919064738    -0.390179994715     1.007825032230
         H           -3.466889510746     2.152863935262    -0.390438994715     1.007825032230
         H           -4.643968510746    -0.000052064738    -0.767135994715     1.007825032230

  Basis Set: AUG-CC-PVTZ
    Blend: AUG-CC-PVTZ
  Basis Set: (AUG-CC-PVTZ AUX)
    Blend: AUG-CC-PVTZ-JKFIT
	 Reference Energy          =   -1113.7777345472491106 [Eh]
	 Singles Energy            =      -0.0000000000000000 [Eh]
	 Same-Spin Energy          =      -0.7259669155834981 [Eh]
	 Opposite-Spin Energy      =      -2.0871945298665087 [Eh]
	 Correlation Energy        =      -2.8131614454500067 [Eh]
	 Total Energy              =   -1116.5908959926991884 [Eh]

	 ================> DF-SCS-MP2 Energies <==================
	-----------------------------------------------------------
	 SCS Same-Spin Scale       =       0.3333333333333333 [-]
	 SCS Opposite-Spin Scale   =       1.2000000000000000 [-]
	 SCS Same-Spin Energy      =      -0.2419889718611660 [Eh]
	 SCS Opposite-Spin Energy  =      -2.5046334358398101 [Eh]
	 SCS Correlation Energy    =      -2.7466224077009760 [Eh]
	 SCS Total Energy          =   -1116.5243569549500080 [Eh]
	-----------------------------------------------------------

  Dipole Moment: [D]
     X:    -4.6140      Y:    -0.0066      Z:    -2.2976     Total:     5.1544

*** Psi4 exiting successfully. Buy a developer a beer!
