                               Psi4 1.3.2 release

  ==> Input File <==

--------------------------------------------------------------------------
#psi4
#
memory 32 gb

molecule  {
0 1
  S        0.8137250     0.0000590     0.8799220
  F        1.3317230     1.0914540    -1.4540400
  F        2.9966120    -0.0000550    -0.5541220
  F        1.3316930    -1.0916270    -1.4539100
  O        1.1369530     1.2876430     1.4974560
  O        1.1369560    -1.2874430     1.4976250
  C       -0.8817330     0.0000240     0.3730510
  C        1.6764180    -0.0000490    -0.7553320
  C       -1.5228280    -1.2242020     0.1676730
  C       -1.4790915     1.2242145     0.0240454
  C       -2.8546580    -1.2129640    -0.2466500
  C       -2.8546630     1.2129290    -0.2467960
  C       -3.5156380    -0.0000320    -0.4592530
  H       -0.9944820    -2.1545490     0.3558040
  H       -0.9944910     2.1545950     0.3555450
  H       -3.3764830    -2.1529200    -0.4053950
  H       -3.3764920     2.1528630    -0.4056540
  H       -4.5535710    -0.0000530    -0.7823510
units angstrom
no_reorient  #important for SAPT in psi4, default
symmetry c1  #important for SAPT in psi4, default
}

set PROPERTIES_ORIGIN ["COM"]
properties('MP2/aug-cc-pvtz', properties = ['dipole'])
--------------------------------------------------------------------------

    Molecular point group: c1
  Charge       = 0
  Multiplicity = 1
  Basis Set: AUG-CC-PVTZ
    Blend: AUG-CC-PVTZ
  Basis Set: (AUG-CC-PVTZ AUX)
    Blend: AUG-CC-PVTZ-JKFIT

    Orbital Energies [Eh]
    ---------------------

    Doubly Occupied:

       1A    -92.219529     2A    -26.373972     3A    -26.373777
       4A    -26.371481     5A    -20.577553     6A    -20.577285
       7A    -11.553039     8A    -11.302036     9A    -11.289476
      10A    -11.287571    11A    -11.282421    12A    -11.275108
      13A    -11.274078    14A     -9.188336    15A     -6.873208
      16A     -6.872462    17A     -6.872144    18A     -1.759440
      19A     -1.667683    20A     -1.666933    21A     -1.469230
      22A     -1.361781    23A     -1.198154    24A     -1.086051
      25A     -1.057202    26A     -1.031545    27A     -0.937205
      28A     -0.872305    29A     -0.869530    30A     -0.853087
      31A     -0.851252    32A     -0.802480    33A     -0.749989
      34A     -0.738978    35A     -0.735020    36A     -0.698353
      37A     -0.697549    38A     -0.687576    39A     -0.680709
      40A     -0.676551    41A     -0.669851    42A     -0.651428
      43A     -0.645604    44A     -0.627937    45A     -0.561472
      46A     -0.547133    47A     -0.535149    48A     -0.526102
      49A     -0.518589    50A     -0.500496    51A     -0.470943
      52A     -0.388317    53A     -0.375168

  @DF-RHF Final Energy: -1113.77070478401788

   => Energetics <=

    Nuclear Repulsion Energy =            997.6714919190810633
    One-Electron Energy =               -3519.4238554164062407
    Two-Electron Energy =                1407.9816587133070698
    Total Energy =                      -1113.7707047840178802
  Basis Set: (AUG-CC-PVTZ AUX)
    Blend: AUG-CC-PVTZ-RI
    Molecular point group: c1

    Geometry (in Angstrom), charge = 0, multiplicity = 1:

       Center              X                  Y                   Z               Mass
    ------------   -----------------  -----------------  -----------------  -----------------
         S            0.721661116522     0.000060260983     0.900603028996    31.972071174400
         F            1.239659116522     1.091455260983    -1.433358971004    18.998403162730
         F            2.904548116522    -0.000053739017    -0.533440971004    18.998403162730
         F            1.239629116522    -1.091625739017    -1.433228971004    18.998403162730
         O            1.044889116522     1.287644260983     1.518137028996    15.994914619570
         O            1.044892116522    -1.287441739017     1.518306028996    15.994914619570
         C           -0.973796883478     0.000025260983     0.393732028996    12.000000000000
         C            1.584354116522    -0.000047739017    -0.734650971004    12.000000000000
         C           -1.614891883478    -1.224200739017     0.188354028996    12.000000000000
         C           -1.571155383478     1.224215760983     0.044726428996    12.000000000000
         C           -2.946721883478    -1.212962739017    -0.225968971004    12.000000000000
         C           -2.946726883478     1.212930260983    -0.226114971004    12.000000000000
         C           -3.607701883478    -0.000030739017    -0.438571971004    12.000000000000
         H           -1.086545883478    -2.154547739017     0.376485028996     1.007825032230
         H           -1.086554883478     2.154596260983     0.376226028996     1.007825032230
         H           -3.468546883478    -2.152918739017    -0.384713971004     1.007825032230
         H           -3.468555883478     2.152864260983    -0.384972971004     1.007825032230
         H           -4.645634883478    -0.000051739017    -0.761669971004     1.007825032230

  Basis Set: AUG-CC-PVTZ
    Blend: AUG-CC-PVTZ
  Basis Set: (AUG-CC-PVTZ AUX)
    Blend: AUG-CC-PVTZ-JKFIT
	 Reference Energy          =   -1113.7707047840178802 [Eh]
	 Singles Energy            =      -0.0000000000000000 [Eh]
	 Same-Spin Energy          =      -0.7264624410082487 [Eh]
	 Opposite-Spin Energy      =      -2.0884573364795553 [Eh]
	 Correlation Energy        =      -2.8149197774878041 [Eh]
	 Total Energy              =   -1116.5856245615057105 [Eh]

	 ================> DF-SCS-MP2 Energies <==================
	-----------------------------------------------------------
	 SCS Same-Spin Scale       =       0.3333333333333333 [-]
	 SCS Opposite-Spin Scale   =       1.2000000000000000 [-]
	 SCS Same-Spin Energy      =      -0.2421541470027496 [Eh]
	 SCS Opposite-Spin Energy  =      -2.5061488037754662 [Eh]
	 SCS Correlation Energy    =      -2.7483029507782160 [Eh]
	 SCS Total Energy          =   -1116.5190077347961051 [Eh]
	-----------------------------------------------------------

  Dipole Moment: [D]
     X:    -4.6544      Y:    -0.0405      Z:    -2.2719     Total:     5.1794

*** Psi4 exiting successfully. Buy a developer a beer!
