                               Psi4 1.3.2 release

  ==> Input File <==

--------------------------------------------------------------------------
#psi4
#
memory 32 gb

molecule  {
0 1
  S        0.8137250     0.0000590     0.8799220
  F        1.3317230     1.0914540    -1.4540400
  F        2.9966120    -0.0000550    -0.5541220
  F        1.3316930    -1.0916270    -1.4539100
  O        1.1369530     1.2876430     1.4974560
  O        1.1369560    -1.2874430     1.4976250
  C       -0.8817330     0.0000240     0.3730510
  C        1.6764180    -0.0000490    -0.7553320
  C       -1.5228280    -1.2242020     0.1676730
  C       -1.4936720     1.2242173     0.0718723
  C       -2.8546580    -1.2129640    -0.2466500
  C       -2.8546630     1.2129290    -0.2467960
  C       -3.5156380    -0.0000320    -0.4592530
  H       -0.9944820    -2.1545490     0.3558040
  H       -0.9944910     2.1545950     0.3555450
  H       -3.3764830    -2.1529200    -0.4053950
  H       -3.3764920     2.1528630    -0.4056540
  H       -4.5535710    -0.0000530    -0.7823510
units angstrom
no_reorient  #important for SAPT in psi4, default
symmetry c1  #important for SAPT in psi4, default
}

set PROPERTIES_ORIGIN ["COM"]
properties('MP2/aug-cc-pvtz', properties = ['dipole'])
--------------------------------------------------------------------------

    Molecular point group: c1
  Charge       = 0
  Multiplicity = 1
  Basis Set: AUG-CC-PVTZ
    Blend: AUG-CC-PVTZ
  Basis Set: (AUG-CC-PVTZ AUX)
    Blend: AUG-CC-PVTZ-JKFIT

    Orbital Energies [Eh]
    ---------------------

    Doubly Occupied:

       1A    -92.219599     2A    -26.374053     3A    -26.373949
       4A    -26.371560     5A    -20.577535     6A    -20.577357
       7A    -11.553132     8A    -11.301124     9A    -11.288441
      10A    -11.287620    11A    -11.282510    12A    -11.273931
      13A    -11.273459    14A     -9.188393    15A     -6.873260
      16A     -6.872522    17A     -6.872206    18A     -1.759538
      19A     -1.667792    20A     -1.667022    21A     -1.469275
      22A     -1.361831    23A     -1.198581    24A     -1.086068
      25A     -1.057682    26A     -1.031780    27A     -0.937379
      28A     -0.872495    29A     -0.870043    30A     -0.853188
      31A     -0.851410    32A     -0.802748    33A     -0.750465
      34A     -0.739069    35A     -0.735333    36A     -0.698605
      37A     -0.697657    38A     -0.687719    39A     -0.680810
      40A     -0.677146    41A     -0.670009    42A     -0.651646
      43A     -0.645956    44A     -0.629043    45A     -0.561843
      46A     -0.547163    47A     -0.536529    48A     -0.526186
      49A     -0.518785    50A     -0.500576    51A     -0.471056
      52A     -0.388691    53A     -0.375172

  @DF-RHF Final Energy: -1113.77504837918605

   => Energetics <=

    Nuclear Repulsion Energy =            997.6424449463233941
    One-Electron Energy =               -3519.3611075970284219
    Two-Electron Energy =                1407.9436142715189817
    Total Energy =                      -1113.7750483791860461
  Basis Set: (AUG-CC-PVTZ AUX)
    Blend: AUG-CC-PVTZ-RI
    Molecular point group: c1

    Geometry (in Angstrom), charge = 0, multiplicity = 1:

       Center              X                  Y                   Z               Mass
    ------------   -----------------  -----------------  -----------------  -----------------
         S            0.722494302888     0.000060100980     0.897870014283    31.972071174400
         F            1.240492302888     1.091455100980    -1.436091985717    18.998403162730
         F            2.905381302888    -0.000053899020    -0.536173985717    18.998403162730
         F            1.240462302888    -1.091625899020    -1.435961985717    18.998403162730
         O            1.045722302888     1.287644100980     1.515404014283    15.994914619570
         O            1.045725302888    -1.287441899020     1.515573014283    15.994914619570
         C           -0.972963697112     0.000025100980     0.390999014283    12.000000000000
         C            1.585187302888    -0.000047899020    -0.737383985717    12.000000000000
         C           -1.614058697112    -1.224200899020     0.185621014283    12.000000000000
         C           -1.584902697112     1.224218400980     0.089820314283    12.000000000000
         C           -2.945888697112    -1.212962899020    -0.228701985717    12.000000000000
         C           -2.945893697112     1.212930100980    -0.228847985717    12.000000000000
         C           -3.606868697112    -0.000030899020    -0.441304985717    12.000000000000
         H           -1.085712697112    -2.154547899020     0.373752014283     1.007825032230
         H           -1.085721697112     2.154596100980     0.373493014283     1.007825032230
         H           -3.467713697112    -2.152918899020    -0.387446985717     1.007825032230
         H           -3.467722697112     2.152864100980    -0.387705985717     1.007825032230
         H           -4.644801697112    -0.000051899020    -0.764402985717     1.007825032230

  Basis Set: AUG-CC-PVTZ
    Blend: AUG-CC-PVTZ
  Basis Set: (AUG-CC-PVTZ AUX)
    Blend: AUG-CC-PVTZ-JKFIT
	 Reference Energy          =   -1113.7750483791860461 [Eh]
	 Singles Energy            =      -0.0000000000000000 [Eh]
	 Same-Spin Energy          =      -0.7261659319551353 [Eh]
	 Opposite-Spin Energy      =      -2.0876999813864234 [Eh]
	 Correlation Energy        =      -2.8138659133415587 [Eh]
	 Total Energy              =   -1116.5889142925275337 [Eh]

	 ================> DF-SCS-MP2 Energies <==================
	-----------------------------------------------------------
	 SCS Same-Spin Scale       =       0.3333333333333333 [-]
	 SCS Opposite-Spin Scale   =       1.2000000000000000 [-]
	 SCS Same-Spin Energy      =      -0.2420553106517118 [Eh]
	 SCS Opposite-Spin Energy  =      -2.5052399776637082 [Eh]
	 SCS Correlation Energy    =      -2.7472952883154198 [Eh]
	 SCS Total Energy          =   -1116.5223436675014455 [Eh]
	-----------------------------------------------------------

  Dipole Moment: [D]
     X:    -4.6316      Y:    -0.0201      Z:    -2.2845     Total:     5.1644

*** Psi4 exiting successfully. Buy a developer a beer!
