                               Psi4 1.3.2 release

  ==> Input File <==

--------------------------------------------------------------------------
#psi4
#
memory 32 gb

molecule  {
0 1
  S        0.8137250     0.0000590     0.8799220
  F        1.3317230     1.0914540    -1.4540400
  F        2.9966120    -0.0000550    -0.5541220
  F        1.3316930    -1.0916270    -1.4539100
  O        1.1369530     1.2876430     1.4974560
  O        1.1369560    -1.2874430     1.4976250
  C       -0.8817330     0.0000240     0.3730510
  C        1.6764180    -0.0000490    -0.7553320
  C       -1.5228280    -1.2242020     0.1676730
  C       -1.5228330     1.2242230     0.1675260
  C       -2.8546580    -1.2129640    -0.2466500
  C       -2.8546630     1.2129290    -0.2467960
  C       -3.5156380    -0.0000320    -0.4592530
  H       -0.9944820    -2.1545490     0.3558040
  H       -0.9944910     2.1545950     0.3555450
  H       -3.3764830    -2.1529200    -0.4053950
  H       -3.3764920     2.1528630    -0.4056540
  H       -4.5535710    -0.0000530    -0.7823510
units angstrom
no_reorient  #important for SAPT in psi4, default
symmetry c1  #important for SAPT in psi4, default
}

set PROPERTIES_ORIGIN ["COM"]
properties('MP2/aug-cc-pvtz', properties = ['dipole'])
--------------------------------------------------------------------------

    Molecular point group: c1
  Charge       = 0
  Multiplicity = 1
  Basis Set: AUG-CC-PVTZ
    Blend: AUG-CC-PVTZ
  Basis Set: (AUG-CC-PVTZ AUX)
    Blend: AUG-CC-PVTZ-JKFIT

    Orbital Energies [Eh]
    ---------------------

    Doubly Occupied:

       1A    -92.219666     2A    -26.374199     3A    -26.374178
       4A    -26.371705     5A    -20.577448     6A    -20.577429
       7A    -11.553303     8A    -11.300272     9A    -11.287654
      10A    -11.287582    11A    -11.282563    12A    -11.272936
      13A    -11.272852    14A     -9.188448    15A     -6.873306
      16A     -6.872581    17A     -6.872265    18A     -1.759690
      19A     -1.667951    20A     -1.667166    21A     -1.469311
      22A     -1.361867    23A     -1.198860    24A     -1.085978
      25A     -1.058023    26A     -1.032122    27A     -0.937596
      28A     -0.872751    29A     -0.870481    30A     -0.853340
      31A     -0.851633    32A     -0.802831    33A     -0.750956
      34A     -0.739204    35A     -0.735677    36A     -0.698948
      37A     -0.697804    38A     -0.687788    39A     -0.680950
      40A     -0.677662    41A     -0.670212    42A     -0.651818
      43A     -0.646222    44A     -0.630052    45A     -0.562337
      46A     -0.546923    47A     -0.537776    48A     -0.526218
      49A     -0.519062    50A     -0.500629    51A     -0.471266
      52A     -0.388919    53A     -0.375042

  @DF-RHF Final Energy: -1113.77879089193652

   => Energetics <=

    Nuclear Repulsion Energy =            997.4070042901200850
    One-Electron Energy =               -3518.8846857334028755
    Two-Electron Energy =                1407.6988905513460395
    Total Energy =                      -1113.7787908919365236
  Basis Set: (AUG-CC-PVTZ AUX)
    Blend: AUG-CC-PVTZ-RI
    Molecular point group: c1

    Geometry (in Angstrom), charge = 0, multiplicity = 1:

       Center              X                  Y                   Z               Mass
    ------------   -----------------  -----------------  -----------------  -----------------
         S            0.724160675620     0.000059775260     0.892403990572    31.972071174400
         F            1.242158675620     1.091454775260    -1.441558009428    18.998403162730
         F            2.907047675620    -0.000054224740    -0.541640009428    18.998403162730
         F            1.242128675620    -1.091626224740    -1.441428009428    18.998403162730
         O            1.047388675620     1.287643775260     1.509937990572    15.994914619570
         O            1.047391675620    -1.287442224740     1.510106990572    15.994914619570
         C           -0.971297324380     0.000024775260     0.385532990572    12.000000000000
         C            1.586853675620    -0.000048224740    -0.742850009428    12.000000000000
         C           -1.612392324380    -1.224201224740     0.180154990572    12.000000000000
         C           -1.612397324380     1.224223775260     0.180007990572    12.000000000000
         C           -2.944222324380    -1.212963224740    -0.234168009428    12.000000000000
         C           -2.944227324380     1.212929775260    -0.234314009428    12.000000000000
         C           -3.605202324380    -0.000031224740    -0.446771009428    12.000000000000
         H           -1.084046324380    -2.154548224740     0.368285990572     1.007825032230
         H           -1.084055324380     2.154595775260     0.368026990572     1.007825032230
         H           -3.466047324380    -2.152919224740    -0.392913009428     1.007825032230
         H           -3.466056324380     2.152863775260    -0.393172009428     1.007825032230
         H           -4.643135324380    -0.000052224740    -0.769869009428     1.007825032230

  Basis Set: AUG-CC-PVTZ
    Blend: AUG-CC-PVTZ
  Basis Set: (AUG-CC-PVTZ AUX)
    Blend: AUG-CC-PVTZ-JKFIT
	 Reference Energy          =   -1113.7787908919365236 [Eh]
	 Singles Energy            =      -0.0000000000000000 [Eh]
	 Same-Spin Energy          =      -0.7258690200811477 [Eh]
	 Opposite-Spin Energy      =      -2.0869351414026109 [Eh]
	 Correlation Energy        =      -2.8128041614837587 [Eh]
	 Total Energy              =   -1116.5915950534201784 [Eh]

	 ================> DF-SCS-MP2 Energies <==================
	-----------------------------------------------------------
	 SCS Same-Spin Scale       =       0.3333333333333333 [-]
	 SCS Opposite-Spin Scale   =       1.2000000000000000 [-]
	 SCS Same-Spin Energy      =      -0.2419563400270492 [Eh]
	 SCS Opposite-Spin Energy  =      -2.5043221696831330 [Eh]
	 SCS Correlation Energy    =      -2.7462785097101823 [Eh]
	 SCS Total Energy          =   -1116.5250694016467605 [Eh]
	-----------------------------------------------------------

  Dipole Moment: [D]
     X:    -4.6015      Y:    -0.0002      Z:    -2.3116     Total:     5.1495

*** Psi4 exiting successfully. Buy a developer a beer!
