                               Psi4 1.3.2 release

  ==> Input File <==

--------------------------------------------------------------------------
#psi4
#
memory 32 gb

molecule  {
0 1
  S        0.8137250     0.0000590     0.8799220
  F        1.3317230     1.0914540    -1.4540400
  F        2.9966120    -0.0000550    -0.5541220
  F        1.3316930    -1.0916270    -1.4539100
  O        1.1369530     1.2876430     1.4974560
  O        1.1369560    -1.2874430     1.4976250
  C       -0.8817330     0.0000240     0.3730510
  C        1.6764180    -0.0000490    -0.7553320
  C       -1.5228280    -1.2242020     0.1676730
  C       -1.4353500     1.2242059    -0.1194352
  C       -2.8546580    -1.2129640    -0.2466500
  C       -2.8546630     1.2129290    -0.2467960
  C       -3.5156380    -0.0000320    -0.4592530
  H       -0.9944820    -2.1545490     0.3558040
  H       -0.9944910     2.1545950     0.3555450
  H       -3.3764830    -2.1529200    -0.4053950
  H       -3.3764920     2.1528630    -0.4056540
  H       -4.5535710    -0.0000530    -0.7823510
units angstrom
no_reorient  #important for SAPT in psi4, default
symmetry c1  #important for SAPT in psi4, default
}

set PROPERTIES_ORIGIN ["COM"]
properties('MP2/aug-cc-pvtz', properties = ['dipole'])
--------------------------------------------------------------------------

    Molecular point group: c1
  Charge       = 0
  Multiplicity = 1
  Basis Set: AUG-CC-PVTZ
    Blend: AUG-CC-PVTZ
  Basis Set: (AUG-CC-PVTZ AUX)
    Blend: AUG-CC-PVTZ-JKFIT

    Orbital Energies [Eh]
    ---------------------

    Doubly Occupied:

       1A    -92.219182     2A    -26.373650     3A    -26.372950
       4A    -26.371187     5A    -20.577490     6A    -20.576964
       7A    -11.552697     8A    -11.306506     9A    -11.294713
      10A    -11.287326    11A    -11.282270    12A    -11.280862
      13A    -11.277318    14A     -9.188056    15A     -6.872944
      16A     -6.872170    17A     -6.871838    18A     -1.759006
      19A     -1.667203    20A     -1.666530    21A     -1.468995
      22A     -1.361515    23A     -1.195877    24A     -1.085799
      25A     -1.054579    26A     -1.030499    27A     -0.936369
      28A     -0.871609    29A     -0.867017    30A     -0.852629
      31A     -0.850542    32A     -0.800977    33A     -0.748115
      34A     -0.738551    35A     -0.733632    36A     -0.697379
      37A     -0.697037    38A     -0.686894    39A     -0.680257
      40A     -0.673824    41A     -0.669065    42A     -0.650683
      43A     -0.643333    44A     -0.622305    45A     -0.559655
      46A     -0.546520    47A     -0.528342    48A     -0.525006
      49A     -0.517718    50A     -0.500014    51A     -0.470528
      52A     -0.386465    53A     -0.374931

  @DF-RHF Final Energy: -1113.74744428675058

   => Energetics <=

    Nuclear Repulsion Energy =            997.4218895911606069
    One-Electron Energy =               -3518.9436240372019711
    Two-Electron Energy =                1407.7742901592910130
    Total Energy =                      -1113.7474442867505786
  Basis Set: (AUG-CC-PVTZ AUX)
    Blend: AUG-CC-PVTZ-RI
    Molecular point group: c1

    Geometry (in Angstrom), charge = 0, multiplicity = 1:

       Center              X                  Y                   Z               Mass
    ------------   -----------------  -----------------  -----------------  -----------------
         S            0.719161557423     0.000060752420     0.908802067419    31.972071174400
         F            1.237159557423     1.091455752420    -1.425159932581    18.998403162730
         F            2.902048557423    -0.000053247580    -0.525241932581    18.998403162730
         F            1.237129557423    -1.091625247580    -1.425029932581    18.998403162730
         O            1.042389557423     1.287644752420     1.526336067419    15.994914619570
         O            1.042392557423    -1.287441247580     1.526505067419    15.994914619570
         C           -0.976296442577     0.000025752420     0.401931067419    12.000000000000
         C            1.581854557423    -0.000047247580    -0.726451932581    12.000000000000
         C           -1.617391442577    -1.224200247580     0.196553067419    12.000000000000
         C           -1.529913442577     1.224207652420    -0.090555132581    12.000000000000
         C           -2.949221442577    -1.212962247580    -0.217769932581    12.000000000000
         C           -2.949226442577     1.212930752420    -0.217915932581    12.000000000000
         C           -3.610201442577    -0.000030247580    -0.430372932581    12.000000000000
         H           -1.089045442577    -2.154547247580     0.384684067419     1.007825032230
         H           -1.089054442577     2.154596752420     0.384425067419     1.007825032230
         H           -3.471046442577    -2.152918247580    -0.376514932581     1.007825032230
         H           -3.471055442577     2.152864752420    -0.376773932581     1.007825032230
         H           -4.648134442577    -0.000051247580    -0.753470932581     1.007825032230

  Basis Set: AUG-CC-PVTZ
    Blend: AUG-CC-PVTZ
  Basis Set: (AUG-CC-PVTZ AUX)
    Blend: AUG-CC-PVTZ-JKFIT
	 Reference Energy          =   -1113.7474442867505786 [Eh]
	 Singles Energy            =      -0.0000000000000000 [Eh]
	 Same-Spin Energy          =      -0.7279084301915260 [Eh]
	 Opposite-Spin Energy      =      -2.0922769683150193 [Eh]
	 Correlation Energy        =      -2.8201853985065455 [Eh]
	 Total Energy              =   -1116.5676296852570886 [Eh]

	 ================> DF-SCS-MP2 Energies <==================
	-----------------------------------------------------------
	 SCS Same-Spin Scale       =       0.3333333333333333 [-]
	 SCS Opposite-Spin Scale   =       1.2000000000000000 [-]
	 SCS Same-Spin Energy      =      -0.2426361433971753 [Eh]
	 SCS Opposite-Spin Energy  =      -2.5107323619780231 [Eh]
	 SCS Correlation Energy    =      -2.7533685053751986 [Eh]
	 SCS Total Energy          =   -1116.5008127921257710 [Eh]
	-----------------------------------------------------------

  Dipole Moment: [D]
     X:    -4.7537      Y:    -0.1411      Z:    -2.2356     Total:     5.2550

*** Psi4 exiting successfully. Buy a developer a beer!
