                               Psi4 1.3.2 release

  ==> Input File <==

--------------------------------------------------------------------------
#psi4
#
memory 32 gb

molecule  {
0 1
  S        0.8137250     0.0000590     0.8799220
  F        1.3317230     1.0914540    -1.4540400
  F        2.9966120    -0.0000550    -0.5541220
  F        1.3316930    -1.0916270    -1.4539100
  O        1.1369530     1.2876430     1.4974560
  O        1.1369560    -1.2874430     1.4976250
  C       -0.8817330     0.0000240     0.3730510
  C        1.6764180    -0.0000490    -0.7553320
  C       -1.5228280    -1.2242020     0.1676730
  C       -1.4499305     1.2242088    -0.0716083
  C       -2.8546580    -1.2129640    -0.2466500
  C       -2.8546630     1.2129290    -0.2467960
  C       -3.5156380    -0.0000320    -0.4592530
  H       -0.9944820    -2.1545490     0.3558040
  H       -0.9944910     2.1545950     0.3555450
  H       -3.3764830    -2.1529200    -0.4053950
  H       -3.3764920     2.1528630    -0.4056540
  H       -4.5535710    -0.0000530    -0.7823510
units angstrom
no_reorient  #important for SAPT in psi4, default
symmetry c1  #important for SAPT in psi4, default
}

set PROPERTIES_ORIGIN ["COM"]
properties('MP2/aug-cc-pvtz', properties = ['dipole'])
--------------------------------------------------------------------------

    Molecular point group: c1
  Charge       = 0
  Multiplicity = 1
  Basis Set: AUG-CC-PVTZ
    Blend: AUG-CC-PVTZ
  Basis Set: (AUG-CC-PVTZ AUX)
    Blend: AUG-CC-PVTZ-JKFIT

    Orbital Energies [Eh]
    ---------------------

    Doubly Occupied:

       1A    -92.219320     2A    -26.373773     3A    -26.373285
       4A    -26.371297     5A    -20.577532     6A    -20.577088
       7A    -11.552824     8A    -11.304752     9A    -11.292656
      10A    -11.287412    11A    -11.282199    12A    -11.278686
      13A    -11.276003    14A     -9.188168    15A     -6.873050
      16A     -6.872285    17A     -6.871960    18A     -1.759178
      19A     -1.667390    20A     -1.666695    21A     -1.469089
      22A     -1.361622    23A     -1.196782    24A     -1.085911
      25A     -1.055644    26A     -1.030914    27A     -0.936706
      28A     -0.871867    29A     -0.867982    30A     -0.852812
      31A     -0.850821    32A     -0.801572    33A     -0.748772
      34A     -0.738724    35A     -0.734152    36A     -0.697730
      37A     -0.697244    38A     -0.687143    39A     -0.680435
      40A     -0.674838    41A     -0.669388    42A     -0.650902
      43A     -0.644336    44A     -0.624534    45A     -0.560404
      46A     -0.546808    47A     -0.530905    48A     -0.525685
      49A     -0.518065    50A     -0.500220    51A     -0.470685
      52A     -0.387167    53A     -0.375046

  @DF-RHF Final Energy: -1113.75692957799083

   => Energetics <=

    Nuclear Repulsion Energy =            997.5591397653425929
    One-Electron Energy =               -3519.2112231851033357
    Two-Electron Energy =                1407.8951538417700249
    Total Energy =                      -1113.7569295779908316
  Basis Set: (AUG-CC-PVTZ AUX)
    Blend: AUG-CC-PVTZ-RI
    Molecular point group: c1

    Geometry (in Angstrom), charge = 0, multiplicity = 1:

       Center              X                  Y                   Z               Mass
    ------------   -----------------  -----------------  -----------------  -----------------
         S            0.719994743789     0.000060586703     0.906069052706    31.972071174400
         F            1.237992743789     1.091455586703    -1.427892947294    18.998403162730
         F            2.902881743789    -0.000053413297    -0.527974947294    18.998403162730
         F            1.237962743789    -1.091625413297    -1.427762947294    18.998403162730
         O            1.043222743789     1.287644586703     1.523603052706    15.994914619570
         O            1.043225743789    -1.287441413297     1.523772052706    15.994914619570
         C           -0.975463256211     0.000025586703     0.399198052706    12.000000000000
         C            1.582687743789    -0.000047413297    -0.729184947294    12.000000000000
         C           -1.616558256211    -1.224200413297     0.193820052706    12.000000000000
         C           -1.543660756211     1.224210386703    -0.045461247294    12.000000000000
         C           -2.948388256211    -1.212962413297    -0.220502947294    12.000000000000
         C           -2.948393256211     1.212930586703    -0.220648947294    12.000000000000
         C           -3.609368256211    -0.000030413297    -0.433105947294    12.000000000000
         H           -1.088212256211    -2.154547413297     0.381951052706     1.007825032230
         H           -1.088221256211     2.154596586703     0.381692052706     1.007825032230
         H           -3.470213256211    -2.152918413297    -0.379247947294     1.007825032230
         H           -3.470222256211     2.152864586703    -0.379506947294     1.007825032230
         H           -4.647301256211    -0.000051413297    -0.756203947294     1.007825032230

  Basis Set: AUG-CC-PVTZ
    Blend: AUG-CC-PVTZ
  Basis Set: (AUG-CC-PVTZ AUX)
    Blend: AUG-CC-PVTZ-JKFIT
	 Reference Energy          =   -1113.7569295779908316 [Eh]
	 Singles Energy            =      -0.0000000000000000 [Eh]
	 Same-Spin Energy          =      -0.7273382025746000 [Eh]
	 Opposite-Spin Energy      =      -2.0907477305360040 [Eh]
	 Correlation Energy        =      -2.8180859331106038 [Eh]
	 Total Energy              =   -1116.5750155111013555 [Eh]

	 ================> DF-SCS-MP2 Energies <==================
	-----------------------------------------------------------
	 SCS Same-Spin Scale       =       0.3333333333333333 [-]
	 SCS Opposite-Spin Scale   =       1.2000000000000000 [-]
	 SCS Same-Spin Energy      =      -0.2424460675248667 [Eh]
	 SCS Opposite-Spin Energy  =      -2.5088972766432049 [Eh]
	 SCS Correlation Energy    =      -2.7513433441680717 [Eh]
	 SCS Total Energy          =   -1116.5082729221589943 [Eh]
	-----------------------------------------------------------

  Dipole Moment: [D]
     X:    -4.7156      Y:    -0.1013      Z:    -2.2475     Total:     5.2248

*** Psi4 exiting successfully. Buy a developer a beer!
