                               Psi4 1.3.2 release

  ==> Input File <==

--------------------------------------------------------------------------
#psi4
#
memory 32 gb

molecule  {
0 1
  O        0.2778030     1.6259200     0.3386670
  O        2.1914470    -1.4110830     0.2143760
  O       -2.8041000    -0.0533200    -1.0004000
  O        2.6534740     0.6903680    -0.5128080
  O       -2.2475040    -0.2263980     1.1904210
  C        0.4723530     0.2278750     0.4110270
  C       -0.4999580    -0.3473485    -0.4873860
  C        1.8865440    -0.1140510    -0.0062910
  C       -1.9249390    -0.2389030     0.0159280
  H        0.3131310    -0.0976200     1.4451750
  H       -0.3508850    -1.5764080    -0.4792290
  H       -0.4317560    -0.1356430    -1.5200150
  H        1.0272260     1.9763200    -0.1823570
  H        3.1099360    -1.5361820    -0.1045700
  H       -3.6753880     0.0844680    -0.5728280
units angstrom
no_reorient  #important for SAPT in psi4, default
symmetry c1  #important for SAPT in psi4, default
}

set PROPERTIES_ORIGIN ["COM"]
properties('MP2/aug-cc-pvtz', properties = ['dipole'])
--------------------------------------------------------------------------

    Molecular point group: c1
  Charge       = 0
  Multiplicity = 1
  Basis Set: AUG-CC-PVTZ
    Blend: AUG-CC-PVTZ
  Basis Set: (AUG-CC-PVTZ AUX)
    Blend: AUG-CC-PVTZ-JKFIT

    Orbital Energies [Eh]
    ---------------------

    Doubly Occupied:

       1A    -20.645648     2A    -20.625824     3A    -20.583855
       4A    -20.572171     5A    -20.558219     6A    -11.417947
       7A    -11.403294     8A    -11.320034     9A    -11.275068
      10A     -1.492404    11A     -1.469468    12A     -1.399688
      13A     -1.374989    14A     -1.365198    15A     -1.099526
      16A     -0.970999    17A     -0.852681    18A     -0.807892
      19A     -0.762993    20A     -0.738118    21A     -0.714046
      22A     -0.707946    23A     -0.665680    24A     -0.658876
      25A     -0.645233    26A     -0.627722    27A     -0.615602
      28A     -0.589499    29A     -0.548065    30A     -0.531476
      31A     -0.512184    32A     -0.491076    33A     -0.486216
      34A     -0.469979    35A     -0.460841

  @DF-RHF Final Energy:  -529.50273459126277

   => Energetics <=

    Nuclear Repulsion Energy =            465.7106649784340107
    One-Electron Energy =               -1651.5058899563134673
    Two-Electron Energy =                 656.2924903866168052
    Total Energy =                       -529.5027345912627652
  Basis Set: (AUG-CC-PVTZ AUX)
    Blend: AUG-CC-PVTZ-RI
    Molecular point group: c1

    Geometry (in Angstrom), charge = 0, multiplicity = 1:

       Center              X                  Y                   Z               Mass
    ------------   -----------------  -----------------  -----------------  -----------------
         O            0.275282794402     1.603234386444     0.327792822431    15.994914619570
         O            2.188926794402    -1.433768613556     0.203501822431    15.994914619570
         O           -2.806620205598    -0.076005613556    -1.011274177569    15.994914619570
         O            2.650953794402     0.667682386444    -0.523682177569    15.994914619570
         O           -2.250024205598    -0.249083613556     1.179546822431    15.994914619570
         C            0.469832794402     0.205189386444     0.400152822431    12.000000000000
         C           -0.502478205598    -0.370034113556    -0.498260177569    12.000000000000
         C            1.884023794402    -0.136736613556    -0.017165177569    12.000000000000
         C           -1.927459205598    -0.261588613556     0.005053822431    12.000000000000
         H            0.310610794402    -0.120305613556     1.434300822431     1.007825032230
         H           -0.353405205598    -1.599093613556    -0.490103177569     1.007825032230
         H           -0.434276205598    -0.158328613556    -1.530889177569     1.007825032230
         H            1.024705794402     1.953634386444    -0.193231177569     1.007825032230
         H            3.107415794402    -1.558867613556    -0.115444177569     1.007825032230
         H           -3.677908205598     0.061782386444    -0.583702177569     1.007825032230

  Basis Set: AUG-CC-PVTZ
    Blend: AUG-CC-PVTZ
  Basis Set: (AUG-CC-PVTZ AUX)
    Blend: AUG-CC-PVTZ-JKFIT
	 Reference Energy          =    -529.5027345912627652 [Eh]
	 Singles Energy            =      -0.0000000000000000 [Eh]
	 Same-Spin Energy          =      -0.5064809006746290 [Eh]
	 Opposite-Spin Energy      =      -1.5076666545704374 [Eh]
	 Correlation Energy        =      -2.0141475552450663 [Eh]
	 Total Energy              =    -531.5168821465077826 [Eh]

	 ================> DF-SCS-MP2 Energies <==================
	-----------------------------------------------------------
	 SCS Same-Spin Scale       =       0.3333333333333333 [-]
	 SCS Opposite-Spin Scale   =       1.2000000000000000 [-]
	 SCS Same-Spin Energy      =      -0.1688269668915430 [Eh]
	 SCS Opposite-Spin Energy  =      -1.8091999854845247 [Eh]
	 SCS Correlation Energy    =      -1.9780269523760676 [Eh]
	 SCS Total Energy          =    -531.4807615436387778 [Eh]
	-----------------------------------------------------------

  Dipole Moment: [D]
     X:     0.9350      Y:    -2.1282      Z:    -1.6256     Total:     2.8365

*** Psi4 exiting successfully. Buy a developer a beer!
