                               Psi4 1.3.2 release

  ==> Input File <==

--------------------------------------------------------------------------
#psi4
#
memory 32 gb

molecule  {
0 1
  O        0.2778030     1.6259200     0.3386670
  O        2.1914470    -1.4110830     0.2143760
  O       -2.8041000    -0.0533200    -1.0004000
  O        2.6534740     0.6903680    -0.5128080
  O       -2.2475040    -0.2263980     1.1904210
  C        0.4890814     0.2399568     0.4565703
  C       -0.5274950    -0.4947260    -0.4920330
  C        1.8865440    -0.1140510    -0.0062910
  C       -1.9249390    -0.2389030     0.0159280
  H        0.3131310    -0.0976200     1.4451750
  H       -0.3508850    -1.5764080    -0.4792290
  H       -0.4317560    -0.1356430    -1.5200150
  H        1.0272260     1.9763200    -0.1823570
  H        3.1099360    -1.5361820    -0.1045700
  H       -3.6753880     0.0844680    -0.5728280
units angstrom
no_reorient  #important for SAPT in psi4, default
symmetry c1  #important for SAPT in psi4, default
}

set PROPERTIES_ORIGIN ["COM"]
properties('MP2/aug-cc-pvtz', properties = ['dipole'])
--------------------------------------------------------------------------

    Molecular point group: c1
  Charge       = 0
  Multiplicity = 1
  Basis Set: AUG-CC-PVTZ
    Blend: AUG-CC-PVTZ
  Basis Set: (AUG-CC-PVTZ AUX)
    Blend: AUG-CC-PVTZ-JKFIT

    Orbital Energies [Eh]
    ---------------------

    Doubly Occupied:

       1A    -20.644739     2A    -20.625064     3A    -20.581912
       4A    -20.576211     5A    -20.558493     6A    -11.416070
       7A    -11.401086     8A    -11.323662     9A    -11.270410
      10A     -1.491115    11A     -1.468883    12A     -1.398988
      13A     -1.374195    14A     -1.365102    15A     -1.082638
      16A     -0.972608    17A     -0.845712    18A     -0.812682
      19A     -0.759357    20A     -0.736520    21A     -0.713353
      22A     -0.701684    23A     -0.673416    24A     -0.651704
      25A     -0.648407    26A     -0.629087    27A     -0.597326
      28A     -0.588279    29A     -0.562026    30A     -0.549395
      31A     -0.511229    32A     -0.490866    33A     -0.485793
      34A     -0.467388    35A     -0.459466

  @DF-RHF Final Energy:  -529.52191658390950

   => Energetics <=

    Nuclear Repulsion Energy =            463.9339331240988145
    One-Electron Energy =               -1648.0419611135273499
    Two-Electron Energy =                 654.5861114055190910
    Total Energy =                       -529.5219165839095012
  Basis Set: (AUG-CC-PVTZ AUX)
    Blend: AUG-CC-PVTZ-RI
    Molecular point group: c1

    Geometry (in Angstrom), charge = 0, multiplicity = 1:

       Center              X                  Y                   Z               Mass
    ------------   -----------------  -----------------  -----------------  -----------------
         O            0.276250573284     1.615348473496     0.324131055366    15.994914619570
         O            2.189894573284    -1.421654526504     0.199840055366    15.994914619570
         O           -2.805652426716    -0.063891526504    -1.014935944634    15.994914619570
         O            2.651921573284     0.679796473496    -0.527343944634    15.994914619570
         O           -2.249056426716    -0.236969526504     1.175885055366    15.994914619570
         C            0.487528973284     0.229385273496     0.442034355366    12.000000000000
         C           -0.529047426716    -0.505297526504    -0.506568944634    12.000000000000
         C            1.884991573284    -0.124622526504    -0.020826944634    12.000000000000
         C           -1.926491426716    -0.249474526504     0.001392055366    12.000000000000
         H            0.311578573284    -0.108191526504     1.430639055366     1.007825032230
         H           -0.352437426716    -1.586979526504    -0.493764944634     1.007825032230
         H           -0.433308426716    -0.146214526504    -1.534550944634     1.007825032230
         H            1.025673573284     1.965748473496    -0.196892944634     1.007825032230
         H            3.108383573284    -1.546753526504    -0.119105944634     1.007825032230
         H           -3.676940426716     0.073896473496    -0.587363944634     1.007825032230

  Basis Set: AUG-CC-PVTZ
    Blend: AUG-CC-PVTZ
  Basis Set: (AUG-CC-PVTZ AUX)
    Blend: AUG-CC-PVTZ-JKFIT
	 Reference Energy          =    -529.5219165839095012 [Eh]
	 Singles Energy            =      -0.0000000000000000 [Eh]
	 Same-Spin Energy          =      -0.5051917289687038 [Eh]
	 Opposite-Spin Energy      =      -1.5058228948966983 [Eh]
	 Correlation Energy        =      -2.0110146238654023 [Eh]
	 Total Energy              =    -531.5329312077749364 [Eh]

	 ================> DF-SCS-MP2 Energies <==================
	-----------------------------------------------------------
	 SCS Same-Spin Scale       =       0.3333333333333333 [-]
	 SCS Opposite-Spin Scale   =       1.2000000000000000 [-]
	 SCS Same-Spin Energy      =      -0.1683972429895679 [Eh]
	 SCS Opposite-Spin Energy  =      -1.8069874738760379 [Eh]
	 SCS Correlation Energy    =      -1.9753847168656058 [Eh]
	 SCS Total Energy          =    -531.4973013007751206 [Eh]
	-----------------------------------------------------------

  Dipole Moment: [D]
     X:     0.8941      Y:    -2.1345      Z:    -1.5282     Total:     2.7732

*** Psi4 exiting successfully. Buy a developer a beer!
