                               Psi4 1.3.2 release

  ==> Input File <==

--------------------------------------------------------------------------
#psi4
#
memory 32 gb

molecule  {
0 1
  O        0.2778030     1.6259200     0.3386670
  O        2.1914470    -1.4110830     0.2143760
  O       -2.8041000    -0.0533200    -1.0004000
  O        2.6534740     0.6903680    -0.5128080
  O       -2.2475040    -0.2263980     1.1904210
  C        0.4723530     0.2278750     0.4110270
  C       -0.4816000    -0.2490969    -0.4842880
  C        1.8865440    -0.1140510    -0.0062910
  C       -1.9249390    -0.2389030     0.0159280
  H        0.3131310    -0.0976200     1.4451750
  H       -0.3508850    -1.5764080    -0.4792290
  H       -0.4317560    -0.1356430    -1.5200150
  H        1.0272260     1.9763200    -0.1823570
  H        3.1099360    -1.5361820    -0.1045700
  H       -3.6753880     0.0844680    -0.5728280
units angstrom
no_reorient  #important for SAPT in psi4, default
symmetry c1  #important for SAPT in psi4, default
}

set PROPERTIES_ORIGIN ["COM"]
properties('MP2/aug-cc-pvtz', properties = ['dipole'])
--------------------------------------------------------------------------

    Molecular point group: c1
  Charge       = 0
  Multiplicity = 1
  Basis Set: AUG-CC-PVTZ
    Blend: AUG-CC-PVTZ
  Basis Set: (AUG-CC-PVTZ AUX)
    Blend: AUG-CC-PVTZ-JKFIT

    Orbital Energies [Eh]
    ---------------------

    Doubly Occupied:

       1A    -20.646208     2A    -20.625942     3A    -20.585311
       4A    -20.571587     5A    -20.557519     6A    -11.419560
       7A    -11.405449     8A    -11.318437     9A    -11.281475
      10A     -1.493367    11A     -1.469386    12A     -1.402125
      13A     -1.377610    14A     -1.365090    15A     -1.106538
      16A     -0.970229    17A     -0.857800    18A     -0.808320
      19A     -0.766497    20A     -0.739419    21A     -0.715016
      22A     -0.710198    23A     -0.665593    24A     -0.663407
      25A     -0.644328    26A     -0.628598    27A     -0.624840
      28A     -0.587942    29A     -0.549067    30A     -0.519617
      31A     -0.511874    32A     -0.492357    33A     -0.487946
      34A     -0.464810    35A     -0.451388

  @DF-RHF Final Energy:  -529.47035266167688

   => Energetics <=

    Nuclear Repulsion Energy =            466.5283603579338774
    One-Electron Energy =               -1653.0277292429404952
    Two-Electron Energy =                 657.0290162233296769
    Total Energy =                       -529.4703526616768841
  Basis Set: (AUG-CC-PVTZ AUX)
    Blend: AUG-CC-PVTZ-RI
    Molecular point group: c1

    Geometry (in Angstrom), charge = 0, multiplicity = 1:

       Center              X                  Y                   Z               Mass
    ------------   -----------------  -----------------  -----------------  -----------------
         O            0.273639058421     1.594437148724     0.327515434150    15.994914619570
         O            2.187283058421    -1.442565851276     0.203224434150    15.994914619570
         O           -2.808263941579    -0.084802851276    -1.011551565850    15.994914619570
         O            2.649310058421     0.658885148724    -0.523959565850    15.994914619570
         O           -2.251667941579    -0.257880851276     1.179269434150    15.994914619570
         C            0.468189058421     0.196392148724     0.399875434150    12.000000000000
         C           -0.485763941579    -0.280579751276    -0.495439565850    12.000000000000
         C            1.882380058421    -0.145533851276    -0.017442565850    12.000000000000
         C           -1.929102941579    -0.270385851276     0.004776434150    12.000000000000
         H            0.308967058421    -0.129102851276     1.434023434150     1.007825032230
         H           -0.355048941579    -1.607890851276    -0.490380565850     1.007825032230
         H           -0.435919941579    -0.167125851276    -1.531166565850     1.007825032230
         H            1.023062058421     1.944837148724    -0.193508565850     1.007825032230
         H            3.105772058421    -1.567664851276    -0.115721565850     1.007825032230
         H           -3.679551941579     0.052985148724    -0.583979565850     1.007825032230

  Basis Set: AUG-CC-PVTZ
    Blend: AUG-CC-PVTZ
  Basis Set: (AUG-CC-PVTZ AUX)
    Blend: AUG-CC-PVTZ-JKFIT
	 Reference Energy          =    -529.4703526616768841 [Eh]
	 Singles Energy            =      -0.0000000000000000 [Eh]
	 Same-Spin Energy          =      -0.5078132739648273 [Eh]
	 Opposite-Spin Energy      =      -1.5101093123279155 [Eh]
	 Correlation Energy        =      -2.0179225862927428 [Eh]
	 Total Energy              =    -531.4882752479696819 [Eh]

	 ================> DF-SCS-MP2 Energies <==================
	-----------------------------------------------------------
	 SCS Same-Spin Scale       =       0.3333333333333333 [-]
	 SCS Opposite-Spin Scale   =       1.2000000000000000 [-]
	 SCS Same-Spin Energy      =      -0.1692710913216091 [Eh]
	 SCS Opposite-Spin Energy  =      -1.8121311747934985 [Eh]
	 SCS Correlation Energy    =      -1.9814022661151076 [Eh]
	 SCS Total Energy          =    -531.4517549277919670 [Eh]
	-----------------------------------------------------------

  Dipole Moment: [D]
     X:     1.0067      Y:    -2.0293      Z:    -1.6277     Total:     2.7895

*** Psi4 exiting successfully. Buy a developer a beer!
