                               Psi4 1.3.2 release

  ==> Input File <==

--------------------------------------------------------------------------
#psi4
#
memory 32 gb

molecule  {
0 1
  O        0.2778030     1.6259200     0.3386670
  O        2.1914470    -1.4110830     0.2143760
  O       -2.8041000    -0.0533200    -1.0004000
  O        2.6534740     0.6903680    -0.5128080
  O       -2.2475040    -0.2263980     1.1904210
  C        0.4723530     0.2278750     0.4110270
  C       -0.5183160    -0.4456002    -0.4904840
  C        1.8865440    -0.1140510    -0.0062910
  C       -1.9249390    -0.2389030     0.0159280
  H        0.3131310    -0.0976200     1.4451750
  H       -0.3508850    -1.5764080    -0.4792290
  H       -0.4317560    -0.1356430    -1.5200150
  H        1.0272260     1.9763200    -0.1823570
  H        3.1099360    -1.5361820    -0.1045700
  H       -3.6753880     0.0844680    -0.5728280
units angstrom
no_reorient  #important for SAPT in psi4, default
symmetry c1  #important for SAPT in psi4, default
}

set PROPERTIES_ORIGIN ["COM"]
properties('MP2/aug-cc-pvtz', properties = ['dipole'])
--------------------------------------------------------------------------

    Molecular point group: c1
  Charge       = 0
  Multiplicity = 1
  Basis Set: AUG-CC-PVTZ
    Blend: AUG-CC-PVTZ
  Basis Set: (AUG-CC-PVTZ AUX)
    Blend: AUG-CC-PVTZ-JKFIT

    Orbital Energies [Eh]
    ---------------------

    Doubly Occupied:

       1A    -20.645088     2A    -20.625758     3A    -20.582539
       4A    -20.574174     5A    -20.558954     6A    -11.416568
       7A    -11.402133     8A    -11.322371     9A    -11.271016
      10A     -1.491540    11A     -1.469560    12A     -1.398350
      13A     -1.373515    14A     -1.365401    15A     -1.092930
      16A     -0.971368    17A     -0.848192    18A     -0.809284
      19A     -0.760096    20A     -0.736844    21A     -0.713994
      22A     -0.704690    23A     -0.669219    24A     -0.654017
      25A     -0.646997    26A     -0.627521    27A     -0.604691
      28A     -0.590239    29A     -0.550467    30A     -0.547281
      31A     -0.511522    32A     -0.491014    33A     -0.484701
      34A     -0.471963    35A     -0.462187

  @DF-RHF Final Energy:  -529.52095697132529

   => Energetics <=

    Nuclear Repulsion Energy =            464.8099440039796946
    One-Electron Energy =               -1649.7694342861341283
    Two-Electron Energy =                 655.4385333108292571
    Total Energy =                       -529.5209569713252904
  Basis Set: (AUG-CC-PVTZ AUX)
    Blend: AUG-CC-PVTZ-RI
    Molecular point group: c1

    Geometry (in Angstrom), charge = 0, multiplicity = 1:

       Center              X                  Y                   Z               Mass
    ------------   -----------------  -----------------  -----------------  -----------------
         O            0.276926530382     1.612031633118     0.328070210713    15.994914619570
         O            2.190570530382    -1.424971366882     0.203779210713    15.994914619570
         O           -2.804976469618    -0.067208366882    -1.010996789287    15.994914619570
         O            2.652597530382     0.676479633118    -0.523404789287    15.994914619570
         O           -2.248380469618    -0.240286366882     1.179824210713    15.994914619570
         C            0.471476530382     0.213986633118     0.400430210713    12.000000000000
         C           -0.519192469618    -0.459488566882    -0.501080789287    12.000000000000
         C            1.885667530382    -0.127939366882    -0.016887789287    12.000000000000
         C           -1.925815469618    -0.252791366882     0.005331210713    12.000000000000
         H            0.312254530382    -0.111508366882     1.434578210713     1.007825032230
         H           -0.351761469618    -1.590296366882    -0.489825789287     1.007825032230
         H           -0.432632469618    -0.149531366882    -1.530611789287     1.007825032230
         H            1.026349530382     1.962431633118    -0.192953789287     1.007825032230
         H            3.109059530382    -1.550070366882    -0.115166789287     1.007825032230
         H           -3.676264469618     0.070579633118    -0.583424789287     1.007825032230

  Basis Set: AUG-CC-PVTZ
    Blend: AUG-CC-PVTZ
  Basis Set: (AUG-CC-PVTZ AUX)
    Blend: AUG-CC-PVTZ-JKFIT
	 Reference Energy          =    -529.5209569713252904 [Eh]
	 Singles Energy            =      -0.0000000000000000 [Eh]
	 Same-Spin Energy          =      -0.5056624296147801 [Eh]
	 Opposite-Spin Energy      =      -1.5063848035171234 [Eh]
	 Correlation Energy        =      -2.0120472331319035 [Eh]
	 Total Energy              =    -531.5330042044571428 [Eh]

	 ================> DF-SCS-MP2 Energies <==================
	-----------------------------------------------------------
	 SCS Same-Spin Scale       =       0.3333333333333333 [-]
	 SCS Opposite-Spin Scale   =       1.2000000000000000 [-]
	 SCS Same-Spin Energy      =      -0.1685541432049267 [Eh]
	 SCS Opposite-Spin Energy  =      -1.8076617642205481 [Eh]
	 SCS Correlation Energy    =      -1.9762159074254748 [Eh]
	 SCS Total Energy          =    -531.4971728787508027 [Eh]
	-----------------------------------------------------------

  Dipole Moment: [D]
     X:     0.8763      Y:    -2.1745      Z:    -1.6043     Total:     2.8408

*** Psi4 exiting successfully. Buy a developer a beer!
