                               Psi4 1.3.2 release

  ==> Input File <==

--------------------------------------------------------------------------
#psi4
#
memory 32 gb

molecule  {
0 1
  O        0.2778030     1.6259200     0.3386670
  O        2.1914470    -1.4110830     0.2143760
  O       -2.8041000    -0.0533200    -1.0004000
  O        2.6534740     0.6903680    -0.5128080
  O       -2.2475040    -0.2263980     1.1904210
  C        0.5058098     0.2520386     0.5021135
  C       -0.5274950    -0.4947260    -0.4920330
  C        1.8865440    -0.1140510    -0.0062910
  C       -1.9249390    -0.2389030     0.0159280
  H        0.3131310    -0.0976200     1.4451750
  H       -0.3508850    -1.5764080    -0.4792290
  H       -0.4317560    -0.1356430    -1.5200150
  H        1.0272260     1.9763200    -0.1823570
  H        3.1099360    -1.5361820    -0.1045700
  H       -3.6753880     0.0844680    -0.5728280
units angstrom
no_reorient  #important for SAPT in psi4, default
symmetry c1  #important for SAPT in psi4, default
}

set PROPERTIES_ORIGIN ["COM"]
properties('MP2/aug-cc-pvtz', properties = ['dipole'])
--------------------------------------------------------------------------

    Molecular point group: c1
  Charge       = 0
  Multiplicity = 1
  Basis Set: AUG-CC-PVTZ
    Blend: AUG-CC-PVTZ
  Basis Set: (AUG-CC-PVTZ AUX)
    Blend: AUG-CC-PVTZ-JKFIT

    Orbital Energies [Eh]
    ---------------------

    Doubly Occupied:

       1A    -20.644632     2A    -20.624387     3A    -20.581870
       4A    -20.577120     5A    -20.557646     6A    -11.416540
       7A    -11.400226     8A    -11.324117     9A    -11.270845
      10A     -1.491053    11A     -1.468155    12A     -1.399901
      13A     -1.375082    14A     -1.364538    15A     -1.076340
      16A     -0.973683    17A     -0.846311    18A     -0.813805
      19A     -0.759699    20A     -0.736959    21A     -0.712649
      22A     -0.701369    23A     -0.674667    24A     -0.651911
      25A     -0.648651    26A     -0.630741    27A     -0.595015
      28A     -0.586544    29A     -0.564780    30A     -0.550404
      31A     -0.511322    32A     -0.490414    33A     -0.487235
      34A     -0.464669    35A     -0.454526

  @DF-RHF Final Energy:  -529.51547194406726

   => Energetics <=

    Nuclear Repulsion Energy =            463.5072599383059924
    One-Electron Energy =               -1647.1898541822367861
    Two-Electron Energy =                 654.1671222998636495
    Total Energy =                       -529.5154719440672579
  Basis Set: (AUG-CC-PVTZ AUX)
    Blend: AUG-CC-PVTZ-RI
    Molecular point group: c1

    Geometry (in Angstrom), charge = 0, multiplicity = 1:

       Center              X                  Y                   Z               Mass
    ------------   -----------------  -----------------  -----------------  -----------------
         O            0.274752748195     1.614266695014     0.320053214833    15.994914619570
         O            2.188396748195    -1.422736304986     0.195762214833    15.994914619570
         O           -2.807150251805    -0.064973304986    -1.019013785167    15.994914619570
         O            2.650423748195     0.678714695014    -0.531421785167    15.994914619570
         O           -2.250554251805    -0.238051304986     1.171807214833    15.994914619570
         C            0.502759548195     0.240385295014     0.483499714833    12.000000000000
         C           -0.530545251805    -0.506379304986    -0.510646785167    12.000000000000
         C            1.883493748195    -0.125704304986    -0.024904785167    12.000000000000
         C           -1.927989251805    -0.250556304986    -0.002685785167    12.000000000000
         H            0.310080748195    -0.109273304986     1.426561214833     1.007825032230
         H           -0.353935251805    -1.588061304986    -0.497842785167     1.007825032230
         H           -0.434806251805    -0.147296304986    -1.538628785167     1.007825032230
         H            1.024175748195     1.964666695014    -0.200970785167     1.007825032230
         H            3.106885748195    -1.547835304986    -0.123183785167     1.007825032230
         H           -3.678438251805     0.072814695014    -0.591441785167     1.007825032230

  Basis Set: AUG-CC-PVTZ
    Blend: AUG-CC-PVTZ
  Basis Set: (AUG-CC-PVTZ AUX)
    Blend: AUG-CC-PVTZ-JKFIT
	 Reference Energy          =    -529.5154719440672579 [Eh]
	 Singles Energy            =      -0.0000000000000000 [Eh]
	 Same-Spin Energy          =      -0.5051026196365827 [Eh]
	 Opposite-Spin Energy      =      -1.5058229753804373 [Eh]
	 Correlation Energy        =      -2.0109255950170200 [Eh]
	 Total Energy              =    -531.5263975390843143 [Eh]

	 ================> DF-SCS-MP2 Energies <==================
	-----------------------------------------------------------
	 SCS Same-Spin Scale       =       0.3333333333333333 [-]
	 SCS Opposite-Spin Scale   =       1.2000000000000000 [-]
	 SCS Same-Spin Energy      =      -0.1683675398788609 [Eh]
	 SCS Opposite-Spin Energy  =      -1.8069875704565246 [Eh]
	 SCS Correlation Energy    =      -1.9753551103353855 [Eh]
	 SCS Total Energy          =    -531.4908270544026436 [Eh]
	-----------------------------------------------------------

  Dipole Moment: [D]
     X:     0.9352      Y:    -2.0840      Z:    -1.4703     Total:     2.7165

*** Psi4 exiting successfully. Buy a developer a beer!
