                               Psi4 1.3.2 release

  ==> Input File <==

--------------------------------------------------------------------------
#psi4
#
memory 32 gb

molecule  {
0 1
  O        0.2778030     1.6259200     0.3386670
  O        2.1914470    -1.4110830     0.2143760
  O       -2.8041000    -0.0533200    -1.0004000
  O        2.6534740     0.6903680    -0.5128080
  O       -2.2475040    -0.2263980     1.1904210
  C        0.5225383     0.2641205     0.5476568
  C       -0.5274950    -0.4947260    -0.4920330
  C        1.8865440    -0.1140510    -0.0062910
  C       -1.9249390    -0.2389030     0.0159280
  H        0.3131310    -0.0976200     1.4451750
  H       -0.3508850    -1.5764080    -0.4792290
  H       -0.4317560    -0.1356430    -1.5200150
  H        1.0272260     1.9763200    -0.1823570
  H        3.1099360    -1.5361820    -0.1045700
  H       -3.6753880     0.0844680    -0.5728280
units angstrom
no_reorient  #important for SAPT in psi4, default
symmetry c1  #important for SAPT in psi4, default
}

set PROPERTIES_ORIGIN ["COM"]
properties('MP2/aug-cc-pvtz', properties = ['dipole'])
--------------------------------------------------------------------------

    Molecular point group: c1
  Charge       = 0
  Multiplicity = 1
  Basis Set: AUG-CC-PVTZ
    Blend: AUG-CC-PVTZ
  Basis Set: (AUG-CC-PVTZ AUX)
    Blend: AUG-CC-PVTZ-JKFIT

    Orbital Energies [Eh]
    ---------------------

    Doubly Occupied:

       1A    -20.644472     2A    -20.623734     3A    -20.581796
       4A    -20.578247     5A    -20.556807     6A    -11.417360
       7A    -11.399414     8A    -11.325155     9A    -11.271130
      10A     -1.490939    11A     -1.467443    12A     -1.400631
      13A     -1.375757    14A     -1.363924    15A     -1.070898
      16A     -0.974726    17A     -0.848052    18A     -0.814298
      19A     -0.759941    20A     -0.737506    21A     -0.711942
      22A     -0.701927    23A     -0.676202    24A     -0.652427
      25A     -0.648596    26A     -0.632227    27A     -0.593230
      28A     -0.585254    29A     -0.566458    30A     -0.550795
      31A     -0.511423    32A     -0.490075    33A     -0.488066
      34A     -0.463093    35A     -0.447165

  @DF-RHF Final Energy:  -529.50428893958997

   => Energetics <=

    Nuclear Repulsion Energy =            463.0520053369701259
    One-Electron Energy =               -1646.2703680731704026
    Two-Electron Energy =                 653.7140737966103643
    Total Energy =                       -529.5042889395899692
  Basis Set: (AUG-CC-PVTZ AUX)
    Blend: AUG-CC-PVTZ-RI
    Molecular point group: c1

    Geometry (in Angstrom), charge = 0, multiplicity = 1:

       Center              X                  Y                   Z               Mass
    ------------   -----------------  -----------------  -----------------  -----------------
         O            0.273254914153     1.613184907578     0.315975365346    15.994914619570
         O            2.186898914153    -1.423818092422     0.191684365346    15.994914619570
         O           -2.808648085847    -0.066055092422    -1.023091634654    15.994914619570
         O            2.648925914153     0.677632907578    -0.535499634654    15.994914619570
         O           -2.252052085847    -0.239133092422     1.167729365346    15.994914619570
         C            0.517990214153     0.251385407578     0.524965165346    12.000000000000
         C           -0.532043085847    -0.507461092422    -0.514724634654    12.000000000000
         C            1.881995914153    -0.126786092422    -0.028982634654    12.000000000000
         C           -1.929487085847    -0.251638092422    -0.006763634654    12.000000000000
         H            0.308582914153    -0.110355092422     1.422483365346     1.007825032230
         H           -0.355433085847    -1.589143092422    -0.501920634654     1.007825032230
         H           -0.436304085847    -0.148378092422    -1.542706634654     1.007825032230
         H            1.022677914153     1.963584907578    -0.205048634654     1.007825032230
         H            3.105387914153    -1.548917092422    -0.127261634654     1.007825032230
         H           -3.679936085847     0.071732907578    -0.595519634654     1.007825032230

  Basis Set: AUG-CC-PVTZ
    Blend: AUG-CC-PVTZ
  Basis Set: (AUG-CC-PVTZ AUX)
    Blend: AUG-CC-PVTZ-JKFIT
	 Reference Energy          =    -529.5042889395899692 [Eh]
	 Singles Energy            =      -0.0000000000000000 [Eh]
	 Same-Spin Energy          =      -0.5051648673593082 [Eh]
	 Opposite-Spin Energy      =      -1.5061882813611496 [Eh]
	 Correlation Energy        =      -2.0113531487204579 [Eh]
	 Total Energy              =    -531.5156420883104147 [Eh]

	 ================> DF-SCS-MP2 Energies <==================
	-----------------------------------------------------------
	 SCS Same-Spin Scale       =       0.3333333333333333 [-]
	 SCS Opposite-Spin Scale   =       1.2000000000000000 [-]
	 SCS Same-Spin Energy      =      -0.1683882891197694 [Eh]
	 SCS Opposite-Spin Energy  =      -1.8074259376333794 [Eh]
	 SCS Correlation Energy    =      -1.9758142267531489 [Eh]
	 SCS Total Energy          =    -531.4801031663431559 [Eh]
	-----------------------------------------------------------

  Dipole Moment: [D]
     X:     0.9723      Y:    -2.0309      Z:    -1.4138     Total:     2.6587

*** Psi4 exiting successfully. Buy a developer a beer!
