                               Psi4 1.3.2 release

  ==> Input File <==

--------------------------------------------------------------------------
#psi4
#
memory 32 gb

molecule  {
0 1
  O        0.2778030     1.6259200     0.3386670
  O        2.1914470    -1.4110830     0.2143760
  O       -2.8041000    -0.0533200    -1.0004000
  O        2.6534740     0.6903680    -0.5128080
  O       -2.2475040    -0.2263980     1.1904210
  C        0.5392667     0.2762023     0.5932001
  C       -0.5274950    -0.4947260    -0.4920330
  C        1.8865440    -0.1140510    -0.0062910
  C       -1.9249390    -0.2389030     0.0159280
  H        0.3131310    -0.0976200     1.4451750
  H       -0.3508850    -1.5764080    -0.4792290
  H       -0.4317560    -0.1356430    -1.5200150
  H        1.0272260     1.9763200    -0.1823570
  H        3.1099360    -1.5361820    -0.1045700
  H       -3.6753880     0.0844680    -0.5728280
units angstrom
no_reorient  #important for SAPT in psi4, default
symmetry c1  #important for SAPT in psi4, default
}

set PROPERTIES_ORIGIN ["COM"]
properties('MP2/aug-cc-pvtz', properties = ['dipole'])
--------------------------------------------------------------------------

    Molecular point group: c1
  Charge       = 0
  Multiplicity = 1
  Basis Set: AUG-CC-PVTZ
    Blend: AUG-CC-PVTZ
  Basis Set: (AUG-CC-PVTZ AUX)
    Blend: AUG-CC-PVTZ-JKFIT

    Orbital Energies [Eh]
    ---------------------

    Doubly Occupied:

       1A    -20.644257     2A    -20.623110     3A    -20.581684
       4A    -20.579592     5A    -20.555983     6A    -11.418517
       7A    -11.398655     8A    -11.326791     9A    -11.271289
      10A     -1.490769    11A     -1.466755    12A     -1.401132
      13A     -1.376222    14A     -1.363291    15A     -1.066271
      16A     -0.975795    17A     -0.850796    18A     -0.814233
      19A     -0.760073    20A     -0.738167    21A     -0.711243
      22A     -0.703383    23A     -0.677733    24A     -0.653035
      25A     -0.648351    26A     -0.633326    27A     -0.591807
      28A     -0.584534    29A     -0.567080    30A     -0.550683
      31A     -0.511537    32A     -0.489953    33A     -0.488222
      34A     -0.462002    35A     -0.438398

  @DF-RHF Final Energy:  -529.48848109780340

   => Energetics <=

    Nuclear Repulsion Energy =            462.5669083048186394
    One-Electron Energy =               -1645.2814405601714043
    Two-Electron Energy =                 653.2260511575494775
    Total Energy =                       -529.4884810978034011
  Basis Set: (AUG-CC-PVTZ AUX)
    Blend: AUG-CC-PVTZ-RI
    Molecular point group: c1

    Geometry (in Angstrom), charge = 0, multiplicity = 1:

       Center              X                  Y                   Z               Mass
    ------------   -----------------  -----------------  -----------------  -----------------
         O            0.271757089064     1.612103129096     0.311897515859    15.994914619570
         O            2.185401089064    -1.424899870904     0.187606515859    15.994914619570
         O           -2.810145910936    -0.067136870904    -1.027169484141    15.994914619570
         O            2.647428089064     0.676551129096    -0.539577484141    15.994914619570
         O           -2.253549910936    -0.240214870904     1.163651515859    15.994914619570
         C            0.533220789064     0.262385429096     0.566430615859    12.000000000000
         C           -0.533540910936    -0.508542870904    -0.518802484141    12.000000000000
         C            1.880498089064    -0.127867870904    -0.033060484141    12.000000000000
         C           -1.930984910936    -0.252719870904    -0.010841484141    12.000000000000
         H            0.307085089064    -0.111436870904     1.418405515859     1.007825032230
         H           -0.356930910936    -1.590224870904    -0.505998484141     1.007825032230
         H           -0.437801910936    -0.149459870904    -1.546784484141     1.007825032230
         H            1.021180089064     1.962503129096    -0.209126484141     1.007825032230
         H            3.103890089064    -1.549998870904    -0.131339484141     1.007825032230
         H           -3.681433910936     0.070651129096    -0.599597484141     1.007825032230

  Basis Set: AUG-CC-PVTZ
    Blend: AUG-CC-PVTZ
  Basis Set: (AUG-CC-PVTZ AUX)
    Blend: AUG-CC-PVTZ-JKFIT
	 Reference Energy          =    -529.4884810978034011 [Eh]
	 Singles Energy            =      -0.0000000000000000 [Eh]
	 Same-Spin Energy          =      -0.5053717595999384 [Eh]
	 Opposite-Spin Energy      =      -1.5069171964662895 [Eh]
	 Correlation Energy        =      -2.0122889560662278 [Eh]
	 Total Energy              =    -531.5007700538695872 [Eh]

	 ================> DF-SCS-MP2 Energies <==================
	-----------------------------------------------------------
	 SCS Same-Spin Scale       =       0.3333333333333333 [-]
	 SCS Opposite-Spin Scale   =       1.2000000000000000 [-]
	 SCS Same-Spin Energy      =      -0.1684572531999795 [Eh]
	 SCS Opposite-Spin Energy  =      -1.8083006357595472 [Eh]
	 SCS Correlation Energy    =      -1.9767578889595268 [Eh]
	 SCS Total Energy          =    -531.4652389867629836 [Eh]
	-----------------------------------------------------------

  Dipole Moment: [D]
     X:     1.0046      Y:    -1.9757      Z:    -1.3591     Total:     2.5999

*** Psi4 exiting successfully. Buy a developer a beer!
