                               Psi4 1.3.2 release

  ==> Input File <==

--------------------------------------------------------------------------
#psi4
#
memory 32 gb

molecule  {
0 1
  O        0.2778030     1.6259200     0.3386670
  O        2.1914470    -1.4110830     0.2143760
  O       -2.8041000    -0.0533200    -1.0004000
  O        2.6534740     0.6903680    -0.5128080
  O       -2.2475040    -0.2263980     1.1904210
  C        0.4723530     0.2278750     0.4110270
  C       -0.4724210    -0.1999711    -0.4827389
  C        1.8865440    -0.1140510    -0.0062910
  C       -1.9249390    -0.2389030     0.0159280
  H        0.3131310    -0.0976200     1.4451750
  H       -0.3508850    -1.5764080    -0.4792290
  H       -0.4317560    -0.1356430    -1.5200150
  H        1.0272260     1.9763200    -0.1823570
  H        3.1099360    -1.5361820    -0.1045700
  H       -3.6753880     0.0844680    -0.5728280
units angstrom
no_reorient  #important for SAPT in psi4, default
symmetry c1  #important for SAPT in psi4, default
}

set PROPERTIES_ORIGIN ["COM"]
properties('MP2/aug-cc-pvtz', properties = ['dipole'])
--------------------------------------------------------------------------

    Molecular point group: c1
  Charge       = 0
  Multiplicity = 1
  Basis Set: AUG-CC-PVTZ
    Blend: AUG-CC-PVTZ
  Basis Set: (AUG-CC-PVTZ AUX)
    Blend: AUG-CC-PVTZ-JKFIT

    Orbital Energies [Eh]
    ---------------------

    Doubly Occupied:

       1A    -20.646500     2A    -20.625991     3A    -20.586112
       4A    -20.572115     5A    -20.557164     6A    -11.420470
       7A    -11.406823     8A    -11.317978     9A    -11.285594
      10A     -1.493908    11A     -1.469324    12A     -1.404022
      13A     -1.379397    14A     -1.365034    15A     -1.110154
      16A     -0.969675    17A     -0.860544    18A     -0.808971
      19A     -0.768436    20A     -0.740153    21A     -0.716332
      22A     -0.710668    23A     -0.667717    24A     -0.663978
      25A     -0.644368    26A     -0.630204    27A     -0.627255
      28A     -0.586844    29A     -0.549983    30A     -0.517759
      31A     -0.511038    32A     -0.493278    33A     -0.488893
      34A     -0.463188    35A     -0.441681

  @DF-RHF Final Energy:  -529.44991903820676

   => Energetics <=

    Nuclear Repulsion Energy =            466.9018063102494693
    One-Electron Energy =               -1653.7003498274273170
    Two-Electron Energy =                 657.3486244789711463
    Total Energy =                       -529.4499190382067582
  Basis Set: (AUG-CC-PVTZ AUX)
    Blend: AUG-CC-PVTZ-RI
    Molecular point group: c1

    Geometry (in Angstrom), charge = 0, multiplicity = 1:

       Center              X                  Y                   Z               Mass
    ------------   -----------------  -----------------  -----------------  -----------------
         O            0.272817190431     1.590038529864     0.327376731056    15.994914619570
         O            2.186461190431    -1.446964470136     0.203085731056    15.994914619570
         O           -2.809085809569    -0.089201470136    -1.011690268944    15.994914619570
         O            2.648488190431     0.654486529864    -0.524098268944    15.994914619570
         O           -2.252489809569    -0.262279470136     1.179130731056    15.994914619570
         C            0.467367190431     0.191993529864     0.399736731056    12.000000000000
         C           -0.477406809569    -0.235852570136    -0.494029168944    12.000000000000
         C            1.881558190431    -0.149932470136    -0.017581268944    12.000000000000
         C           -1.929924809569    -0.274784470136     0.004637731056    12.000000000000
         H            0.308145190431    -0.133501470136     1.433884731056     1.007825032230
         H           -0.355870809569    -1.612289470136    -0.490519268944     1.007825032230
         H           -0.436741809569    -0.171524470136    -1.531305268944     1.007825032230
         H            1.022240190431     1.940438529864    -0.193647268944     1.007825032230
         H            3.104950190431    -1.572063470136    -0.115860268944     1.007825032230
         H           -3.680373809569     0.048586529864    -0.584118268944     1.007825032230

  Basis Set: AUG-CC-PVTZ
    Blend: AUG-CC-PVTZ
  Basis Set: (AUG-CC-PVTZ AUX)
    Blend: AUG-CC-PVTZ-JKFIT
	 Reference Energy          =    -529.4499190382067582 [Eh]
	 Singles Energy            =      -0.0000000000000000 [Eh]
	 Same-Spin Energy          =      -0.5086798226857393 [Eh]
	 Opposite-Spin Energy      =      -1.5117648042559861 [Eh]
	 Correlation Energy        =      -2.0204446269417256 [Eh]
	 Total Energy              =    -531.4703636651485112 [Eh]

	 ================> DF-SCS-MP2 Energies <==================
	-----------------------------------------------------------
	 SCS Same-Spin Scale       =       0.3333333333333333 [-]
	 SCS Opposite-Spin Scale   =       1.2000000000000000 [-]
	 SCS Same-Spin Energy      =      -0.1695599408952464 [Eh]
	 SCS Opposite-Spin Energy  =      -1.8141177651071834 [Eh]
	 SCS Correlation Energy    =      -1.9836777060024298 [Eh]
	 SCS Total Energy          =    -531.4335967442092397 [Eh]
	-----------------------------------------------------------

  Dipole Moment: [D]
     X:     1.0508      Y:    -1.9539      Z:    -1.6200     Total:     2.7470

*** Psi4 exiting successfully. Buy a developer a beer!
