                               Psi4 1.3.2 release

  ==> Input File <==

--------------------------------------------------------------------------
#psi4
#
memory 32 gb

molecule  {
0 1
  O        0.2778030     1.6259200     0.3386670
  O        2.1914470    -1.4110830     0.2143760
  O       -2.8041000    -0.0533200    -1.0004000
  O        2.6534740     0.6903680    -0.5128080
  O       -2.2475040    -0.2263980     1.1904210
  C        0.4723530     0.2278750     0.4110270
  C       -0.4907790    -0.2982227    -0.4858370
  C        1.8865440    -0.1140510    -0.0062910
  C       -1.9249390    -0.2389030     0.0159280
  H        0.3131310    -0.0976200     1.4451750
  H       -0.3508850    -1.5764080    -0.4792290
  H       -0.4317560    -0.1356430    -1.5200150
  H        1.0272260     1.9763200    -0.1823570
  H        3.1099360    -1.5361820    -0.1045700
  H       -3.6753880     0.0844680    -0.5728280
units angstrom
no_reorient  #important for SAPT in psi4, default
symmetry c1  #important for SAPT in psi4, default
}

set PROPERTIES_ORIGIN ["COM"]
properties('MP2/aug-cc-pvtz', properties = ['dipole'])
--------------------------------------------------------------------------

    Molecular point group: c1
  Charge       = 0
  Multiplicity = 1
  Basis Set: AUG-CC-PVTZ
    Blend: AUG-CC-PVTZ
  Basis Set: (AUG-CC-PVTZ AUX)
    Blend: AUG-CC-PVTZ-JKFIT

    Orbital Energies [Eh]
    ---------------------

    Doubly Occupied:

       1A    -20.645926     2A    -20.625882     3A    -20.584562
       4A    -20.571651     5A    -20.557868     6A    -11.418721
       7A    -11.404262     8A    -11.319131     9A    -11.277969
      10A     -1.492869    11A     -1.469430    12A     -1.400727
      13A     -1.376141    14A     -1.365138    15A     -1.102989
      16A     -0.970670    17A     -0.855171    18A     -0.807933
      19A     -0.764680    20A     -0.738753    21A     -0.714315
      22A     -0.709256    23A     -0.665077    24A     -0.661449
      25A     -0.644633    26A     -0.628012    27A     -0.620664
      28A     -0.588832    29A     -0.548443    30A     -0.524206
      31A     -0.512262    32A     -0.491587    33A     -0.487052
      34A     -0.467144    35A     -0.457862

  @DF-RHF Final Energy:  -529.48809151556543

   => Energetics <=

    Nuclear Repulsion Energy =            466.1308011771776592
    One-Electron Energy =               -1652.2952542450398141
    Two-Electron Energy =                 656.6763615522968394
    Total Energy =                       -529.4880915155654293
  Basis Set: (AUG-CC-PVTZ AUX)
    Blend: AUG-CC-PVTZ-RI
    Molecular point group: c1

    Geometry (in Angstrom), charge = 0, multiplicity = 1:

       Center              X                  Y                   Z               Mass
    ------------   -----------------  -----------------  -----------------  -----------------
         O            0.274460926411     1.598835767584     0.327654128291    15.994914619570
         O            2.188104926411    -1.438167232416     0.203363128291    15.994914619570
         O           -2.807442073589    -0.080404232416    -1.011412871709    15.994914619570
         O            2.650131926411     0.663283767584    -0.523820871709    15.994914619570
         O           -2.250846073589    -0.253482232416     1.179408128291    15.994914619570
         C            0.469010926411     0.200790767584     0.400014128291    12.000000000000
         C           -0.494121073589    -0.325306932416    -0.496849871709    12.000000000000
         C            1.883201926411    -0.141135232416    -0.017303871709    12.000000000000
         C           -1.928281073589    -0.265987232416     0.004915128291    12.000000000000
         H            0.309788926411    -0.124704232416     1.434162128291     1.007825032230
         H           -0.354227073589    -1.603492232416    -0.490241871709     1.007825032230
         H           -0.435098073589    -0.162727232416    -1.531027871709     1.007825032230
         H            1.023883926411     1.949235767584    -0.193369871709     1.007825032230
         H            3.106593926411    -1.563266232416    -0.115582871709     1.007825032230
         H           -3.678730073589     0.057383767584    -0.583840871709     1.007825032230

  Basis Set: AUG-CC-PVTZ
    Blend: AUG-CC-PVTZ
  Basis Set: (AUG-CC-PVTZ AUX)
    Blend: AUG-CC-PVTZ-JKFIT
	 Reference Energy          =    -529.4880915155654293 [Eh]
	 Singles Energy            =      -0.0000000000000000 [Eh]
	 Same-Spin Energy          =      -0.5070812238614695 [Eh]
	 Opposite-Spin Energy      =      -1.5087436037128339 [Eh]
	 Correlation Energy        =      -2.0158248275743036 [Eh]
	 Total Energy              =    -531.5039163431397355 [Eh]

	 ================> DF-SCS-MP2 Energies <==================
	-----------------------------------------------------------
	 SCS Same-Spin Scale       =       0.3333333333333333 [-]
	 SCS Opposite-Spin Scale   =       1.2000000000000000 [-]
	 SCS Same-Spin Energy      =      -0.1690270746204898 [Eh]
	 SCS Opposite-Spin Energy  =      -1.8104923244554005 [Eh]
	 SCS Correlation Energy    =      -1.9795193990758904 [Eh]
	 SCS Total Energy          =    -531.4676109146413410 [Eh]
	-----------------------------------------------------------

  Dipole Moment: [D]
     X:     0.9686      Y:    -2.0865      Z:    -1.6293     Total:     2.8189

*** Psi4 exiting successfully. Buy a developer a beer!
