                               Psi4 1.3.2 release

  ==> Input File <==

--------------------------------------------------------------------------
#psi4
#
memory 32 gb

molecule  {
0 1
  O        0.2778030     1.6259200     0.3386670
  O        2.1914470    -1.4110830     0.2143760
  O       -2.8041000    -0.0533200    -1.0004000
  O        2.6534740     0.6903680    -0.5128080
  O       -2.2475040    -0.2263980     1.1904210
  C        0.4723530     0.2278750     0.4110270
  C       -0.5091370    -0.3964744    -0.4889350
  C        1.8865440    -0.1140510    -0.0062910
  C       -1.9249390    -0.2389030     0.0159280
  H        0.3131310    -0.0976200     1.4451750
  H       -0.3508850    -1.5764080    -0.4792290
  H       -0.4317560    -0.1356430    -1.5200150
  H        1.0272260     1.9763200    -0.1823570
  H        3.1099360    -1.5361820    -0.1045700
  H       -3.6753880     0.0844680    -0.5728280
units angstrom
no_reorient  #important for SAPT in psi4, default
symmetry c1  #important for SAPT in psi4, default
}

set PROPERTIES_ORIGIN ["COM"]
properties('MP2/aug-cc-pvtz', properties = ['dipole'])
--------------------------------------------------------------------------

    Molecular point group: c1
  Charge       = 0
  Multiplicity = 1
  Basis Set: AUG-CC-PVTZ
    Blend: AUG-CC-PVTZ
  Basis Set: (AUG-CC-PVTZ AUX)
    Blend: AUG-CC-PVTZ-JKFIT

    Orbital Energies [Eh]
    ---------------------

    Doubly Occupied:

       1A    -20.645371     2A    -20.625780     3A    -20.583182
       4A    -20.573040     5A    -20.558579     6A    -11.417230
       7A    -11.402575     8A    -11.321122     9A    -11.272759
      10A     -1.491964    11A     -1.469509    12A     -1.398916
      13A     -1.374126    14A     -1.365281    15A     -1.096166
      16A     -0.971226    17A     -0.850349    18A     -0.808301
      19A     -0.761455    20A     -0.737487    21A     -0.713979
      22A     -0.706410    23A     -0.667007    24A     -0.656357
      25A     -0.646057    26A     -0.627566    27A     -0.610109
      28A     -0.589958    29A     -0.547933    30A     -0.540432
      31A     -0.511894    32A     -0.490892    33A     -0.485434
      34A     -0.471775    35A     -0.461934

  @DF-RHF Final Energy:  -529.51384977272926

   => Energetics <=

    Nuclear Repulsion Energy =            465.2697156970642141
    One-Electron Energy =               -1650.6628176054982760
    Two-Electron Energy =                 655.8792521357048599
    Total Energy =                       -529.5138497727292588
  Basis Set: (AUG-CC-PVTZ AUX)
    Blend: AUG-CC-PVTZ-RI
    Molecular point group: c1

    Geometry (in Angstrom), charge = 0, multiplicity = 1:

       Center              X                  Y                   Z               Mass
    ------------   -----------------  -----------------  -----------------  -----------------
         O            0.276104662392     1.607633014258     0.327931516572    15.994914619570
         O            2.189748662392    -1.429369985742     0.203640516572    15.994914619570
         O           -2.805798337608    -0.071606985742    -1.011135483428    15.994914619570
         O            2.651775662392     0.672081014258    -0.523543483428    15.994914619570
         O           -2.249202337608    -0.244684985742     1.179685516572    15.994914619570
         C            0.470654662392     0.209588014258     0.400291516572    12.000000000000
         C           -0.510835337608    -0.414761385742    -0.499670483428    12.000000000000
         C            1.884845662392    -0.132337985742    -0.017026483428    12.000000000000
         C           -1.926637337608    -0.257189985742     0.005192516572    12.000000000000
         H            0.311432662392    -0.115906985742     1.434439516572     1.007825032230
         H           -0.352583337608    -1.594694985742    -0.489964483428     1.007825032230
         H           -0.433454337608    -0.153929985742    -1.530750483428     1.007825032230
         H            1.025527662392     1.958033014258    -0.193092483428     1.007825032230
         H            3.108237662392    -1.554468985742    -0.115305483428     1.007825032230
         H           -3.677086337608     0.066181014258    -0.583563483428     1.007825032230

  Basis Set: AUG-CC-PVTZ
    Blend: AUG-CC-PVTZ
  Basis Set: (AUG-CC-PVTZ AUX)
    Blend: AUG-CC-PVTZ-JKFIT
	 Reference Energy          =    -529.5138497727292588 [Eh]
	 Singles Energy            =      -0.0000000000000000 [Eh]
	 Same-Spin Energy          =      -0.5060089517344968 [Eh]
	 Opposite-Spin Energy      =      -1.5068792933176913 [Eh]
	 Correlation Energy        =      -2.0128882450521881 [Eh]
	 Total Energy              =    -531.5267380177814402 [Eh]

	 ================> DF-SCS-MP2 Energies <==================
	-----------------------------------------------------------
	 SCS Same-Spin Scale       =       0.3333333333333333 [-]
	 SCS Opposite-Spin Scale   =       1.2000000000000000 [-]
	 SCS Same-Spin Energy      =      -0.1686696505781656 [Eh]
	 SCS Opposite-Spin Energy  =      -1.8082551519812295 [Eh]
	 SCS Correlation Energy    =      -1.9769248025593951 [Eh]
	 SCS Total Energy          =    -531.4907745752886967 [Eh]
	-----------------------------------------------------------

  Dipole Moment: [D]
     X:     0.9045      Y:    -2.1569      Z:    -1.6171     Total:     2.8435

*** Psi4 exiting successfully. Buy a developer a beer!
