                               Psi4 1.3.2 release

  ==> Input File <==

--------------------------------------------------------------------------
#psi4
#
memory 32 gb

molecule  {
0 1
  O        0.2778030     1.6259200     0.3386670
  O        2.1914470    -1.4110830     0.2143760
  O       -2.8041000    -0.0533200    -1.0004000
  O        2.6534740     0.6903680    -0.5128080
  O       -2.2475040    -0.2263980     1.1904210
  C        0.4723530     0.2278750     0.4110270
  C       -0.5274950    -0.4947260    -0.4920330
  C        1.8865440    -0.1140510    -0.0062910
  C       -1.9249390    -0.2389030     0.0159280
  H        0.3131310    -0.0976200     1.4451750
  H       -0.3508850    -1.5764080    -0.4792290
  H       -0.4317560    -0.1356430    -1.5200150
  H        1.0272260     1.9763200    -0.1823570
  H        3.1099360    -1.5361820    -0.1045700
  H       -3.6753880     0.0844680    -0.5728280
units angstrom
no_reorient  #important for SAPT in psi4, default
symmetry c1  #important for SAPT in psi4, default
}

set PROPERTIES_ORIGIN ["COM"]
properties('MP2/aug-cc-pvtz', properties = ['dipole'])
--------------------------------------------------------------------------

    Molecular point group: c1
  Charge       = 0
  Multiplicity = 1
  Basis Set: AUG-CC-PVTZ
    Blend: AUG-CC-PVTZ
  Basis Set: (AUG-CC-PVTZ AUX)
    Blend: AUG-CC-PVTZ-JKFIT

    Orbital Energies [Eh]
    ---------------------

    Doubly Occupied:

       1A    -20.644796     2A    -20.625766     3A    -20.581923
       4A    -20.575509     5A    -20.559349     6A    -11.415956
       7A    -11.401994     8A    -11.323761     9A    -11.269815
      10A     -1.491128    11A     -1.469629    12A     -1.397949
      13A     -1.373115    14A     -1.365563    15A     -1.089845
      16A     -0.971448    17A     -0.846231    18A     -0.810981
      19A     -0.758939    20A     -0.736181    21A     -0.714049
      22A     -0.702779    23A     -0.672577    24A     -0.651876
      25A     -0.647909    26A     -0.627598    27A     -0.600283
      28A     -0.590180    29A     -0.558514    30A     -0.547609
      31A     -0.511121    32A     -0.491337    33A     -0.484012
      34A     -0.470834    35A     -0.461846

  @DF-RHF Final Energy:  -529.52350821113328

   => Energetics <=

    Nuclear Repulsion Energy =            464.3335593137502997
    One-Electron Energy =               -1648.8293298134060478
    Two-Electron Energy =                 654.9722622885224155
    Total Energy =                       -529.5235082111332758
  Basis Set: (AUG-CC-PVTZ AUX)
    Blend: AUG-CC-PVTZ-RI
    Molecular point group: c1

    Geometry (in Angstrom), charge = 0, multiplicity = 1:

       Center              X                  Y                   Z               Mass
    ------------   -----------------  -----------------  -----------------  -----------------
         O            0.277748398372     1.616430251978     0.328208904853    15.994914619570
         O            2.191392398372    -1.420572748022     0.203917904853    15.994914619570
         O           -2.804154601628    -0.062809748022    -1.010858095147    15.994914619570
         O            2.653419398372     0.680878251978    -0.523266095147    15.994914619570
         O           -2.247558601628    -0.235887748022     1.179962904853    15.994914619570
         C            0.472298398372     0.218385251978     0.400568904853    12.000000000000
         C           -0.527549601628    -0.504215748022    -0.502491095147    12.000000000000
         C            1.886489398372    -0.123540748022    -0.016749095147    12.000000000000
         C           -1.924993601628    -0.248392748022     0.005469904853    12.000000000000
         H            0.313076398372    -0.107109748022     1.434716904853     1.007825032230
         H           -0.350939601628    -1.585897748022    -0.489687095147     1.007825032230
         H           -0.431810601628    -0.145132748022    -1.530473095147     1.007825032230
         H            1.027171398372     1.966830251978    -0.192815095147     1.007825032230
         H            3.109881398372    -1.545671748022    -0.115028095147     1.007825032230
         H           -3.675442601628     0.074978251978    -0.583286095147     1.007825032230

  Basis Set: AUG-CC-PVTZ
    Blend: AUG-CC-PVTZ
  Basis Set: (AUG-CC-PVTZ AUX)
    Blend: AUG-CC-PVTZ-JKFIT
	 Reference Energy          =    -529.5235082111332758 [Eh]
	 Singles Energy            =      -0.0000000000000000 [Eh]
	 Same-Spin Energy          =      -0.5054395389073960 [Eh]
	 Opposite-Spin Energy      =      -1.5061879762897479 [Eh]
	 Correlation Energy        =      -2.0116275151971439 [Eh]
	 Total Energy              =    -531.5351357263303953 [Eh]

	 ================> DF-SCS-MP2 Energies <==================
	-----------------------------------------------------------
	 SCS Same-Spin Scale       =       0.3333333333333333 [-]
	 SCS Opposite-Spin Scale   =       1.2000000000000000 [-]
	 SCS Same-Spin Energy      =      -0.1684798463024653 [Eh]
	 SCS Opposite-Spin Energy  =      -1.8074255715476975 [Eh]
	 SCS Correlation Energy    =      -1.9759054178501627 [Eh]
	 SCS Total Energy          =    -531.4994136289834614 [Eh]
	-----------------------------------------------------------

  Dipole Moment: [D]
     X:     0.8496      Y:    -2.1824      Z:    -1.5873     Total:     2.8292

*** Psi4 exiting successfully. Buy a developer a beer!
