                               Psi4 1.3.2 release

  ==> Input File <==

--------------------------------------------------------------------------
#psi4
#
memory 32 gb

molecule  {
0 1
  O        0.2778030     1.6259200     0.3386670
  O        2.1914470    -1.4110830     0.2143760
  O       -2.8041000    -0.0533200    -1.0004000
  O        2.6534740     0.6903680    -0.5128080
  O       -2.2475040    -0.2263980     1.1904210
  C        0.5559951     0.2882841     0.6387434
  C       -0.5274950    -0.4947260    -0.4920330
  C        1.8865440    -0.1140510    -0.0062910
  C       -1.9249390    -0.2389030     0.0159280
  H        0.3131310    -0.0976200     1.4451750
  H       -0.3508850    -1.5764080    -0.4792290
  H       -0.4317560    -0.1356430    -1.5200150
  H        1.0272260     1.9763200    -0.1823570
  H        3.1099360    -1.5361820    -0.1045700
  H       -3.6753880     0.0844680    -0.5728280
units angstrom
no_reorient  #important for SAPT in psi4, default
symmetry c1  #important for SAPT in psi4, default
}

set PROPERTIES_ORIGIN ["COM"]
properties('MP2/aug-cc-pvtz', properties = ['dipole'])
--------------------------------------------------------------------------

    Molecular point group: c1
  Charge       = 0
  Multiplicity = 1
  Basis Set: AUG-CC-PVTZ
    Blend: AUG-CC-PVTZ
  Basis Set: (AUG-CC-PVTZ AUX)
    Blend: AUG-CC-PVTZ-JKFIT

    Orbital Energies [Eh]
    ---------------------

    Doubly Occupied:

       1A    -20.643983     2A    -20.622528     3A    -20.581529
       4A    -20.581141     5A    -20.555187     6A    -11.419982
       7A    -11.397960     8A    -11.329015     9A    -11.271367
      10A     -1.490538    11A     -1.466102    12A     -1.401362
      13A     -1.376479    14A     -1.362662    15A     -1.062437
      16A     -0.976949    17A     -0.854275    18A     -0.813763
      19A     -0.760090    20A     -0.738921    21A     -0.710567
      22A     -0.705560    23A     -0.678976    24A     -0.653588
      25A     -0.648006    26A     -0.633972    27A     -0.590631
      28A     -0.584291    29A     -0.566900    30A     -0.550157
      31A     -0.511658    32A     -0.489885    33A     -0.487933
      34A     -0.461115    35A     -0.428830

  @DF-RHF Final Energy:  -529.46819138968067

   => Energetics <=

    Nuclear Repulsion Energy =            462.0509491323621774
    One-Electron Energy =               -1644.2216020065179691
    Two-Electron Energy =                 652.7024614844751795
    Total Energy =                       -529.4681913896806691
  Basis Set: (AUG-CC-PVTZ AUX)
    Blend: AUG-CC-PVTZ-RI
    Molecular point group: c1

    Geometry (in Angstrom), charge = 0, multiplicity = 1:

       Center              X                  Y                   Z               Mass
    ------------   -----------------  -----------------  -----------------  -----------------
         O            0.270259263976     1.611021350615     0.307819666372    15.994914619570
         O            2.183903263976    -1.425981649385     0.183528666372    15.994914619570
         O           -2.811643736024    -0.068218649385    -1.031247333628    15.994914619570
         O            2.645930263976     0.675469350615    -0.543655333628    15.994914619570
         O           -2.255047736024    -0.241296649385     1.159573666372    15.994914619570
         C            0.548451363976     0.273385450615     0.607896066372    12.000000000000
         C           -0.535038736024    -0.509624649385    -0.522880333628    12.000000000000
         C            1.879000263976    -0.128949649385    -0.037138333628    12.000000000000
         C           -1.932482736024    -0.253801649385    -0.014919333628    12.000000000000
         H            0.305587263976    -0.112518649385     1.414327666372     1.007825032230
         H           -0.358428736024    -1.591306649385    -0.510076333628     1.007825032230
         H           -0.439299736024    -0.150541649385    -1.550862333628     1.007825032230
         H            1.019682263976     1.961421350615    -0.213204333628     1.007825032230
         H            3.102392263976    -1.551080649385    -0.135417333628     1.007825032230
         H           -3.682931736024     0.069569350615    -0.603675333628     1.007825032230

  Basis Set: AUG-CC-PVTZ
    Blend: AUG-CC-PVTZ
  Basis Set: (AUG-CC-PVTZ AUX)
    Blend: AUG-CC-PVTZ-JKFIT
	 Reference Energy          =    -529.4681913896806691 [Eh]
	 Singles Energy            =      -0.0000000000000000 [Eh]
	 Same-Spin Energy          =      -0.5057170170029364 [Eh]
	 Opposite-Spin Energy      =      -1.5080046810338392 [Eh]
	 Correlation Energy        =      -2.0137216980367754 [Eh]
	 Total Energy              =    -531.4819130877174302 [Eh]

	 ================> DF-SCS-MP2 Energies <==================
	-----------------------------------------------------------
	 SCS Same-Spin Scale       =       0.3333333333333333 [-]
	 SCS Opposite-Spin Scale   =       1.2000000000000000 [-]
	 SCS Same-Spin Energy      =      -0.1685723390009788 [Eh]
	 SCS Opposite-Spin Energy  =      -1.8096056172406070 [Eh]
	 SCS Correlation Energy    =      -1.9781779562415858 [Eh]
	 SCS Total Energy          =    -531.4463693459222213 [Eh]
	-----------------------------------------------------------

  Dipole Moment: [D]
     X:     1.0304      Y:    -1.9192      Z:    -1.3070     Total:     2.5403

*** Psi4 exiting successfully. Buy a developer a beer!
