                               Psi4 1.3.2 release

  ==> Input File <==

--------------------------------------------------------------------------
#psi4
#
memory 32 gb

molecule  {
0 1
  O        0.2778030     1.6259200     0.3386670
  O        2.1914470    -1.4110830     0.2143760
  O       -2.8041000    -0.0533200    -1.0004000
  O        2.6534740     0.6903680    -0.5128080
  O       -2.2475040    -0.2263980     1.1904210
  C        0.5727235     0.3003659     0.6842866
  C       -0.5274950    -0.4947260    -0.4920330
  C        1.8865440    -0.1140510    -0.0062910
  C       -1.9249390    -0.2389030     0.0159280
  H        0.3131310    -0.0976200     1.4451750
  H       -0.3508850    -1.5764080    -0.4792290
  H       -0.4317560    -0.1356430    -1.5200150
  H        1.0272260     1.9763200    -0.1823570
  H        3.1099360    -1.5361820    -0.1045700
  H       -3.6753880     0.0844680    -0.5728280
units angstrom
no_reorient  #important for SAPT in psi4, default
symmetry c1  #important for SAPT in psi4, default
}

set PROPERTIES_ORIGIN ["COM"]
properties('MP2/aug-cc-pvtz', properties = ['dipole'])
--------------------------------------------------------------------------

    Molecular point group: c1
  Charge       = 0
  Multiplicity = 1
  Basis Set: AUG-CC-PVTZ
    Blend: AUG-CC-PVTZ
  Basis Set: (AUG-CC-PVTZ AUX)
    Blend: AUG-CC-PVTZ-JKFIT

    Orbital Energies [Eh]
    ---------------------

    Doubly Occupied:

       1A    -20.643644     2A    -20.622005     3A    -20.582860
       4A    -20.581320     5A    -20.554440     6A    -11.421720
       7A    -11.397349     8A    -11.331791     9A    -11.271428
      10A     -1.490237    11A     -1.465503    12A     -1.401289
      13A     -1.376525    14A     -1.362062    15A     -1.059383
      16A     -0.978240    17A     -0.858155    18A     -0.813054
      19A     -0.759993    20A     -0.739706    21A     -0.709947
      22A     -0.708051    23A     -0.679824    24A     -0.654038
      25A     -0.647611    26A     -0.634197    27A     -0.589637
      28A     -0.584332    29A     -0.566218    30A     -0.549293
      31A     -0.511769    32A     -0.489624    33A     -0.487499
      34A     -0.460355    35A     -0.418848

  @DF-RHF Final Energy:  -529.44362843018780

   => Energetics <=

    Nuclear Repulsion Energy =            461.5033079031582020
    One-Electron Energy =               -1643.0899766304357854
    Two-Electron Energy =                 652.1430402970897831
    Total Energy =                       -529.4436284301878004
  Basis Set: (AUG-CC-PVTZ AUX)
    Blend: AUG-CC-PVTZ-RI
    Molecular point group: c1

    Geometry (in Angstrom), charge = 0, multiplicity = 1:

       Center              X                  Y                   Z               Mass
    ------------   -----------------  -----------------  -----------------  -----------------
         O            0.268761438887     1.609939572133     0.303741825839    15.994914619570
         O            2.182405438887    -1.427063427867     0.179450825839    15.994914619570
         O           -2.813141561113    -0.069300427867    -1.035325174161    15.994914619570
         O            2.644432438887     0.674387572133    -0.547733174161    15.994914619570
         O           -2.256545561113    -0.242378427867     1.155495825839    15.994914619570
         C            0.563681938887     0.284385472133     0.649361425839    12.000000000000
         C           -0.536536561113    -0.510706427867    -0.526958174161    12.000000000000
         C            1.877502438887    -0.130031427867    -0.041216174161    12.000000000000
         C           -1.933980561113    -0.254883427867    -0.018997174161    12.000000000000
         H            0.304089438887    -0.113600427867     1.410249825839     1.007825032230
         H           -0.359926561113    -1.592388427867    -0.514154174161     1.007825032230
         H           -0.440797561113    -0.151623427867    -1.554940174161     1.007825032230
         H            1.018184438887     1.960339572133    -0.217282174161     1.007825032230
         H            3.100894438887    -1.552162427867    -0.139495174161     1.007825032230
         H           -3.684429561113     0.068487572133    -0.607753174161     1.007825032230

  Basis Set: AUG-CC-PVTZ
    Blend: AUG-CC-PVTZ
  Basis Set: (AUG-CC-PVTZ AUX)
    Blend: AUG-CC-PVTZ-JKFIT
	 Reference Energy          =    -529.4436284301878004 [Eh]
	 Singles Energy            =      -0.0000000000000000 [Eh]
	 Same-Spin Energy          =      -0.5061947365000801 [Eh]
	 Opposite-Spin Energy      =      -1.5094425270232001 [Eh]
	 Correlation Energy        =      -2.0156372635232804 [Eh]
	 Total Energy              =    -531.4592656937111315 [Eh]

	 ================> DF-SCS-MP2 Energies <==================
	-----------------------------------------------------------
	 SCS Same-Spin Scale       =       0.3333333333333333 [-]
	 SCS Opposite-Spin Scale   =       1.2000000000000000 [-]
	 SCS Same-Spin Energy      =      -0.1687315788333600 [Eh]
	 SCS Opposite-Spin Energy  =      -1.8113310324278400 [Eh]
	 SCS Correlation Energy    =      -1.9800626112612001 [Eh]
	 SCS Total Energy          =    -531.4236910414490467 [Eh]
	-----------------------------------------------------------

  Dipole Moment: [D]
     X:     1.0475      Y:    -1.8629      Z:    -1.2589     Total:     2.4804

*** Psi4 exiting successfully. Buy a developer a beer!
