                               Psi4 1.3.2 release

  ==> Input File <==

--------------------------------------------------------------------------
#psi4
#
memory 32 gb

molecule  {
1 1
  N       -0.1404670     1.3625770     0.0888070
  C        0.0078560    -0.0677350    -0.3872370
  C       -1.2043101    -0.8686171     0.0519674
  C        1.3401060    -0.6058050     0.1026400
  H       -0.0308611    -0.0179790    -1.4776133
  H       -1.0129100     1.7863450    -0.2498420
  H        0.6317380     1.9558270    -0.2386540
  H       -0.1534110     1.4166430     1.1149090
  H       -1.1128870    -1.8838160    -0.2761720
  H       -1.2094360    -0.9021000     1.1949220
  H       -2.1281500    -0.4352600    -0.2575270
  H        1.4683160    -1.6231340    -0.2733960
  H        1.3705130    -0.6385200     1.1952170
  H        2.1747220    -0.0011550    -0.2602410
units angstrom
no_reorient  #important for SAPT in psi4, default
symmetry c1  #important for SAPT in psi4, default
}

set PROPERTIES_ORIGIN ["COM"]
properties('MP2/aug-cc-pvtz', properties = ['dipole'])
--------------------------------------------------------------------------

    Molecular point group: c1
  Charge       = 1
  Multiplicity = 1
  Basis Set: AUG-CC-PVTZ
    Blend: AUG-CC-PVTZ
  Basis Set: (AUG-CC-PVTZ AUX)
    Blend: AUG-CC-PVTZ-JKFIT

    Orbital Energies [Eh]
    ---------------------

    Doubly Occupied:

       1A    -15.889189     2A    -11.480550     3A    -11.397955
       4A    -11.397487     5A     -1.508063     6A     -1.247768
       7A     -1.127340     8A     -1.018488     9A     -0.959996
      10A     -0.951617    11A     -0.851176    12A     -0.796286
      13A     -0.741101    14A     -0.717728    15A     -0.714548
      16A     -0.683827    17A     -0.667244

  @DF-RHF Final Energy:  -173.72582741213935

   => Energetics <=

    Nuclear Repulsion Energy =            143.9275652428085834
    One-Electron Energy =                -511.0060608136299152
    Two-Electron Energy =                 193.3526681586820075
    Total Energy =                       -173.7258274121393526
  Basis Set: (AUG-CC-PVTZ AUX)
    Blend: AUG-CC-PVTZ-RI
    Molecular point group: c1

    Geometry (in Angstrom), charge = 1, multiplicity = 1:

       Center              X                  Y                   Z               Mass
    ------------   -----------------  -----------------  -----------------  -----------------
         N           -0.136380345557     1.358773035652     0.106660987284    14.003074004430
         C            0.011942654443    -0.071538964348    -0.369383012716    12.000000000000
         C           -1.200223445557    -0.872421064348     0.069821387284    12.000000000000
         C            1.344192654443    -0.609608964348     0.120493987284    12.000000000000
         H           -0.026774445557    -0.021782964348    -1.459759312716     1.007825032230
         H           -1.008823345557     1.782541035652    -0.231988012716     1.007825032230
         H            0.635824654443     1.952023035652    -0.220800012716     1.007825032230
         H           -0.149324345557     1.412839035652     1.132762987284     1.007825032230
         H           -1.108800345557    -1.887619964348    -0.258318012716     1.007825032230
         H           -1.205349345557    -0.905903964348     1.212775987284     1.007825032230
         H           -2.124063345557    -0.439063964348    -0.239673012716     1.007825032230
         H            1.472402654443    -1.626937964348    -0.255542012716     1.007825032230
         H            1.374599654443    -0.642323964348     1.213070987284     1.007825032230
         H            2.178808654443    -0.004958964348    -0.242387012716     1.007825032230

  Basis Set: AUG-CC-PVTZ
    Blend: AUG-CC-PVTZ
  Basis Set: (AUG-CC-PVTZ AUX)
    Blend: AUG-CC-PVTZ-JKFIT
	 Reference Energy          =    -173.7258274121393526 [Eh]
	 Singles Energy            =      -0.0000000000000000 [Eh]
	 Same-Spin Energy          =      -0.1758632224707199 [Eh]
	 Opposite-Spin Energy      =      -0.6569808620343474 [Eh]
	 Correlation Energy        =      -0.8328440845050673 [Eh]
	 Total Energy              =    -174.5586714966444219 [Eh]

	 ================> DF-SCS-MP2 Energies <==================
	-----------------------------------------------------------
	 SCS Same-Spin Scale       =       0.3333333333333333 [-]
	 SCS Opposite-Spin Scale   =       1.2000000000000000 [-]
	 SCS Same-Spin Energy      =      -0.0586210741569066 [Eh]
	 SCS Opposite-Spin Energy  =      -0.7883770344412168 [Eh]
	 SCS Correlation Energy    =      -0.8469981085981234 [Eh]
	 SCS Total Energy          =    -174.5728255207374673 [Eh]
	-----------------------------------------------------------

  Dipole Moment: [D]
     X:    -0.4143      Y:     4.1203      Z:     0.2284     Total:     4.1474

*** Psi4 exiting successfully. Buy a developer a beer!
