                               Psi4 1.3.2 release

  ==> Input File <==

--------------------------------------------------------------------------
#psi4
#
memory 32 gb

molecule  {
1 1
  N       -0.1404670     1.3625770     0.0888070
  C        0.0078560    -0.0677350    -0.3872370
  C       -1.1890530    -0.8623480     0.1023120
  C        1.3401060    -0.6058050     0.1026400
  H        0.0013190     0.0024560    -1.4771570
  H       -1.1827557     1.8688434    -0.3157696
  H        0.6317380     1.9558270    -0.2386540
  H       -0.1534110     1.4166430     1.1149090
  H       -1.1128870    -1.8838160    -0.2761720
  H       -1.2094360    -0.9021000     1.1949220
  H       -2.1281500    -0.4352600    -0.2575270
  H        1.4683160    -1.6231340    -0.2733960
  H        1.3705130    -0.6385200     1.1952170
  H        2.1747220    -0.0011550    -0.2602410
units angstrom
no_reorient  #important for SAPT in psi4, default
symmetry c1  #important for SAPT in psi4, default
}

set PROPERTIES_ORIGIN ["COM"]
properties('MP2/aug-cc-pvtz', properties = ['dipole'])
--------------------------------------------------------------------------

    Molecular point group: c1
  Charge       = 1
  Multiplicity = 1
  Basis Set: AUG-CC-PVTZ
    Blend: AUG-CC-PVTZ
  Basis Set: (AUG-CC-PVTZ AUX)
    Blend: AUG-CC-PVTZ-JKFIT

    Orbital Energies [Eh]
    ---------------------

    Doubly Occupied:

       1A    -15.896782     2A    -11.478192     3A    -11.395976
       4A    -11.395634     5A     -1.483350     6A     -1.240469
       7A     -1.123675     8A     -1.015926     9A     -0.951045
      10A     -0.895837    11A     -0.846321    12A     -0.790131
      13A     -0.735428    14A     -0.713914    15A     -0.711135
      16A     -0.677221    17A     -0.675769

  @DF-RHF Final Energy:  -173.70190148922120

   => Energetics <=

    Nuclear Repulsion Energy =            143.1693752262334840
    One-Electron Energy =                -509.6889444986596232
    Two-Electron Energy =                 192.8176677832049108
    Total Energy =                       -173.7019014892211999
  Basis Set: (AUG-CC-PVTZ AUX)
    Blend: AUG-CC-PVTZ-RI
    Molecular point group: c1

    Geometry (in Angstrom), charge = 1, multiplicity = 1:

       Center              X                  Y                   Z               Mass
    ------------   -----------------  -----------------  -----------------  -----------------
         N           -0.137118384586     1.355794272131     0.097703934640    14.003074004430
         C            0.011204615414    -0.074517727869    -0.378340065360    12.000000000000
         C           -1.185704384586    -0.869130727869     0.111208934640    12.000000000000
         C            1.343454615414    -0.612587727869     0.111536934640    12.000000000000
         H            0.004667615414    -0.004326727869    -1.468260065360     1.007825032230
         H           -1.179407084586     1.862060672131    -0.306872665360     1.007825032230
         H            0.635086615414     1.949044272131    -0.229757065360     1.007825032230
         H           -0.150062384586     1.409860272131     1.123805934640     1.007825032230
         H           -1.109538384586    -1.890598727869    -0.267275065360     1.007825032230
         H           -1.206087384586    -0.908882727869     1.203818934640     1.007825032230
         H           -2.124801384586    -0.442042727869    -0.248630065360     1.007825032230
         H            1.471664615414    -1.629916727869    -0.264499065360     1.007825032230
         H            1.373861615414    -0.645302727869     1.204113934640     1.007825032230
         H            2.178070615414    -0.007937727869    -0.251344065360     1.007825032230

  Basis Set: AUG-CC-PVTZ
    Blend: AUG-CC-PVTZ
  Basis Set: (AUG-CC-PVTZ AUX)
    Blend: AUG-CC-PVTZ-JKFIT
	 Reference Energy          =    -173.7019014892211999 [Eh]
	 Singles Energy            =      -0.0000000000000000 [Eh]
	 Same-Spin Energy          =      -0.1770496777135593 [Eh]
	 Opposite-Spin Energy      =      -0.6608289844466256 [Eh]
	 Correlation Energy        =      -0.8378786621601850 [Eh]
	 Total Energy              =    -174.5397801513813931 [Eh]

	 ================> DF-SCS-MP2 Energies <==================
	-----------------------------------------------------------
	 SCS Same-Spin Scale       =       0.3333333333333333 [-]
	 SCS Opposite-Spin Scale   =       1.2000000000000000 [-]
	 SCS Same-Spin Energy      =      -0.0590165592378531 [Eh]
	 SCS Opposite-Spin Energy  =      -0.7929947813359507 [Eh]
	 SCS Correlation Energy    =      -0.8520113405738038 [Eh]
	 SCS Total Energy          =    -174.5539128297949958 [Eh]
	-----------------------------------------------------------

  Dipole Moment: [D]
     X:    -0.6465      Y:     4.2242      Z:     0.1047     Total:     4.2747

*** Psi4 exiting successfully. Buy a developer a beer!
