                               Psi4 1.3.2 release

  ==> Input File <==

--------------------------------------------------------------------------
#psi4
#
memory 32 gb

molecule  {
1 1
  N       -0.1404670     1.3625770     0.0888070
  C        0.0078560    -0.0677350    -0.3872370
  C       -1.3467713    -0.9670552     0.1668205
  C        1.3401060    -0.6058050     0.1026400
  H        0.0013190     0.0024560    -1.4771570
  H       -1.0129100     1.7863450    -0.2498420
  H        0.6317380     1.9558270    -0.2386540
  H       -0.1534110     1.4166430     1.1149090
  H       -1.1128870    -1.8838160    -0.2761720
  H       -1.2094360    -0.9021000     1.1949220
  H       -2.1281500    -0.4352600    -0.2575270
  H        1.4683160    -1.6231340    -0.2733960
  H        1.3705130    -0.6385200     1.1952170
  H        2.1747220    -0.0011550    -0.2602410
units angstrom
no_reorient  #important for SAPT in psi4, default
symmetry c1  #important for SAPT in psi4, default
}

set PROPERTIES_ORIGIN ["COM"]
properties('MP2/aug-cc-pvtz', properties = ['dipole'])
--------------------------------------------------------------------------

    Molecular point group: c1
  Charge       = 1
  Multiplicity = 1
  Basis Set: AUG-CC-PVTZ
    Blend: AUG-CC-PVTZ
  Basis Set: (AUG-CC-PVTZ AUX)
    Blend: AUG-CC-PVTZ-JKFIT

    Orbital Energies [Eh]
    ---------------------

    Doubly Occupied:

       1A    -15.887177     2A    -11.481239     3A    -11.400104
       4A    -11.396080     5A     -1.503251     6A     -1.226401
       7A     -1.126620     8A     -1.021689     9A     -0.956658
      10A     -0.949632    11A     -0.841609    12A     -0.792549
      13A     -0.749894    14A     -0.739813    15A     -0.714385
      16A     -0.693387    17A     -0.626984

  @DF-RHF Final Energy:  -173.70178038315018

   => Energetics <=

    Nuclear Repulsion Energy =            141.5659525928154778
    One-Electron Energy =                -506.3205199797246223
    Two-Electron Energy =                 191.0527870037589366
    Total Energy =                       -173.7017803831501794
  Basis Set: (AUG-CC-PVTZ AUX)
    Blend: AUG-CC-PVTZ-RI
    Molecular point group: c1

    Geometry (in Angstrom), charge = 1, multiplicity = 1:

       Center              X                  Y                   Z               Mass
    ------------   -----------------  -----------------  -----------------  -----------------
         N           -0.108466472012     1.378091223266     0.083713805510    14.003074004430
         C            0.039856527988    -0.052220776734    -0.392330194490    12.000000000000
         C           -1.314770772012    -0.951540976734     0.161727305510    12.000000000000
         C            1.372106527988    -0.590290776734     0.097546805510    12.000000000000
         H            0.033319527988     0.017970223266    -1.482250194490     1.007825032230
         H           -0.980909472012     1.801859223266    -0.254935194490     1.007825032230
         H            0.663738527988     1.971341223266    -0.243747194490     1.007825032230
         H           -0.121410472012     1.432157223266     1.109815805510     1.007825032230
         H           -1.080886472012    -1.868301776734    -0.281265194490     1.007825032230
         H           -1.177435472012    -0.886585776734     1.189828805510     1.007825032230
         H           -2.096149472012    -0.419745776734    -0.262620194490     1.007825032230
         H            1.500316527988    -1.607619776734    -0.278489194490     1.007825032230
         H            1.402513527988    -0.623005776734     1.190123805510     1.007825032230
         H            2.206722527988     0.014359223266    -0.265334194490     1.007825032230

  Basis Set: AUG-CC-PVTZ
    Blend: AUG-CC-PVTZ
  Basis Set: (AUG-CC-PVTZ AUX)
    Blend: AUG-CC-PVTZ-JKFIT
	 Reference Energy          =    -173.7017803831501794 [Eh]
	 Singles Energy            =      -0.0000000000000000 [Eh]
	 Same-Spin Energy          =      -0.1753967786699061 [Eh]
	 Opposite-Spin Energy      =      -0.6579091217489115 [Eh]
	 Correlation Energy        =      -0.8333059004188175 [Eh]
	 Total Energy              =    -174.5350862835690009 [Eh]

	 ================> DF-SCS-MP2 Energies <==================
	-----------------------------------------------------------
	 SCS Same-Spin Scale       =       0.3333333333333333 [-]
	 SCS Opposite-Spin Scale   =       1.2000000000000000 [-]
	 SCS Same-Spin Energy      =      -0.0584655928899687 [Eh]
	 SCS Opposite-Spin Energy  =      -0.7894909460986937 [Eh]
	 SCS Correlation Energy    =      -0.8479565389886624 [Eh]
	 SCS Total Energy          =    -174.5497369221388340 [Eh]
	-----------------------------------------------------------

  Dipole Moment: [D]
     X:    -0.2961      Y:     4.2261      Z:     0.1633     Total:     4.2396

*** Psi4 exiting successfully. Buy a developer a beer!
