                               Psi4 1.3.2 release

  ==> Input File <==

--------------------------------------------------------------------------
#psi4
#
memory 32 gb

molecule  {
1 1
  N       -0.1404670     1.3625770     0.0888070
  C        0.0078560    -0.0677350    -0.3872370
  C       -1.1890530    -0.8623480     0.1023120
  C        1.3401060    -0.6058050     0.1026400
  H        0.0019175    -0.0039706    -1.3773655
  H       -1.0129100     1.7863450    -0.2498420
  H        0.6317380     1.9558270    -0.2386540
  H       -0.1534110     1.4166430     1.1149090
  H       -1.1128870    -1.8838160    -0.2761720
  H       -1.2094360    -0.9021000     1.1949220
  H       -2.1281500    -0.4352600    -0.2575270
  H        1.4683160    -1.6231340    -0.2733960
  H        1.3705130    -0.6385200     1.1952170
  H        2.1747220    -0.0011550    -0.2602410
units angstrom
no_reorient  #important for SAPT in psi4, default
symmetry c1  #important for SAPT in psi4, default
}

set PROPERTIES_ORIGIN ["COM"]
properties('MP2/aug-cc-pvtz', properties = ['dipole'])
--------------------------------------------------------------------------

    Molecular point group: c1
  Charge       = 1
  Multiplicity = 1
  Basis Set: AUG-CC-PVTZ
    Blend: AUG-CC-PVTZ
  Basis Set: (AUG-CC-PVTZ AUX)
    Blend: AUG-CC-PVTZ-JKFIT

    Orbital Energies [Eh]
    ---------------------

    Doubly Occupied:

       1A    -15.887694     2A    -11.469413     3A    -11.396790
       4A    -11.396748     5A     -1.508370     6A     -1.252707
       7A     -1.125954     8A     -1.031501     9A     -0.959294
      10A     -0.950835    11A     -0.860548    12A     -0.796870
      13A     -0.739807    14A     -0.716075    15A     -0.714640
      16A     -0.688023    17A     -0.677375

  @DF-RHF Final Energy:  -173.72308688885349

   => Energetics <=

    Nuclear Repulsion Energy =            144.5391058389941179
    One-Electron Energy =                -512.1790980606975836
    Two-Electron Energy =                 193.9169053328499501
    Total Energy =                       -173.7230868888534872
  Basis Set: (AUG-CC-PVTZ AUX)
    Blend: AUG-CC-PVTZ-RI
    Molecular point group: c1

    Geometry (in Angstrom), charge = 1, multiplicity = 1:

       Center              X                  Y                   Z               Mass
    ------------   -----------------  -----------------  -----------------  -----------------
         N           -0.139977474882     1.357285931012     0.094924104814    14.003074004430
         C            0.008345525118    -0.073026068988    -0.381119895186    12.000000000000
         C           -1.188563474882    -0.867639068988     0.108429104814    12.000000000000
         C            1.340595525118    -0.611096068988     0.108757104814    12.000000000000
         H            0.002407025118    -0.009261668988    -1.371248395186     1.007825032230
         H           -1.012420474882     1.781053931012    -0.243724895186     1.007825032230
         H            0.632227525118     1.950535931012    -0.232536895186     1.007825032230
         H           -0.152921474882     1.411351931012     1.121026104814     1.007825032230
         H           -1.112397474882    -1.889107068988    -0.270054895186     1.007825032230
         H           -1.208946474882    -0.907391068988     1.201039104814     1.007825032230
         H           -2.127660474882    -0.440551068988    -0.251409895186     1.007825032230
         H            1.468805525118    -1.628425068988    -0.267278895186     1.007825032230
         H            1.371002525118    -0.643811068988     1.201334104814     1.007825032230
         H            2.175211525118    -0.006446068988    -0.254123895186     1.007825032230

  Basis Set: AUG-CC-PVTZ
    Blend: AUG-CC-PVTZ
  Basis Set: (AUG-CC-PVTZ AUX)
    Blend: AUG-CC-PVTZ-JKFIT
	 Reference Energy          =    -173.7230868888534872 [Eh]
	 Singles Energy            =      -0.0000000000000000 [Eh]
	 Same-Spin Energy          =      -0.1757422152712176 [Eh]
	 Opposite-Spin Energy      =      -0.6563023703046409 [Eh]
	 Correlation Energy        =      -0.8320445855758585 [Eh]
	 Total Energy              =    -174.5551314744293450 [Eh]

	 ================> DF-SCS-MP2 Energies <==================
	-----------------------------------------------------------
	 SCS Same-Spin Scale       =       0.3333333333333333 [-]
	 SCS Opposite-Spin Scale   =       1.2000000000000000 [-]
	 SCS Same-Spin Energy      =      -0.0585807384237392 [Eh]
	 SCS Opposite-Spin Energy  =      -0.7875628443655690 [Eh]
	 SCS Correlation Energy    =      -0.8461435827893082 [Eh]
	 SCS Total Energy          =    -174.5692304716427827 [Eh]
	-----------------------------------------------------------

  Dipole Moment: [D]
     X:    -0.4258      Y:     4.1137      Z:     0.1918     Total:     4.1401

*** Psi4 exiting successfully. Buy a developer a beer!
