                               Psi4 1.4a3.dev225

  ==> Input File <==

--------------------------------------------------------------------------
#psi4
#
memory 32 gb

molecule  {
1 1
  N        0.0000020     1.3752550     0.0881560
  C        0.0000000    -0.0769010    -0.3911070
  C       -1.2745200    -0.7353630     0.1032760
  C        1.2745180    -0.7353670     0.1032760
  H        0.0000000     0.0002022    -1.5320702
  H       -0.8310820     1.8851260    -0.2406460
  H        0.8310870     1.8851240    -0.2406470
  H        0.0000020     1.4165200     1.1165880
  H       -1.3097880    -1.7608000    -0.2705820
  H       -1.2994510    -0.7789970     1.1965910
  H       -2.1709030    -0.2224960    -0.2574420
  H        1.3097830    -1.7608040    -0.2705810
  H        1.2994490    -0.7790000     1.1965910
  H        2.1709020    -0.2225020    -0.2574420
units angstrom
no_reorient  #important for SAPT in psi4, default
symmetry c1  #important for SAPT in psi4, default
}

set PROPERTIES_ORIGIN ["COM"]
properties('MP2/aug-cc-pvtz', properties = ['dipole'])
--------------------------------------------------------------------------

    Molecular point group: c1
  Charge       = 1
  Multiplicity = 1
  Basis Set: AUG-CC-PVTZ
    Blend: AUG-CC-PVTZ
  Basis Set: (AUG-CC-PVTZ AUX)
    Blend: AUG-CC-PVTZ-JKFIT

    Orbital Energies [Eh]
    ---------------------

    Doubly Occupied:

       1A    -15.886940     2A    -11.488248     3A    -11.398134
       4A    -11.398121     5A     -1.502619     6A     -1.245348
       7A     -1.126594     8A     -1.012363     9A     -0.956273
      10A     -0.949095    11A     -0.842850    12A     -0.793627
      13A     -0.740774    14A     -0.715511    15A     -0.711380
      16A     -0.680570    17A     -0.675025

  @DF-RHF Final Energy:  -173.72669776233806

   => Energetics <=

    Nuclear Repulsion Energy =            143.4786889366401113
    One-Electron Energy =                -510.1638319796252858
    Two-Electron Energy =                 192.9584452806470836
    Total Energy =                       -173.7266977623380626
  Basis Set: (AUG-CC-PVTZ AUX)
    Blend: AUG-CC-PVTZ-RI
    Molecular point group: c1

    Geometry (in Angstrom), charge = 1, multiplicity = 1:

       Center              X                  Y                   Z               Mass
    ------------   -----------------  -----------------  -----------------  -----------------
         N            0.000001950096     1.369496857961     0.097083888732    14.003074004430
         C           -0.000000049904    -0.082659142039    -0.382179111268    12.000000000000
         C           -1.274520049904    -0.741121142039     0.112203888732    12.000000000000
         C            1.274517950096    -0.741125142039     0.112203888732    12.000000000000
         H           -0.000000049904    -0.005555942039    -1.523142311268     1.007825032230
         H           -0.831082049904     1.879367857961    -0.231718111268     1.007825032230
         H            0.831086950096     1.879365857961    -0.231719111268     1.007825032230
         H            0.000001950096     1.410761857961     1.125515888732     1.007825032230
         H           -1.309788049904    -1.766558142039    -0.261654111268     1.007825032230
         H           -1.299451049904    -0.784755142039     1.205518888732     1.007825032230
         H           -2.170903049904    -0.228254142039    -0.248514111268     1.007825032230
         H            1.309782950096    -1.766562142039    -0.261653111268     1.007825032230
         H            1.299448950096    -0.784758142039     1.205518888732     1.007825032230
         H            2.170901950096    -0.228260142039    -0.248514111268     1.007825032230

  Basis Set: AUG-CC-PVTZ
    Blend: AUG-CC-PVTZ
  Basis Set: (AUG-CC-PVTZ AUX)
    Blend: AUG-CC-PVTZ-JKFIT
	 Reference Energy          =    -173.7266977623380626 [Eh]
	 Singles Energy            =      -0.0000000000000000 [Eh]
	 Same-Spin Energy          =      -0.1758652927535442 [Eh]
	 Opposite-Spin Energy      =      -0.6574250751875673 [Eh]
	 Correlation Energy        =      -0.8332903679411116 [Eh]
	 Total Energy              =    -174.5599881302791800 [Eh]

	 ================> DF-SCS-MP2 Energies <==================
	-----------------------------------------------------------
	 SCS Same-Spin Scale       =       0.3333333333333333 [-]
	 SCS Opposite-Spin Scale   =       1.2000000000000000 [-]
	 SCS Same-Spin Energy      =      -0.0586217642511814 [Eh]
	 SCS Opposite-Spin Energy  =      -0.7889100902250807 [Eh]
	 SCS Correlation Energy    =      -0.8475318544762621 [Eh]
	 SCS Total Energy          =    -174.5742296168143355 [Eh]
	-----------------------------------------------------------

  Dipole Moment: [D]
     X:     0.0000      Y:     4.0601      Z:     0.2077     Total:     4.0654

*** Psi4 exiting successfully. Buy a developer a beer!
