                               Psi4 1.3.2 release

  ==> Input File <==

--------------------------------------------------------------------------
#psi4
#
memory 32 gb

molecule  {
1 1
  N       -0.1404670     1.3625770     0.0888070
  C        0.0096210    -0.0906178    -0.3113286
  C       -1.1890530    -0.8623480     0.1023120
  C        1.3401060    -0.6058050     0.1026400
  H        0.0013190     0.0024560    -1.4771570
  H       -1.0129100     1.7863450    -0.2498420
  H        0.6317380     1.9558270    -0.2386540
  H       -0.1480028     1.3631367     1.1163861
  H       -1.1128870    -1.8838160    -0.2761720
  H       -1.2094360    -0.9021000     1.1949220
  H       -2.1281500    -0.4352600    -0.2575270
  H        1.4683160    -1.6231340    -0.2733960
  H        1.3705130    -0.6385200     1.1952170
  H        2.1747220    -0.0011550    -0.2602410
units angstrom
no_reorient  #important for SAPT in psi4, default
symmetry c1  #important for SAPT in psi4, default
}

set PROPERTIES_ORIGIN ["COM"]
properties('MP2/aug-cc-pvtz', properties = ['dipole'])
--------------------------------------------------------------------------

    Molecular point group: c1
  Charge       = 1
  Multiplicity = 1
  Basis Set: AUG-CC-PVTZ
    Blend: AUG-CC-PVTZ
  Basis Set: (AUG-CC-PVTZ AUX)
    Blend: AUG-CC-PVTZ-JKFIT

    Orbital Energies [Eh]
    ---------------------

    Doubly Occupied:

       1A    -15.888314     2A    -11.484249     3A    -11.397464
       4A    -11.397446     5A     -1.508865     6A     -1.255570
       7A     -1.134825     8A     -1.008231     9A     -0.968715
      10A     -0.951090    11A     -0.840738    12A     -0.801660
      13A     -0.743042    14A     -0.720381    15A     -0.716240
      16A     -0.693241    17A     -0.656284

  @DF-RHF Final Energy:  -173.72006785153923

   => Energetics <=

    Nuclear Repulsion Energy =            144.6019390643115798
    One-Electron Energy =                -512.3113054349329332
    Two-Electron Energy =                 193.9892985190821264
    Total Energy =                       -173.7200678515392269
  Basis Set: (AUG-CC-PVTZ AUX)
    Blend: AUG-CC-PVTZ-RI
    Molecular point group: c1

    Geometry (in Angstrom), charge = 1, multiplicity = 1:

       Center              X                  Y                   Z               Mass
    ------------   -----------------  -----------------  -----------------  -----------------
         N           -0.140410676652     1.362646027577     0.081412134235    14.003074004430
         C            0.009677323348    -0.090548772423    -0.318723465765    12.000000000000
         C           -1.188996676652    -0.862278972423     0.094917134235    12.000000000000
         C            1.340162323348    -0.605735972423     0.095245134235    12.000000000000
         H            0.001375323348     0.002525027577    -1.484551865765     1.007825032230
         H           -1.012853676652     1.786414027577    -0.257236865765     1.007825032230
         H            0.631794323348     1.955896027577    -0.246048865765     1.007825032230
         H           -0.147946476652     1.363205727577     1.108991234235     1.007825032230
         H           -1.112830676652    -1.883746972423    -0.283566865765     1.007825032230
         H           -1.209379676652    -0.902030972423     1.187527134235     1.007825032230
         H           -2.128093676652    -0.435190972423    -0.264921865765     1.007825032230
         H            1.468372323348    -1.623064972423    -0.280790865765     1.007825032230
         H            1.370569323348    -0.638450972423     1.187822134235     1.007825032230
         H            2.174778323348    -0.001085972423    -0.267635865765     1.007825032230

  Basis Set: AUG-CC-PVTZ
    Blend: AUG-CC-PVTZ
  Basis Set: (AUG-CC-PVTZ AUX)
    Blend: AUG-CC-PVTZ-JKFIT
	 Reference Energy          =    -173.7200678515392269 [Eh]
	 Singles Energy            =      -0.0000000000000000 [Eh]
	 Same-Spin Energy          =      -0.1766725102653731 [Eh]
	 Opposite-Spin Energy      =      -0.6580241736079019 [Eh]
	 Correlation Energy        =      -0.8346966838732750 [Eh]
	 Total Energy              =    -174.5547645354124882 [Eh]

	 ================> DF-SCS-MP2 Energies <==================
	-----------------------------------------------------------
	 SCS Same-Spin Scale       =       0.3333333333333333 [-]
	 SCS Opposite-Spin Scale   =       1.2000000000000000 [-]
	 SCS Same-Spin Energy      =      -0.0588908367551244 [Eh]
	 SCS Opposite-Spin Energy  =      -0.7896290083294822 [Eh]
	 SCS Correlation Energy    =      -0.8485198450846066 [Eh]
	 SCS Total Energy          =    -174.5685876966238368 [Eh]
	-----------------------------------------------------------

  Dipole Moment: [D]
     X:    -0.4167      Y:     4.0232      Z:     0.1734     Total:     4.0484

*** Psi4 exiting successfully. Buy a developer a beer!
