                               Psi4 1.4a3.dev225

  ==> Input File <==

--------------------------------------------------------------------------
#psi4
#
memory 32 gb

molecule  {
1 1
  N        0.0000020     1.3752550     0.0881560
  C       -0.0000000    -0.0958934    -0.3973752
  C       -1.2745200    -0.7353630     0.1032760
  C        1.2745180    -0.7353670     0.1032760
  H        0.0000000    -0.0031690    -1.4821840
  H       -0.8310820     1.8851260    -0.2406460
  H        0.8310870     1.8851240    -0.2406470
  H        0.0000020     1.4165200     1.1165880
  H       -1.3097880    -1.7608000    -0.2705820
  H       -1.2994510    -0.7789970     1.1965910
  H       -2.1709030    -0.2224960    -0.2574420
  H        1.3097830    -1.7608040    -0.2705810
  H        1.2994490    -0.7790000     1.1965910
  H        2.1709020    -0.2225020    -0.2574420
units angstrom
no_reorient  #important for SAPT in psi4, default
symmetry c1  #important for SAPT in psi4, default
}

set PROPERTIES_ORIGIN ["COM"]
properties('MP2/aug-cc-pvtz', properties = ['dipole'])
--------------------------------------------------------------------------

    Molecular point group: c1
  Charge       = 1
  Multiplicity = 1
  Basis Set: AUG-CC-PVTZ
    Blend: AUG-CC-PVTZ
  Basis Set: (AUG-CC-PVTZ AUX)
    Blend: AUG-CC-PVTZ-JKFIT

    Orbital Energies [Eh]
    ---------------------

    Doubly Occupied:

       1A    -15.883491     2A    -11.484368     3A    -11.398112
       4A    -11.398098     5A     -1.497188     6A     -1.249599
       7A     -1.127945     8A     -1.015174     9A     -0.952447
      10A     -0.945661    11A     -0.845302    12A     -0.797764
      13A     -0.742525    14A     -0.715813    15A     -0.708991
      16A     -0.683495    17A     -0.682541

  @DF-RHF Final Energy:  -173.72862976848461

   => Energetics <=

    Nuclear Repulsion Energy =            143.6187795285330537
    One-Electron Energy =                -510.4377882377498281
    Two-Electron Energy =                 193.0903789407321369
    Total Energy =                       -173.7286297684846090
  Basis Set: (AUG-CC-PVTZ AUX)
    Blend: AUG-CC-PVTZ-RI
    Molecular point group: c1

    Geometry (in Angstrom), charge = 1, multiplicity = 1:

       Center              X                  Y                   Z               Mass
    ------------   -----------------  -----------------  -----------------  -----------------
         N            0.000001950096     1.373346746131     0.097499023370    14.003074004430
         C           -0.000000049904    -0.097801653869    -0.388032176630    12.000000000000
         C           -1.274520049904    -0.737271253869     0.112619023370    12.000000000000
         C            1.274517950096    -0.737275253869     0.112619023370    12.000000000000
         H           -0.000000049904    -0.005077253869    -1.472840976630     1.007825032230
         H           -0.831082049904     1.883217746131    -0.231302976630     1.007825032230
         H            0.831086950096     1.883215746131    -0.231303976630     1.007825032230
         H            0.000001950096     1.414611746131     1.125931023370     1.007825032230
         H           -1.309788049904    -1.762708253869    -0.261238976630     1.007825032230
         H           -1.299451049904    -0.780905253869     1.205934023370     1.007825032230
         H           -2.170903049904    -0.224404253869    -0.248098976630     1.007825032230
         H            1.309782950096    -1.762712253869    -0.261237976630     1.007825032230
         H            1.299448950096    -0.780908253869     1.205934023370     1.007825032230
         H            2.170901950096    -0.224410253869    -0.248098976630     1.007825032230

  Basis Set: AUG-CC-PVTZ
    Blend: AUG-CC-PVTZ
  Basis Set: (AUG-CC-PVTZ AUX)
    Blend: AUG-CC-PVTZ-JKFIT
	 Reference Energy          =    -173.7286297684846090 [Eh]
	 Singles Energy            =      -0.0000000000000000 [Eh]
	 Same-Spin Energy          =      -0.1757688518264381 [Eh]
	 Opposite-Spin Energy      =      -0.6570371170555476 [Eh]
	 Correlation Energy        =      -0.8328059688819858 [Eh]
	 Total Energy              =    -174.5614357373665939 [Eh]

	 ================> DF-SCS-MP2 Energies <==================
	-----------------------------------------------------------
	 SCS Same-Spin Scale       =       0.3333333333333333 [-]
	 SCS Opposite-Spin Scale   =       1.2000000000000000 [-]
	 SCS Same-Spin Energy      =      -0.0585896172754794 [Eh]
	 SCS Opposite-Spin Energy  =      -0.7884445404666570 [Eh]
	 SCS Correlation Energy    =      -0.8470341577421364 [Eh]
	 SCS Total Energy          =    -174.5756639262267527 [Eh]
	-----------------------------------------------------------

  Dipole Moment: [D]
     X:     0.0000      Y:     4.0131      Z:     0.1923     Total:     4.0177

*** Psi4 exiting successfully. Buy a developer a beer!
