                               Psi4 1.4a3.dev225

  ==> Input File <==

--------------------------------------------------------------------------
#psi4
#
memory 32 gb

molecule  {
1 1
  N        0.0000020     1.3752550     0.0881560
  C        0.0000000    -0.0769010    -0.3911070
  C       -1.2745200    -0.7353630     0.1032760
  C        1.2745180    -0.7353670     0.1032760
  H        0.0000000    -0.0031690    -1.4821840
  H       -0.7906977     1.8603502    -0.2246688
  H        0.8310870     1.8851240    -0.2406470
  H        0.0000020     1.4165200     1.1165880
  H       -1.3097880    -1.7608000    -0.2705820
  H       -1.2994510    -0.7789970     1.1965910
  H       -2.1709030    -0.2224960    -0.2574420
  H        1.3097830    -1.7608040    -0.2705810
  H        1.2994490    -0.7790000     1.1965910
  H        2.1709020    -0.2225020    -0.2574420
units angstrom
no_reorient  #important for SAPT in psi4, default
symmetry c1  #important for SAPT in psi4, default
}

set PROPERTIES_ORIGIN ["COM"]
properties('MP2/aug-cc-pvtz', properties = ['dipole'])
--------------------------------------------------------------------------

    Molecular point group: c1
  Charge       = 1
  Multiplicity = 1
  Basis Set: AUG-CC-PVTZ
    Blend: AUG-CC-PVTZ
  Basis Set: (AUG-CC-PVTZ AUX)
    Blend: AUG-CC-PVTZ-JKFIT

    Orbital Energies [Eh]
    ---------------------

    Doubly Occupied:

       1A    -15.883384     2A    -11.483529     3A    -11.398193
       4A    -11.398154     5A     -1.511269     6A     -1.249375
       7A     -1.127092     8A     -1.018161     9A     -0.967595
      10A     -0.954758    11A     -0.848143    12A     -0.796039
      13A     -0.741614    14A     -0.715911    15A     -0.712127
      16A     -0.680697    17A     -0.680617

  @DF-RHF Final Energy:  -173.72865965513179

   => Energetics <=

    Nuclear Repulsion Energy =            143.9628708514497930
    One-Electron Energy =                -511.0497452669707741
    Two-Electron Energy =                 193.3582147603891883
    Total Energy =                       -173.7286596551317928
  Basis Set: (AUG-CC-PVTZ AUX)
    Blend: AUG-CC-PVTZ-RI
    Molecular point group: c1

    Geometry (in Angstrom), charge = 1, multiplicity = 1:

       Center              X                  Y                   Z               Mass
    ------------   -----------------  -----------------  -----------------  -----------------
         N           -0.000675470199     1.369969005529     0.095979073151    14.003074004430
         C           -0.000677470199    -0.082186994471    -0.383283926849    12.000000000000
         C           -1.275197470199    -0.740648994471     0.111099073151    12.000000000000
         C            1.273840529801    -0.740652994471     0.111099073151    12.000000000000
         H           -0.000677470199    -0.008454994471    -1.474360926849     1.007825032230
         H           -0.791375170199     1.855064205529    -0.216845726849     1.007825032230
         H            0.830409529801     1.879838005529    -0.232823926849     1.007825032230
         H           -0.000675470199     1.411234005529     1.124411073151     1.007825032230
         H           -1.310465470199    -1.766085994471    -0.262758926849     1.007825032230
         H           -1.300128470199    -0.784282994471     1.204414073151     1.007825032230
         H           -2.171580470199    -0.227781994471    -0.249618926849     1.007825032230
         H            1.309105529801    -1.766089994471    -0.262757926849     1.007825032230
         H            1.298771529801    -0.784285994471     1.204414073151     1.007825032230
         H            2.170224529801    -0.227787994471    -0.249618926849     1.007825032230

  Basis Set: AUG-CC-PVTZ
    Blend: AUG-CC-PVTZ
  Basis Set: (AUG-CC-PVTZ AUX)
    Blend: AUG-CC-PVTZ-JKFIT
	 Reference Energy          =    -173.7286596551317928 [Eh]
	 Singles Energy            =      -0.0000000000000000 [Eh]
	 Same-Spin Energy          =      -0.1755148470852210 [Eh]
	 Opposite-Spin Energy      =      -0.6561759357449943 [Eh]
	 Correlation Energy        =      -0.8316907828302154 [Eh]
	 Total Energy              =    -174.5603504379620006 [Eh]

	 ================> DF-SCS-MP2 Energies <==================
	-----------------------------------------------------------
	 SCS Same-Spin Scale       =       0.3333333333333333 [-]
	 SCS Opposite-Spin Scale   =       1.2000000000000000 [-]
	 SCS Same-Spin Energy      =      -0.0585049490284070 [Eh]
	 SCS Opposite-Spin Energy  =      -0.7874111228939932 [Eh]
	 SCS Correlation Energy    =      -0.8459160719224001 [Eh]
	 SCS Total Energy          =    -174.5745757270541958 [Eh]
	-----------------------------------------------------------

  Dipole Moment: [D]
     X:     0.0492      Y:     4.0311      Z:     0.2211     Total:     4.0375

*** Psi4 exiting successfully. Buy a developer a beer!
