                               Psi4 1.3.2 release

  ==> Input File <==

--------------------------------------------------------------------------
#psi4
#
memory 32 gb

molecule  {
1 1
  N       -0.1404670     1.3625770     0.0888070
  C        0.0078560    -0.0677350    -0.3872370
  C       -1.1850101    -0.8606291     0.1148073
  C        1.3401060    -0.6058050     0.1026400
  H        0.0093668     0.0075524    -1.4768354
  H       -1.0129100     1.7863450    -0.2498420
  H        0.6317380     1.9558270    -0.2386540
  H       -0.1534110     1.4166430     1.1149090
  H       -1.1128870    -1.8838160    -0.2761720
  H       -1.2094360    -0.9021000     1.1949220
  H       -2.1281500    -0.4352600    -0.2575270
  H        1.4683160    -1.6231340    -0.2733960
  H        1.3705130    -0.6385200     1.1952170
  H        2.1747220    -0.0011550    -0.2602410
units angstrom
no_reorient  #important for SAPT in psi4, default
symmetry c1  #important for SAPT in psi4, default
}

set PROPERTIES_ORIGIN ["COM"]
properties('MP2/aug-cc-pvtz', properties = ['dipole'])
--------------------------------------------------------------------------

    Molecular point group: c1
  Charge       = 1
  Multiplicity = 1
  Basis Set: AUG-CC-PVTZ
    Blend: AUG-CC-PVTZ
  Basis Set: (AUG-CC-PVTZ AUX)
    Blend: AUG-CC-PVTZ-JKFIT

    Orbital Energies [Eh]
    ---------------------

    Doubly Occupied:

       1A    -15.887828     2A    -11.480784     3A    -11.397359
       4A    -11.397049     5A     -1.507675     6A     -1.247710
       7A     -1.126047     8A     -1.020211     9A     -0.959039
      10A     -0.950725    11A     -0.850102    12A     -0.794004
      13A     -0.741124    14A     -0.716326    15A     -0.712719
      16A     -0.681757    17A     -0.676121

  @DF-RHF Final Energy:  -173.72887498857401

   => Energetics <=

    Nuclear Repulsion Energy =            144.0681650208154565
    One-Electron Energy =                -511.3009228815074039
    Two-Electron Energy =                 193.5038828721179414
    Total Energy =                       -173.7288749885740060
  Basis Set: (AUG-CC-PVTZ AUX)
    Blend: AUG-CC-PVTZ-RI
    Molecular point group: c1

    Geometry (in Angstrom), charge = 1, multiplicity = 1:

       Center              X                  Y                   Z               Mass
    ------------   -----------------  -----------------  -----------------  -----------------
         N           -0.140909917561     1.356749325532     0.094096970170    14.003074004430
         C            0.007413082439    -0.073562674468    -0.381947029830    12.000000000000
         C           -1.185453017561    -0.866456774468     0.120097270170    12.000000000000
         C            1.339663082439    -0.611632674468     0.107929970170    12.000000000000
         H            0.008923882439     0.001724725532    -1.471545429830     1.007825032230
         H           -1.013352917561     1.780517325532    -0.244552029830     1.007825032230
         H            0.631295082439     1.949999325532    -0.233364029830     1.007825032230
         H           -0.153853917561     1.410815325532     1.120198970170     1.007825032230
         H           -1.113329917561    -1.889643674468    -0.270882029830     1.007825032230
         H           -1.209878917561    -0.907927674468     1.200211970170     1.007825032230
         H           -2.128592917561    -0.441087674468    -0.252237029830     1.007825032230
         H            1.467873082439    -1.628961674468    -0.268106029830     1.007825032230
         H            1.370070082439    -0.644347674468     1.200506970170     1.007825032230
         H            2.174279082439    -0.006982674468    -0.254951029830     1.007825032230

  Basis Set: AUG-CC-PVTZ
    Blend: AUG-CC-PVTZ
  Basis Set: (AUG-CC-PVTZ AUX)
    Blend: AUG-CC-PVTZ-JKFIT
	 Reference Energy          =    -173.7288749885740060 [Eh]
	 Singles Energy            =      -0.0000000000000000 [Eh]
	 Same-Spin Energy          =      -0.1758609724530770 [Eh]
	 Opposite-Spin Energy      =      -0.6569296036823851 [Eh]
	 Correlation Energy        =      -0.8327905761354621 [Eh]
	 Total Energy              =    -174.5616655647094717 [Eh]

	 ================> DF-SCS-MP2 Energies <==================
	-----------------------------------------------------------
	 SCS Same-Spin Scale       =       0.3333333333333333 [-]
	 SCS Opposite-Spin Scale   =       1.2000000000000000 [-]
	 SCS Same-Spin Energy      =      -0.0586203241510257 [Eh]
	 SCS Opposite-Spin Energy  =      -0.7883155244188621 [Eh]
	 SCS Correlation Energy    =      -0.8469358485698878 [Eh]
	 SCS Total Energy          =    -174.5758108371439050 [Eh]
	-----------------------------------------------------------

  Dipole Moment: [D]
     X:    -0.4265      Y:     4.0948      Z:     0.1911     Total:     4.1213

*** Psi4 exiting successfully. Buy a developer a beer!
