                               Psi4 1.3.2 release

  ==> Input File <==

--------------------------------------------------------------------------
#psi4
#
memory 32 gb

molecule  {
1 1
  N       -0.0717938     1.3794458     0.0529148
  C        0.0078560    -0.0677350    -0.3872370
  C       -1.1583680    -0.9264711     0.0668039
  C        1.3401060    -0.6058050     0.1026400
  H        0.0013190     0.0024560    -1.4771570
  H       -1.0129100     1.7863450    -0.2498420
  H        0.6317380     1.9558270    -0.2386540
  H       -0.1534110     1.4166430     1.1149090
  H       -1.1128870    -1.8838160    -0.2761720
  H       -1.2094360    -0.9021000     1.1949220
  H       -2.1281500    -0.4352600    -0.2575270
  H        1.4683160    -1.6231340    -0.2733960
  H        1.3705130    -0.6385200     1.1952170
  H        2.1747220    -0.0011550    -0.2602410
units angstrom
no_reorient  #important for SAPT in psi4, default
symmetry c1  #important for SAPT in psi4, default
}

set PROPERTIES_ORIGIN ["COM"]
properties('MP2/aug-cc-pvtz', properties = ['dipole'])
--------------------------------------------------------------------------

    Molecular point group: c1
  Charge       = 1
  Multiplicity = 1
  Basis Set: AUG-CC-PVTZ
    Blend: AUG-CC-PVTZ
  Basis Set: (AUG-CC-PVTZ AUX)
    Blend: AUG-CC-PVTZ-JKFIT

    Orbital Energies [Eh]
    ---------------------

    Doubly Occupied:

       1A    -15.890835     2A    -11.480889     3A    -11.401484
       4A    -11.394955     5A     -1.509640     6A     -1.250064
       7A     -1.125277     8A     -1.020813     9A     -0.981755
      10A     -0.934509    11A     -0.844937    12A     -0.790972
      13A     -0.754638    14A     -0.725467    15A     -0.712178
      16A     -0.673291    17A     -0.664952

  @DF-RHF Final Energy:  -173.71123937956273

   => Energetics <=

    Nuclear Repulsion Energy =            143.8737991584121119
    One-Electron Energy =                -510.8567653238081903
    Two-Electron Energy =                 193.2717267858333514
    Total Energy =                       -173.7112393795627270
  Basis Set: (AUG-CC-PVTZ AUX)
    Blend: AUG-CC-PVTZ-RI
    Molecular point group: c1

    Geometry (in Angstrom), charge = 1, multiplicity = 1:

       Center              X                  Y                   Z               Mass
    ------------   -----------------  -----------------  -----------------  -----------------
         N           -0.093428499561     1.382922601274     0.076163196710    14.003074004430
         C           -0.013778699561    -0.064258198726    -0.363988603290    12.000000000000
         C           -1.180002699561    -0.922994298726     0.090052296710    12.000000000000
         C            1.318471300439    -0.602328198726     0.125888396710    12.000000000000
         H           -0.020315699561     0.005932801274    -1.453908603290     1.007825032230
         H           -1.034544699561     1.789821801274    -0.226593603290     1.007825032230
         H            0.610103300439     1.959303801274    -0.215405603290     1.007825032230
         H           -0.175045699561     1.420119801274     1.138157396710     1.007825032230
         H           -1.134521699561    -1.880339198726    -0.252923603290     1.007825032230
         H           -1.231070699561    -0.898623198726     1.218170396710     1.007825032230
         H           -2.149784699561    -0.431783198726    -0.234278603290     1.007825032230
         H            1.446681300439    -1.619657198726    -0.250147603290     1.007825032230
         H            1.348878300439    -0.635043198726     1.218465396710     1.007825032230
         H            2.153087300439     0.002321801274    -0.236992603290     1.007825032230

  Basis Set: AUG-CC-PVTZ
    Blend: AUG-CC-PVTZ
  Basis Set: (AUG-CC-PVTZ AUX)
    Blend: AUG-CC-PVTZ-JKFIT
	 Reference Energy          =    -173.7112393795627270 [Eh]
	 Singles Energy            =      -0.0000000000000000 [Eh]
	 Same-Spin Energy          =      -0.1760607782483514 [Eh]
	 Opposite-Spin Energy      =      -0.6577419522732776 [Eh]
	 Correlation Energy        =      -0.8338027305216290 [Eh]
	 Total Energy              =    -174.5450421100843528 [Eh]

	 ================> DF-SCS-MP2 Energies <==================
	-----------------------------------------------------------
	 SCS Same-Spin Scale       =       0.3333333333333333 [-]
	 SCS Opposite-Spin Scale   =       1.2000000000000000 [-]
	 SCS Same-Spin Energy      =      -0.0586869260827838 [Eh]
	 SCS Opposite-Spin Energy  =      -0.7892903427279331 [Eh]
	 SCS Correlation Energy    =      -0.8479772688107169 [Eh]
	 SCS Total Energy          =    -174.5592166483734502 [Eh]
	-----------------------------------------------------------

  Dipole Moment: [D]
     X:    -0.6083      Y:     4.1503      Z:     0.3004     Total:     4.2054

*** Psi4 exiting successfully. Buy a developer a beer!
