                               Psi4 1.3.2 release

  ==> Input File <==

--------------------------------------------------------------------------
#psi4
#
memory 32 gb

molecule  {
1 1
  N       -0.1408807     1.3666555     0.0762403
  C        0.0078560    -0.0677350    -0.3872370
  C       -1.1890530    -0.8623480     0.1023120
  C        1.3401060    -0.6058050     0.1026400
  H        0.0003399     0.0119140    -1.4765004
  H       -1.0129100     1.7863450    -0.2498420
  H        0.6317380     1.9558270    -0.2386540
  H       -0.1534110     1.4166430     1.1149090
  H       -1.1128870    -1.8838160    -0.2761720
  H       -1.2094360    -0.9021000     1.1949220
  H       -2.1281500    -0.4352600    -0.2575270
  H        1.4683160    -1.6231340    -0.2733960
  H        1.3705130    -0.6385200     1.1952170
  H        2.1747220    -0.0011550    -0.2602410
units angstrom
no_reorient  #important for SAPT in psi4, default
symmetry c1  #important for SAPT in psi4, default
}

set PROPERTIES_ORIGIN ["COM"]
properties('MP2/aug-cc-pvtz', properties = ['dipole'])
--------------------------------------------------------------------------

    Molecular point group: c1
  Charge       = 1
  Multiplicity = 1
  Basis Set: AUG-CC-PVTZ
    Blend: AUG-CC-PVTZ
  Basis Set: (AUG-CC-PVTZ AUX)
    Blend: AUG-CC-PVTZ-JKFIT

    Orbital Energies [Eh]
    ---------------------

    Doubly Occupied:

       1A    -15.887880     2A    -11.480721     3A    -11.397511
       4A    -11.397471     5A     -1.507648     6A     -1.247698
       7A     -1.126408     8A     -1.019357     9A     -0.956994
      10A     -0.954839    11A     -0.847580    12A     -0.794681
      13A     -0.740187    14A     -0.716530    15A     -0.714423
      16A     -0.679694    17A     -0.678044

  @DF-RHF Final Energy:  -173.72890111581395

   => Energetics <=

    Nuclear Repulsion Energy =            144.0097064491869503
    One-Electron Energy =                -511.1818809968403343
    Two-Electron Energy =                 193.4432734318394580
    Total Energy =                       -173.7289011158139544
  Basis Set: (AUG-CC-PVTZ AUX)
    Blend: AUG-CC-PVTZ-RI
    Molecular point group: c1

    Geometry (in Angstrom), charge = 1, multiplicity = 1:

       Center              X                  Y                   Z               Mass
    ------------   -----------------  -----------------  -----------------  -----------------
         N           -0.140268291164     1.360147406659     0.086949232091    14.003074004430
         C            0.008468408836    -0.074243093341    -0.376528067909    12.000000000000
         C           -1.188440591164    -0.868856093341     0.113020932091    12.000000000000
         C            1.340718408836    -0.612313093341     0.113348932091    12.000000000000
         H            0.000952308836     0.005405906659    -1.465791467909     1.007825032230
         H           -1.012297591164     1.779836906659    -0.239133067909     1.007825032230
         H            0.632350408836     1.949318906659    -0.227945067909     1.007825032230
         H           -0.152798591164     1.410134906659     1.125617932091     1.007825032230
         H           -1.112274591164    -1.890324093341    -0.265463067909     1.007825032230
         H           -1.208823591164    -0.908608093341     1.205630932091     1.007825032230
         H           -2.127537591164    -0.441768093341    -0.246818067909     1.007825032230
         H            1.468928408836    -1.629642093341    -0.262687067909     1.007825032230
         H            1.371125408836    -0.645028093341     1.205925932091     1.007825032230
         H            2.175334408836    -0.007663093341    -0.249532067909     1.007825032230

  Basis Set: AUG-CC-PVTZ
    Blend: AUG-CC-PVTZ
  Basis Set: (AUG-CC-PVTZ AUX)
    Blend: AUG-CC-PVTZ-JKFIT
	 Reference Energy          =    -173.7289011158139544 [Eh]
	 Singles Energy            =      -0.0000000000000000 [Eh]
	 Same-Spin Energy          =      -0.1758511622085966 [Eh]
	 Opposite-Spin Energy      =      -0.6569133524492340 [Eh]
	 Correlation Energy        =      -0.8327645146578306 [Eh]
	 Total Energy              =    -174.5616656304717935 [Eh]

	 ================> DF-SCS-MP2 Energies <==================
	-----------------------------------------------------------
	 SCS Same-Spin Scale       =       0.3333333333333333 [-]
	 SCS Opposite-Spin Scale   =       1.2000000000000000 [-]
	 SCS Same-Spin Energy      =      -0.0586170540695322 [Eh]
	 SCS Opposite-Spin Energy  =      -0.7882960229390807 [Eh]
	 SCS Correlation Energy    =      -0.8469130770086130 [Eh]
	 SCS Total Energy          =    -174.5758141928225768 [Eh]
	-----------------------------------------------------------

  Dipole Moment: [D]
     X:    -0.4232      Y:     4.0882      Z:     0.2228     Total:     4.1161

*** Psi4 exiting successfully. Buy a developer a beer!
