                               Psi4 1.3.2 release

  ==> Input File <==

--------------------------------------------------------------------------
#psi4
#
memory 32 gb

molecule  {
1 1
  N       -0.0947184     1.3742615     0.0650179
  C        0.0078560    -0.0677350    -0.3872370
  C       -1.1689558    -0.9053497     0.0787831
  C        1.3401060    -0.6058050     0.1026400
  H        0.0013190     0.0024560    -1.4771570
  H       -1.0129100     1.7863450    -0.2498420
  H        0.6317380     1.9558270    -0.2386540
  H       -0.1534110     1.4166430     1.1149090
  H       -1.1128870    -1.8838160    -0.2761720
  H       -1.2094360    -0.9021000     1.1949220
  H       -2.1281500    -0.4352600    -0.2575270
  H        1.4683160    -1.6231340    -0.2733960
  H        1.3705130    -0.6385200     1.1952170
  H        2.1747220    -0.0011550    -0.2602410
units angstrom
no_reorient  #important for SAPT in psi4, default
symmetry c1  #important for SAPT in psi4, default
}

set PROPERTIES_ORIGIN ["COM"]
properties('MP2/aug-cc-pvtz', properties = ['dipole'])
--------------------------------------------------------------------------

    Molecular point group: c1
  Charge       = 1
  Multiplicity = 1
  Basis Set: AUG-CC-PVTZ
    Blend: AUG-CC-PVTZ
  Basis Set: (AUG-CC-PVTZ AUX)
    Blend: AUG-CC-PVTZ-JKFIT

    Orbital Energies [Eh]
    ---------------------

    Doubly Occupied:

       1A    -15.889896     2A    -11.480605     3A    -11.399801
       4A    -11.395663     5A     -1.508721     6A     -1.248999
       7A     -1.125454     8A     -1.019493     9A     -0.973719
      10A     -0.941501    11A     -0.846769    12A     -0.791377
      13A     -0.745760    14A     -0.726650    15A     -0.713116
      16A     -0.675398    17A     -0.669651

  @DF-RHF Final Energy:  -173.72139814692127

   => Energetics <=

    Nuclear Repulsion Energy =            143.9185630889033689
    One-Electron Energy =                -510.9747775000359411
    Two-Electron Energy =                 193.3348162642113266
    Total Energy =                       -173.7213981469212740
  Basis Set: (AUG-CC-PVTZ AUX)
    Blend: AUG-CC-PVTZ-RI
    Molecular point group: c1

    Geometry (in Angstrom), charge = 1, multiplicity = 1:

       Center              X                  Y                   Z               Mass
    ------------   -----------------  -----------------  -----------------  -----------------
         N           -0.108895399929     1.374728037012     0.083052846299    14.003074004430
         C           -0.006320999929    -0.067268462988    -0.369202053701    12.000000000000
         C           -1.183132799929    -0.904883162988     0.096818046299    12.000000000000
         C            1.325929000071    -0.605338462988     0.120674946299    12.000000000000
         H           -0.012857999929     0.002922537012    -1.459122053701     1.007825032230
         H           -1.027086999929     1.786811537012    -0.231807053701     1.007825032230
         H            0.617561000071     1.956293537012    -0.220619053701     1.007825032230
         H           -0.167587999929     1.417109537012     1.132943946299     1.007825032230
         H           -1.127063999929    -1.883349462988    -0.258137053701     1.007825032230
         H           -1.223612999929    -0.901633462988     1.212956946299     1.007825032230
         H           -2.142326999929    -0.434793462988    -0.239492053701     1.007825032230
         H            1.454139000071    -1.622667462988    -0.255361053701     1.007825032230
         H            1.356336000071    -0.638053462988     1.213251946299     1.007825032230
         H            2.160545000071    -0.000688462988    -0.242206053701     1.007825032230

  Basis Set: AUG-CC-PVTZ
    Blend: AUG-CC-PVTZ
  Basis Set: (AUG-CC-PVTZ AUX)
    Blend: AUG-CC-PVTZ-JKFIT
	 Reference Energy          =    -173.7213981469212740 [Eh]
	 Singles Energy            =      -0.0000000000000000 [Eh]
	 Same-Spin Energy          =      -0.1759093452570875 [Eh]
	 Opposite-Spin Energy      =      -0.6572406762368682 [Eh]
	 Correlation Energy        =      -0.8331500214939558 [Eh]
	 Total Energy              =    -174.5545481684152378 [Eh]

	 ================> DF-SCS-MP2 Energies <==================
	-----------------------------------------------------------
	 SCS Same-Spin Scale       =       0.3333333333333333 [-]
	 SCS Opposite-Spin Scale   =       1.2000000000000000 [-]
	 SCS Same-Spin Energy      =      -0.0586364484190292 [Eh]
	 SCS Opposite-Spin Energy  =      -0.7886888114842419 [Eh]
	 SCS Correlation Energy    =      -0.8473252599032710 [Eh]
	 SCS Total Energy          =    -174.5687234068245459 [Eh]
	-----------------------------------------------------------

  Dipole Moment: [D]
     X:    -0.5473      Y:     4.1342      Z:     0.2664     Total:     4.1787

*** Psi4 exiting successfully. Buy a developer a beer!
