                               Psi4 1.4a3.dev225

  ==> Input File <==

--------------------------------------------------------------------------
#psi4
#
memory 32 gb

molecule  {
1 1
  N        0.0000020     1.3752550     0.0881560
  C        0.0000000    -0.0769010    -0.3911070
  C       -1.3165179    -0.7570606     0.1195669
  C        1.2745180    -0.7353670     0.1032760
  H        0.0000000    -0.0031690    -1.4821840
  H       -0.8310820     1.8851260    -0.2406460
  H        0.8310870     1.8851240    -0.2406470
  H        0.0000020     1.4165200     1.1165880
  H       -1.3097880    -1.7608000    -0.2705820
  H       -1.2994510    -0.7789970     1.1965910
  H       -2.1709030    -0.2224960    -0.2574420
  H        1.3097830    -1.7608040    -0.2705810
  H        1.2994490    -0.7790000     1.1965910
  H        2.1709020    -0.2225020    -0.2574420
units angstrom
no_reorient  #important for SAPT in psi4, default
symmetry c1  #important for SAPT in psi4, default
}

set PROPERTIES_ORIGIN ["COM"]
properties('MP2/aug-cc-pvtz', properties = ['dipole'])
--------------------------------------------------------------------------

    Molecular point group: c1
  Charge       = 1
  Multiplicity = 1
  Basis Set: AUG-CC-PVTZ
    Blend: AUG-CC-PVTZ
  Basis Set: (AUG-CC-PVTZ AUX)
    Blend: AUG-CC-PVTZ-JKFIT

    Orbital Energies [Eh]
    ---------------------

    Doubly Occupied:

       1A    -15.886602     2A    -11.483695     3A    -11.397603
       4A    -11.397159     5A     -1.501642     6A     -1.240641
       7A     -1.126124     8A     -1.018060     9A     -0.955773
      10A     -0.948885    11A     -0.844731    12A     -0.792816
      13A     -0.739479    14A     -0.722623    15A     -0.712627
      16A     -0.686533    17A     -0.670092

  @DF-RHF Final Energy:  -173.72737597449023

   => Energetics <=

    Nuclear Repulsion Energy =            143.0669340161209959
    One-Electron Energy =                -509.3384548187124210
    Two-Electron Energy =                 192.5441448281012242
    Total Energy =                       -173.7273759744902293
  Basis Set: (AUG-CC-PVTZ AUX)
    Blend: AUG-CC-PVTZ-RI
    Molecular point group: c1

    Geometry (in Angstrom), charge = 1, multiplicity = 1:

       Center              X                  Y                   Z               Mass
    ------------   -----------------  -----------------  -----------------  -----------------
         N            0.008390160669     1.373887053795     0.092993310438    14.003074004430
         C            0.008388160669    -0.078268946205    -0.386269689562    12.000000000000
         C           -1.308129739331    -0.758428546205     0.124404210438    12.000000000000
         C            1.282906160669    -0.736734946205     0.108113310438    12.000000000000
         H            0.008388160669    -0.004536946205    -1.477346689562     1.007825032230
         H           -0.822693839331     1.883758053795    -0.235808689562     1.007825032230
         H            0.839475160669     1.883756053795    -0.235809689562     1.007825032230
         H            0.008390160669     1.415152053795     1.121425310438     1.007825032230
         H           -1.301399839331    -1.762167946205    -0.265744689562     1.007825032230
         H           -1.291062839331    -0.780364946205     1.201428310438     1.007825032230
         H           -2.162514839331    -0.223863946205    -0.252604689562     1.007825032230
         H            1.318171160669    -1.762171946205    -0.265743689562     1.007825032230
         H            1.307837160669    -0.780367946205     1.201428310438     1.007825032230
         H            2.179290160669    -0.223869946205    -0.252604689562     1.007825032230

  Basis Set: AUG-CC-PVTZ
    Blend: AUG-CC-PVTZ
  Basis Set: (AUG-CC-PVTZ AUX)
    Blend: AUG-CC-PVTZ-JKFIT
	 Reference Energy          =    -173.7273759744902293 [Eh]
	 Singles Energy            =      -0.0000000000000000 [Eh]
	 Same-Spin Energy          =      -0.1754367053930702 [Eh]
	 Opposite-Spin Energy      =      -0.6568158568536830 [Eh]
	 Correlation Energy        =      -0.8322525622467533 [Eh]
	 Total Energy              =    -174.5596285367369944 [Eh]

	 ================> DF-SCS-MP2 Energies <==================
	-----------------------------------------------------------
	 SCS Same-Spin Scale       =       0.3333333333333333 [-]
	 SCS Opposite-Spin Scale   =       1.2000000000000000 [-]
	 SCS Same-Spin Energy      =      -0.0584789017976901 [Eh]
	 SCS Opposite-Spin Energy  =      -0.7881790282244197 [Eh]
	 SCS Correlation Energy    =      -0.8466579300221098 [Eh]
	 SCS Total Energy          =    -174.5740339045123335 [Eh]
	-----------------------------------------------------------

  Dipole Moment: [D]
     X:     0.0421      Y:     4.1030      Z:     0.1898     Total:     4.1076

*** Psi4 exiting successfully. Buy a developer a beer!
