                               Psi4 1.3.2 release

  ==> Input File <==

--------------------------------------------------------------------------
#psi4
#
memory 32 gb

molecule  {
1 1
  N       -0.1404670     1.3625770     0.0888070
  C        0.0075222    -0.0635382    -0.3997671
  C       -1.1890530    -0.8623480     0.1023120
  C        1.3401060    -0.6058050     0.1026400
  H        0.0013190     0.0024560    -1.4771570
  H       -1.0129100     1.7863450    -0.2498420
  H        0.6317380     1.9558270    -0.2386540
  H       -0.1543093     1.4255503     1.1143892
  H       -1.1128870    -1.8838160    -0.2761720
  H       -1.2094360    -0.9021000     1.1949220
  H       -2.1281500    -0.4352600    -0.2575270
  H        1.4683160    -1.6231340    -0.2733960
  H        1.3705130    -0.6385200     1.1952170
  H        2.1747220    -0.0011550    -0.2602410
units angstrom
no_reorient  #important for SAPT in psi4, default
symmetry c1  #important for SAPT in psi4, default
}

set PROPERTIES_ORIGIN ["COM"]
properties('MP2/aug-cc-pvtz', properties = ['dipole'])
--------------------------------------------------------------------------

    Molecular point group: c1
  Charge       = 1
  Multiplicity = 1
  Basis Set: AUG-CC-PVTZ
    Blend: AUG-CC-PVTZ
  Basis Set: (AUG-CC-PVTZ AUX)
    Blend: AUG-CC-PVTZ-JKFIT

    Orbital Energies [Eh]
    ---------------------

    Doubly Occupied:

       1A    -15.888111     2A    -11.480235     3A    -11.397318
       4A    -11.397273     5A     -1.507628     6A     -1.246422
       7A     -1.124851     8A     -1.021868     9A     -0.957620
      10A     -0.950889    11A     -0.852459    12A     -0.793018
      13A     -0.739407    14A     -0.715704    15A     -0.713765
      16A     -0.682718    17A     -0.675052

  @DF-RHF Final Energy:  -173.72902853686298

   => Energetics <=

    Nuclear Repulsion Energy =            143.9421458528736366
    One-Electron Energy =                -511.0536755213873903
    Two-Electron Energy =                 193.3825011316507698
    Total Energy =                       -173.7290285368629839
  Basis Set: (AUG-CC-PVTZ AUX)
    Blend: AUG-CC-PVTZ-RI
    Molecular point group: c1

    Geometry (in Angstrom), charge = 1, multiplicity = 1:

       Center              X                  Y                   Z               Mass
    ------------   -----------------  -----------------  -----------------  -----------------
         N           -0.139885697402     1.356190490973     0.099109389376    14.003074004430
         C            0.008103502598    -0.069924709027    -0.389464710624    12.000000000000
         C           -1.188471697402    -0.868734509027     0.112614389376    12.000000000000
         C            1.340687302598    -0.612191509027     0.112942389376    12.000000000000
         H            0.001900302598    -0.003930509027    -1.466854610624     1.007825032230
         H           -1.012328697402     1.779958490973    -0.239539610624     1.007825032230
         H            0.632319302598     1.949440490973    -0.228351610624     1.007825032230
         H           -0.153727997402     1.419163790973     1.124691589376     1.007825032230
         H           -1.112305697402    -1.890202509027    -0.265869610624     1.007825032230
         H           -1.208854697402    -0.908486509027     1.205224389376     1.007825032230
         H           -2.127568697402    -0.441646509027    -0.247224610624     1.007825032230
         H            1.468897302598    -1.629520509027    -0.263093610624     1.007825032230
         H            1.371094302598    -0.644906509027     1.205519389376     1.007825032230
         H            2.175303302598    -0.007541509027    -0.249938610624     1.007825032230

  Basis Set: AUG-CC-PVTZ
    Blend: AUG-CC-PVTZ
  Basis Set: (AUG-CC-PVTZ AUX)
    Blend: AUG-CC-PVTZ-JKFIT
	 Reference Energy          =    -173.7290285368629839 [Eh]
	 Singles Energy            =      -0.0000000000000000 [Eh]
	 Same-Spin Energy          =      -0.1757401251751116 [Eh]
	 Opposite-Spin Energy      =      -0.6567990159932787 [Eh]
	 Correlation Energy        =      -0.8325391411683902 [Eh]
	 Total Energy              =    -174.5615676780313663 [Eh]

	 ================> DF-SCS-MP2 Energies <==================
	-----------------------------------------------------------
	 SCS Same-Spin Scale       =       0.3333333333333333 [-]
	 SCS Opposite-Spin Scale   =       1.2000000000000000 [-]
	 SCS Same-Spin Energy      =      -0.0585800417250372 [Eh]
	 SCS Opposite-Spin Energy  =      -0.7881588191919344 [Eh]
	 SCS Correlation Energy    =      -0.8467388609169716 [Eh]
	 SCS Total Energy          =    -174.5757673977799413 [Eh]
	-----------------------------------------------------------

  Dipole Moment: [D]
     X:    -0.4257      Y:     4.1128      Z:     0.2058     Total:     4.1399

*** Psi4 exiting successfully. Buy a developer a beer!
