                               Psi4 1.3.2 release

  ==> Input File <==

--------------------------------------------------------------------------
#psi4
#
memory 32 gb

molecule  {
1 1
  N       -0.1404670     1.3625770     0.0888070
  C        0.0090782    -0.0834299    -0.3367636
  C       -1.1890530    -0.8623480     0.1023120
  C        1.3401060    -0.6058050     0.1026400
  H        0.0013190     0.0024560    -1.4771570
  H       -1.0129100     1.7863450    -0.2498420
  H        0.6317380     1.9558270    -0.2386540
  H       -0.1498085     1.3809795     1.1162067
  H       -1.1128870    -1.8838160    -0.2761720
  H       -1.2094360    -0.9021000     1.1949220
  H       -2.1281500    -0.4352600    -0.2575270
  H        1.4683160    -1.6231340    -0.2733960
  H        1.3705130    -0.6385200     1.1952170
  H        2.1747220    -0.0011550    -0.2602410
units angstrom
no_reorient  #important for SAPT in psi4, default
symmetry c1  #important for SAPT in psi4, default
}

set PROPERTIES_ORIGIN ["COM"]
properties('MP2/aug-cc-pvtz', properties = ['dipole'])
--------------------------------------------------------------------------

    Molecular point group: c1
  Charge       = 1
  Multiplicity = 1
  Basis Set: AUG-CC-PVTZ
    Blend: AUG-CC-PVTZ
  Basis Set: (AUG-CC-PVTZ AUX)
    Blend: AUG-CC-PVTZ-JKFIT

    Orbital Energies [Eh]
    ---------------------

    Doubly Occupied:

       1A    -15.888176     2A    -11.482877     3A    -11.397279
       4A    -11.397254     5A     -1.508396     6A     -1.252867
       7A     -1.131906     8A     -1.011867     9A     -0.965610
      10A     -0.950974    11A     -0.843055    12A     -0.799595
      13A     -0.741836    14A     -0.718900    15A     -0.715490
      16A     -0.688437    17A     -0.664644

  @DF-RHF Final Energy:  -173.72483174527585

   => Energetics <=

    Nuclear Repulsion Energy =            144.4177099066346557
    One-Electron Energy =                -511.9667566807748926
    Two-Electron Energy =                 193.8242150288644154
    Total Energy =                       -173.7248317452758499
  Basis Set: (AUG-CC-PVTZ AUX)
    Blend: AUG-CC-PVTZ-RI
    Molecular point group: c1

    Geometry (in Angstrom), charge = 1, multiplicity = 1:

       Center              X                  Y                   Z               Mass
    ------------   -----------------  -----------------  -----------------  -----------------
         N           -0.140271974156     1.360911092110     0.086495257939    14.003074004430
         C            0.009273225844    -0.085095807890    -0.339075342061    12.000000000000
         C           -1.188857974156    -0.864013907890     0.100000257939    12.000000000000
         C            1.340301025844    -0.607470907890     0.100328257939    12.000000000000
         H            0.001514025844     0.000790092110    -1.479468742061     1.007825032230
         H           -1.012714974156     1.784679092110    -0.252153742061     1.007825032230
         H            0.631933025844     1.954161092110    -0.240965742061     1.007825032230
         H           -0.149613474156     1.379313592110     1.113894957939     1.007825032230
         H           -1.112691974156    -1.885481907890    -0.278483742061     1.007825032230
         H           -1.209240974156    -0.903765907890     1.192610257939     1.007825032230
         H           -2.127954974156    -0.436925907890    -0.259838742061     1.007825032230
         H            1.468511025844    -1.624799907890    -0.275707742061     1.007825032230
         H            1.370708025844    -0.640185907890     1.192905257939     1.007825032230
         H            2.174917025844    -0.002820907890    -0.262552742061     1.007825032230

  Basis Set: AUG-CC-PVTZ
    Blend: AUG-CC-PVTZ
  Basis Set: (AUG-CC-PVTZ AUX)
    Blend: AUG-CC-PVTZ-JKFIT
	 Reference Energy          =    -173.7248317452758499 [Eh]
	 Singles Energy            =      -0.0000000000000000 [Eh]
	 Same-Spin Energy          =      -0.1763591223202136 [Eh]
	 Opposite-Spin Energy      =      -0.6575478438589177 [Eh]
	 Correlation Energy        =      -0.8339069661791314 [Eh]
	 Total Energy              =    -174.5587387114549927 [Eh]

	 ================> DF-SCS-MP2 Energies <==================
	-----------------------------------------------------------
	 SCS Same-Spin Scale       =       0.3333333333333333 [-]
	 SCS Opposite-Spin Scale   =       1.2000000000000000 [-]
	 SCS Same-Spin Energy      =      -0.0587863741067379 [Eh]
	 SCS Opposite-Spin Energy  =      -0.7890574126307013 [Eh]
	 SCS Correlation Energy    =      -0.8478437867374391 [Eh]
	 SCS Total Energy          =    -174.5726755320132781 [Eh]
	-----------------------------------------------------------

  Dipole Moment: [D]
     X:    -0.4193      Y:     4.0490      Z:     0.1802     Total:     4.0746

*** Psi4 exiting successfully. Buy a developer a beer!
