                               Psi4 1.3.2 release

  ==> Input File <==

--------------------------------------------------------------------------
#psi4
#
memory 32 gb

molecule  {
1 1
  N       -0.1404670     1.3625770     0.0888070
  C        0.0064531    -0.0502975    -0.4371304
  C       -1.1890530    -0.8623480     0.1023120
  C        1.3401060    -0.6058050     0.1026400
  H        0.0013190     0.0024560    -1.4771570
  H       -1.0129100     1.7863450    -0.2498420
  H        0.6317380     1.9558270    -0.2386540
  H       -0.1569977     1.4522406     1.1123612
  H       -1.1128870    -1.8838160    -0.2761720
  H       -1.2094360    -0.9021000     1.1949220
  H       -2.1281500    -0.4352600    -0.2575270
  H        1.4683160    -1.6231340    -0.2733960
  H        1.3705130    -0.6385200     1.1952170
  H        2.1747220    -0.0011550    -0.2602410
units angstrom
no_reorient  #important for SAPT in psi4, default
symmetry c1  #important for SAPT in psi4, default
}

set PROPERTIES_ORIGIN ["COM"]
properties('MP2/aug-cc-pvtz', properties = ['dipole'])
--------------------------------------------------------------------------

    Molecular point group: c1
  Charge       = 1
  Multiplicity = 1
  Basis Set: AUG-CC-PVTZ
    Blend: AUG-CC-PVTZ
  Basis Set: (AUG-CC-PVTZ AUX)
    Blend: AUG-CC-PVTZ-JKFIT

    Orbital Energies [Eh]
    ---------------------

    Doubly Occupied:

       1A    -15.888254     2A    -11.479133     3A    -11.397660
       4A    -11.397605     5A     -1.507416     6A     -1.242862
       7A     -1.120809     8A     -1.028280     9A     -0.952827
      10A     -0.950972    11A     -0.860359    12A     -0.788402
      13A     -0.738142    14A     -0.714083    15A     -0.713283
      16A     -0.690900    17A     -0.666427

  @DF-RHF Final Energy:  -173.72572198083259

   => Energetics <=

    Nuclear Repulsion Energy =            143.6500977751101118
    One-Electron Energy =                -510.4768089004464855
    Two-Electron Energy =                 193.1009891445037852
    Total Energy =                       -173.7257219808325885
  Basis Set: (AUG-CC-PVTZ AUX)
    Blend: AUG-CC-PVTZ-RI
    Molecular point group: c1

    Geometry (in Angstrom), charge = 1, multiplicity = 1:

       Center              X                  Y                   Z               Mass
    ------------   -----------------  -----------------  -----------------  -----------------
         N           -0.139627070666     1.353098223042     0.106605952979    14.003074004430
         C            0.007293029334    -0.059776276958    -0.419331447021    12.000000000000
         C           -1.188213070666    -0.871826776958     0.120110952979    12.000000000000
         C            1.340945929334    -0.615283776958     0.120438952979    12.000000000000
         H            0.002158929334    -0.007022776958    -1.459358047021     1.007825032230
         H           -1.012070070666     1.776866223042    -0.232043047021     1.007825032230
         H            0.632577929334     1.946348223042    -0.220855047021     1.007825032230
         H           -0.156157770666     1.442761823042     1.130160152979     1.007825032230
         H           -1.112047070666    -1.893294776958    -0.258373047021     1.007825032230
         H           -1.208596070666    -0.911578776958     1.212720952979     1.007825032230
         H           -2.127310070666    -0.444738776958    -0.239728047021     1.007825032230
         H            1.469155929334    -1.632612776958    -0.255597047021     1.007825032230
         H            1.371352929334    -0.647998776958     1.213015952979     1.007825032230
         H            2.175561929334    -0.010633776958    -0.242442047021     1.007825032230

  Basis Set: AUG-CC-PVTZ
    Blend: AUG-CC-PVTZ
  Basis Set: (AUG-CC-PVTZ AUX)
    Blend: AUG-CC-PVTZ-JKFIT
	 Reference Energy          =    -173.7257219808325885 [Eh]
	 Singles Energy            =      -0.0000000000000000 [Eh]
	 Same-Spin Energy          =      -0.1754872430672944 [Eh]
	 Opposite-Spin Energy      =      -0.6566734121710354 [Eh]
	 Correlation Energy        =      -0.8321606552383297 [Eh]
	 Total Energy              =    -174.5578826360709286 [Eh]

	 ================> DF-SCS-MP2 Energies <==================
	-----------------------------------------------------------
	 SCS Same-Spin Scale       =       0.3333333333333333 [-]
	 SCS Opposite-Spin Scale   =       1.2000000000000000 [-]
	 SCS Same-Spin Energy      =      -0.0584957476890981 [Eh]
	 SCS Opposite-Spin Energy  =      -0.7880080946052425 [Eh]
	 SCS Correlation Energy    =      -0.8465038422943406 [Eh]
	 SCS Total Energy          =    -174.5722258231269279 [Eh]
	-----------------------------------------------------------

  Dipole Moment: [D]
     X:    -0.4296      Y:     4.1507      Z:     0.2269     Total:     4.1790

*** Psi4 exiting successfully. Buy a developer a beer!
