                               Psi4 1.3.2 release

  ==> Input File <==

--------------------------------------------------------------------------
#psi4
#
memory 32 gb

molecule  {
1 1
  N       -0.1412830     1.3706249     0.0636383
  C        0.0078560    -0.0677350    -0.3872370
  C       -1.1890530    -0.8623480     0.1023120
  C        1.3401060    -0.6058050     0.1026400
  H       -0.0006387     0.0213659    -1.4757608
  H       -1.0129100     1.7863450    -0.2498420
  H        0.6317380     1.9558270    -0.2386540
  H       -0.1534110     1.4166430     1.1149090
  H       -1.1128870    -1.8838160    -0.2761720
  H       -1.2094360    -0.9021000     1.1949220
  H       -2.1281500    -0.4352600    -0.2575270
  H        1.4683160    -1.6231340    -0.2733960
  H        1.3705130    -0.6385200     1.1952170
  H        2.1747220    -0.0011550    -0.2602410
units angstrom
no_reorient  #important for SAPT in psi4, default
symmetry c1  #important for SAPT in psi4, default
}

set PROPERTIES_ORIGIN ["COM"]
properties('MP2/aug-cc-pvtz', properties = ['dipole'])
--------------------------------------------------------------------------

    Molecular point group: c1
  Charge       = 1
  Multiplicity = 1
  Basis Set: AUG-CC-PVTZ
    Blend: AUG-CC-PVTZ
  Basis Set: (AUG-CC-PVTZ AUX)
    Blend: AUG-CC-PVTZ-JKFIT

    Orbital Energies [Eh]
    ---------------------

    Doubly Occupied:

       1A    -15.887672     2A    -11.480783     3A    -11.397770
       4A    -11.397732     5A     -1.507602     6A     -1.247759
       7A     -1.126592     8A     -1.019156     9A     -0.958761
      10A     -0.954527    11A     -0.845027    12A     -0.794807
      13A     -0.740522    14A     -0.716765    15A     -0.714794
      16A     -0.679833    17A     -0.678241

  @DF-RHF Final Energy:  -173.72815426880575

   => Energetics <=

    Nuclear Repulsion Energy =            143.9815771845517247
    One-Electron Energy =                -511.1227806427409632
    Two-Electron Energy =                 193.4130491893834858
    Total Energy =                       -173.7281542688057527
  Basis Set: (AUG-CC-PVTZ AUX)
    Blend: AUG-CC-PVTZ-RI
    Molecular point group: c1

    Geometry (in Angstrom), charge = 1, multiplicity = 1:

       Center              X                  Y                   Z               Mass
    ------------   -----------------  -----------------  -----------------  -----------------
         N           -0.140560412264     1.363033114445     0.077271957090    14.003074004430
         C            0.008578587736    -0.075326785555    -0.373603342910    12.000000000000
         C           -1.188330412264    -0.869939785555     0.115945657090    12.000000000000
         C            1.340828587736    -0.613396785555     0.116273657090    12.000000000000
         H            0.000083887736     0.013774114445    -1.462127142910     1.007825032230
         H           -1.012187412264     1.778753214445    -0.236208342910     1.007825032230
         H            0.632460587736     1.948235214445    -0.225020342910     1.007825032230
         H           -0.152688412264     1.409051214445     1.128542657090     1.007825032230
         H           -1.112164412264    -1.891407785555    -0.262538342910     1.007825032230
         H           -1.208713412264    -0.909691785555     1.208555657090     1.007825032230
         H           -2.127427412264    -0.442851785555    -0.243893342910     1.007825032230
         H            1.469038587736    -1.630725785555    -0.259762342910     1.007825032230
         H            1.371235587736    -0.646111785555     1.208850657090     1.007825032230
         H            2.175444587736    -0.008746785555    -0.246607342910     1.007825032230

  Basis Set: AUG-CC-PVTZ
    Blend: AUG-CC-PVTZ
  Basis Set: (AUG-CC-PVTZ AUX)
    Blend: AUG-CC-PVTZ-JKFIT
	 Reference Energy          =    -173.7281542688057527 [Eh]
	 Singles Energy            =      -0.0000000000000000 [Eh]
	 Same-Spin Energy          =      -0.1758703415024411 [Eh]
	 Opposite-Spin Energy      =      -0.6569635626887635 [Eh]
	 Correlation Energy        =      -0.8328339041912047 [Eh]
	 Total Energy              =    -174.5609881729969572 [Eh]

	 ================> DF-SCS-MP2 Energies <==================
	-----------------------------------------------------------
	 SCS Same-Spin Scale       =       0.3333333333333333 [-]
	 SCS Opposite-Spin Scale   =       1.2000000000000000 [-]
	 SCS Same-Spin Energy      =      -0.0586234471674804 [Eh]
	 SCS Opposite-Spin Energy  =      -0.7883562752265162 [Eh]
	 SCS Correlation Energy    =      -0.8469797223939965 [Eh]
	 SCS Total Energy          =    -174.5751339911997491 [Eh]
	-----------------------------------------------------------

  Dipole Moment: [D]
     X:    -0.4219      Y:     4.0761      Z:     0.2457     Total:     4.1053

*** Psi4 exiting successfully. Buy a developer a beer!
