                               Psi4 1.4a3.dev225

  ==> Input File <==

--------------------------------------------------------------------------
#psi4
#
memory 32 gb

molecule  {
1 1
  N        0.0000020     1.3752550     0.0881560
  C        0.0000000    -0.0769010    -0.3911070
  C       -1.2745200    -0.7353630     0.1032760
  C        1.2745180    -0.7353670     0.1032760
  H        0.0000000    -0.0031690    -1.4821840
  H       -0.8149283     1.8752157    -0.2342551
  H        0.8310870     1.8851240    -0.2406470
  H        0.0000020     1.4165200     1.1165880
  H       -1.3097880    -1.7608000    -0.2705820
  H       -1.2994510    -0.7789970     1.1965910
  H       -2.1709030    -0.2224960    -0.2574420
  H        1.3097830    -1.7608040    -0.2705810
  H        1.2994490    -0.7790000     1.1965910
  H        2.1709020    -0.2225020    -0.2574420
units angstrom
no_reorient  #important for SAPT in psi4, default
symmetry c1  #important for SAPT in psi4, default
}

set PROPERTIES_ORIGIN ["COM"]
properties('MP2/aug-cc-pvtz', properties = ['dipole'])
--------------------------------------------------------------------------

    Molecular point group: c1
  Charge       = 1
  Multiplicity = 1
  Basis Set: AUG-CC-PVTZ
    Blend: AUG-CC-PVTZ
  Basis Set: (AUG-CC-PVTZ AUX)
    Blend: AUG-CC-PVTZ-JKFIT

    Orbital Energies [Eh]
    ---------------------

    Doubly Occupied:

       1A    -15.885409     2A    -11.483160     3A    -11.397976
       4A    -11.397954     5A     -1.506038     6A     -1.248017
       7A     -1.126673     8A     -1.017548     9A     -0.959625
      10A     -0.952493    11A     -0.847552    12A     -0.795513
      13A     -0.741060    14A     -0.715585    15A     -0.711767
      16A     -0.680434    17A     -0.680316

  @DF-RHF Final Energy:  -173.72935606215708

   => Energetics <=

    Nuclear Repulsion Energy =            143.8066196284237321
    One-Electron Energy =                -510.7777129450649909
    Two-Electron Energy =                 193.2417372544841783
    Total Energy =                       -173.7293560621570805
  Basis Set: (AUG-CC-PVTZ AUX)
    Blend: AUG-CC-PVTZ-RI
    Molecular point group: c1

    Geometry (in Angstrom), charge = 1, multiplicity = 1:

       Center              X                  Y                   Z               Mass
    ------------   -----------------  -----------------  -----------------  -----------------
         N           -0.000269017687     1.369719646462     0.096139877081    14.003074004430
         C           -0.000271017687    -0.082436353538    -0.383123122919    12.000000000000
         C           -1.274791017687    -0.740898353538     0.111259877081    12.000000000000
         C            1.274246982313    -0.740902353538     0.111259877081    12.000000000000
         H           -0.000271017687    -0.008704353538    -1.474200122919     1.007825032230
         H           -0.815199317687     1.869680346462    -0.226271222919     1.007825032230
         H            0.830815982313     1.879588646462    -0.232663122919     1.007825032230
         H           -0.000269017687     1.410984646462     1.124571877081     1.007825032230
         H           -1.310059017687    -1.766335353538    -0.262598122919     1.007825032230
         H           -1.299722017687    -0.784532353538     1.204574877081     1.007825032230
         H           -2.171174017687    -0.228031353538    -0.249458122919     1.007825032230
         H            1.309511982313    -1.766339353538    -0.262597122919     1.007825032230
         H            1.299177982313    -0.784535353538     1.204574877081     1.007825032230
         H            2.170630982313    -0.228037353538    -0.249458122919     1.007825032230

  Basis Set: AUG-CC-PVTZ
    Blend: AUG-CC-PVTZ
  Basis Set: (AUG-CC-PVTZ AUX)
    Blend: AUG-CC-PVTZ-JKFIT
	 Reference Energy          =    -173.7293560621570805 [Eh]
	 Singles Energy            =      -0.0000000000000000 [Eh]
	 Same-Spin Energy          =      -0.1756775647954107 [Eh]
	 Opposite-Spin Energy      =      -0.6566655336449652 [Eh]
	 Correlation Energy        =      -0.8323430984403759 [Eh]
	 Total Energy              =    -174.5616991605974704 [Eh]

	 ================> DF-SCS-MP2 Energies <==================
	-----------------------------------------------------------
	 SCS Same-Spin Scale       =       0.3333333333333333 [-]
	 SCS Opposite-Spin Scale   =       1.2000000000000000 [-]
	 SCS Same-Spin Energy      =      -0.0585591882651369 [Eh]
	 SCS Opposite-Spin Energy  =      -0.7879986403739582 [Eh]
	 SCS Correlation Energy    =      -0.8465578286390950 [Eh]
	 SCS Total Energy          =    -174.5759138907961869 [Eh]
	-----------------------------------------------------------

  Dipole Moment: [D]
     X:     0.0199      Y:     4.0526      Z:     0.2085     Total:     4.0580

*** Psi4 exiting successfully. Buy a developer a beer!
