                               Psi4 1.3.2 release

  ==> Input File <==

--------------------------------------------------------------------------
#psi4
#
memory 32 gb

molecule  {
1 1
  N       -0.1404670     1.3625770     0.0888070
  C        0.0078560    -0.0677350    -0.3872370
  C       -1.2360279    -0.8122212     0.0623766
  C        1.3760672    -0.5472535     0.0627065
  H        0.0013190     0.0024560    -1.4771570
  H       -1.0129100     1.7863450    -0.2498420
  H        0.6317380     1.9558270    -0.2386540
  H       -0.1534110     1.4166430     1.1149090
  H       -1.1128870    -1.8838160    -0.2761720
  H       -1.2094360    -0.9021000     1.1949220
  H       -2.1281500    -0.4352600    -0.2575270
  H        1.4683160    -1.6231340    -0.2733960
  H        1.3705130    -0.6385200     1.1952170
  H        2.1747220    -0.0011550    -0.2602410
units angstrom
no_reorient  #important for SAPT in psi4, default
symmetry c1  #important for SAPT in psi4, default
}

set PROPERTIES_ORIGIN ["COM"]
properties('MP2/aug-cc-pvtz', properties = ['dipole'])
--------------------------------------------------------------------------

    Molecular point group: c1
  Charge       = 1
  Multiplicity = 1
  Basis Set: AUG-CC-PVTZ
    Blend: AUG-CC-PVTZ
  Basis Set: (AUG-CC-PVTZ AUX)
    Blend: AUG-CC-PVTZ-JKFIT

    Orbital Energies [Eh]
    ---------------------

    Doubly Occupied:

       1A    -15.885554     2A    -11.482203     3A    -11.400012
       4A    -11.399977     5A     -1.506919     6A     -1.246107
       7A     -1.133474     8A     -1.017510     9A     -0.958608
      10A     -0.949202    11A     -0.849771    12A     -0.811854
      13A     -0.740387    14A     -0.712361    15A     -0.699375
      16A     -0.694379    17A     -0.665454

  @DF-RHF Final Energy:  -173.71322576848650

   => Energetics <=

    Nuclear Repulsion Energy =            143.9692464350138437
    One-Electron Energy =                -511.0586487440833139
    Two-Electron Energy =                 193.3761765405829465
    Total Energy =                       -173.7132257684864953
  Basis Set: (AUG-CC-PVTZ AUX)
    Blend: AUG-CC-PVTZ-RI
    Molecular point group: c1

    Geometry (in Angstrom), charge = 1, multiplicity = 1:

       Center              X                  Y                   Z               Mass
    ------------   -----------------  -----------------  -----------------  -----------------
         N           -0.137767676999     1.335471889743     0.112550200503    14.003074004430
         C            0.010555323001    -0.094840110257    -0.363493799497    12.000000000000
         C           -1.233328576999    -0.839326310257     0.086119800503    12.000000000000
         C            1.378766523001    -0.574358610257     0.086449700503    12.000000000000
         H            0.004018323001    -0.024649110257    -1.453413799497     1.007825032230
         H           -1.010210676999     1.759239889743    -0.226098799497     1.007825032230
         H            0.634437323001     1.928721889743    -0.214910799497     1.007825032230
         H           -0.150711676999     1.389537889743     1.138652200503     1.007825032230
         H           -1.110187676999    -1.910921110257    -0.252428799497     1.007825032230
         H           -1.206736676999    -0.929205110257     1.218665200503     1.007825032230
         H           -2.125450676999    -0.462365110257    -0.233783799497     1.007825032230
         H            1.471015323001    -1.650239110257    -0.249652799497     1.007825032230
         H            1.373212323001    -0.665625110257     1.218960200503     1.007825032230
         H            2.177421323001    -0.028260110257    -0.236497799497     1.007825032230

  Basis Set: AUG-CC-PVTZ
    Blend: AUG-CC-PVTZ
  Basis Set: (AUG-CC-PVTZ AUX)
    Blend: AUG-CC-PVTZ-JKFIT
	 Reference Energy          =    -173.7132257684864953 [Eh]
	 Singles Energy            =      -0.0000000000000000 [Eh]
	 Same-Spin Energy          =      -0.1762376387984155 [Eh]
	 Opposite-Spin Energy      =      -0.6576763833506887 [Eh]
	 Correlation Energy        =      -0.8339140221491042 [Eh]
	 Total Energy              =    -174.5471397906356117 [Eh]

	 ================> DF-SCS-MP2 Energies <==================
	-----------------------------------------------------------
	 SCS Same-Spin Scale       =       0.3333333333333333 [-]
	 SCS Opposite-Spin Scale   =       1.2000000000000000 [-]
	 SCS Same-Spin Energy      =      -0.0587458795994718 [Eh]
	 SCS Opposite-Spin Energy  =      -0.7892116600208264 [Eh]
	 SCS Correlation Energy    =      -0.8479575396202983 [Eh]
	 SCS Total Energy          =    -174.5611833081067914 [Eh]
	-----------------------------------------------------------

  Dipole Moment: [D]
     X:    -0.4099      Y:     3.9582      Z:     0.2358     Total:     3.9864

*** Psi4 exiting successfully. Buy a developer a beer!
