                               Psi4 1.3.2 release

  ==> Input File <==

--------------------------------------------------------------------------
#psi4
#
memory 32 gb

molecule  {
1 1
  N       -0.1404670     1.3625770     0.0888070
  C        0.0056844    -0.0409318    -0.4618406
  C       -1.1890530    -0.8623480     0.1023120
  C        1.3401060    -0.6058050     0.1026400
  H        0.0013190     0.0024560    -1.4771570
  H       -1.0129100     1.7863450    -0.2498420
  H        0.6317380     1.9558270    -0.2386540
  H       -0.1587837     1.4700011     1.1106194
  H       -1.1128870    -1.8838160    -0.2761720
  H       -1.2094360    -0.9021000     1.1949220
  H       -2.1281500    -0.4352600    -0.2575270
  H        1.4683160    -1.6231340    -0.2733960
  H        1.3705130    -0.6385200     1.1952170
  H        2.1747220    -0.0011550    -0.2602410
units angstrom
no_reorient  #important for SAPT in psi4, default
symmetry c1  #important for SAPT in psi4, default
}

set PROPERTIES_ORIGIN ["COM"]
properties('MP2/aug-cc-pvtz', properties = ['dipole'])
--------------------------------------------------------------------------

    Molecular point group: c1
  Charge       = 1
  Multiplicity = 1
  Basis Set: AUG-CC-PVTZ
    Blend: AUG-CC-PVTZ
  Basis Set: (AUG-CC-PVTZ AUX)
    Blend: AUG-CC-PVTZ-JKFIT

    Orbital Energies [Eh]
    ---------------------

    Doubly Occupied:

       1A    -15.888420     2A    -11.478579     3A    -11.398009
       4A    -11.397949     5A     -1.507368     6A     -1.240660
       7A     -1.118204     8A     -1.032672     9A     -0.951081
      10A     -0.949658    11A     -0.866442    12A     -0.785150
      13A     -0.737330    14A     -0.713621    15A     -0.713094
      16A     -0.694763    17A     -0.660540

  @DF-RHF Final Energy:  -173.72085306822734

   => Energetics <=

    Nuclear Repulsion Energy =            143.4540641142568518
    One-Electron Energy =                -510.0827549673608132
    Two-Electron Energy =                 192.9078377848766479
    Total Energy =                       -173.7208530682273420
  Basis Set: (AUG-CC-PVTZ AUX)
    Blend: AUG-CC-PVTZ-RI
    Molecular point group: c1

    Geometry (in Angstrom), charge = 1, multiplicity = 1:

       Center              X                  Y                   Z               Mass
    ------------   -----------------  -----------------  -----------------  -----------------
         N           -0.139443579779     1.350929697665     0.111570521137    14.003074004430
         C            0.006707820221    -0.052579102335    -0.439077078863    12.000000000000
         C           -1.188029579779    -0.873995302335     0.125075521137    12.000000000000
         C            1.341129420221    -0.617452302335     0.125403521137    12.000000000000
         H            0.002342420221    -0.009191302335    -1.454393478863     1.007825032230
         H           -1.011886579779     1.774697697665    -0.227078478863     1.007825032230
         H            0.632761420221     1.944179697665    -0.215890478863     1.007825032230
         H           -0.157760279779     1.458353797665     1.133382921137     1.007825032230
         H           -1.111863579779    -1.895463302335    -0.253408478863     1.007825032230
         H           -1.208412579779    -0.913747302335     1.217685521137     1.007825032230
         H           -2.127126579779    -0.446907302335    -0.234763478863     1.007825032230
         H            1.469339420221    -1.634781302335    -0.250632478863     1.007825032230
         H            1.371536420221    -0.650167302335     1.217980521137     1.007825032230
         H            2.175745420221    -0.012802302335    -0.237477478863     1.007825032230

  Basis Set: AUG-CC-PVTZ
    Blend: AUG-CC-PVTZ
  Basis Set: (AUG-CC-PVTZ AUX)
    Blend: AUG-CC-PVTZ-JKFIT
	 Reference Energy          =    -173.7208530682273420 [Eh]
	 Singles Energy            =      -0.0000000000000000 [Eh]
	 Same-Spin Energy          =      -0.1753704040918093 [Eh]
	 Opposite-Spin Energy      =      -0.6567333507523458 [Eh]
	 Correlation Energy        =      -0.8321037548441551 [Eh]
	 Total Energy              =    -174.5529568230714972 [Eh]

	 ================> DF-SCS-MP2 Energies <==================
	-----------------------------------------------------------
	 SCS Same-Spin Scale       =       0.3333333333333333 [-]
	 SCS Opposite-Spin Scale   =       1.2000000000000000 [-]
	 SCS Same-Spin Energy      =      -0.0584568013639364 [Eh]
	 SCS Opposite-Spin Energy  =      -0.7880800209028150 [Eh]
	 SCS Correlation Energy    =      -0.8465368222667514 [Eh]
	 SCS Total Energy          =    -174.5673898904940984 [Eh]
	-----------------------------------------------------------

  Dipole Moment: [D]
     X:    -0.4322      Y:     4.1758      Z:     0.2433     Total:     4.2051

*** Psi4 exiting successfully. Buy a developer a beer!
