                               Psi4 1.3.2 release

  ==> Input File <==

--------------------------------------------------------------------------
#psi4
#
memory 32 gb

molecule  {
1 1
  N       -0.1404670     1.3625770     0.0888070
  C        0.0078560    -0.0677350    -0.3872370
  C       -1.2050824    -0.8458744     0.0891439
  C        1.3525039    -0.5864439     0.0894727
  H        0.0013190     0.0024560    -1.4771570
  H       -1.0129100     1.7863450    -0.2498420
  H        0.6317380     1.9558270    -0.2386540
  H       -0.1534110     1.4166430     1.1149090
  H       -1.1128870    -1.8838160    -0.2761720
  H       -1.2094360    -0.9021000     1.1949220
  H       -2.1281500    -0.4352600    -0.2575270
  H        1.4683160    -1.6231340    -0.2733960
  H        1.3705130    -0.6385200     1.1952170
  H        2.1747220    -0.0011550    -0.2602410
units angstrom
no_reorient  #important for SAPT in psi4, default
symmetry c1  #important for SAPT in psi4, default
}

set PROPERTIES_ORIGIN ["COM"]
properties('MP2/aug-cc-pvtz', properties = ['dipole'])
--------------------------------------------------------------------------

    Molecular point group: c1
  Charge       = 1
  Multiplicity = 1
  Basis Set: AUG-CC-PVTZ
    Blend: AUG-CC-PVTZ
  Basis Set: (AUG-CC-PVTZ AUX)
    Blend: AUG-CC-PVTZ-JKFIT

    Orbital Energies [Eh]
    ---------------------

    Doubly Occupied:

       1A    -15.887212     2A    -11.480948     3A    -11.397869
       4A    -11.397829     5A     -1.507401     6A     -1.246936
       7A     -1.128372     8A     -1.018703     9A     -0.958847
      10A     -0.950255    11A     -0.849365    12A     -0.800295
      13A     -0.739548    14A     -0.709535    15A     -0.709282
      16A     -0.689543    17A     -0.675329

  @DF-RHF Final Energy:  -173.72745789421828

   => Energetics <=

    Nuclear Repulsion Energy =            144.0071234097853790
    One-Electron Energy =                -511.1746237084648783
    Two-Electron Energy =                 193.4400424044612237
    Total Energy =                       -173.7274578942182757
  Basis Set: (AUG-CC-PVTZ AUX)
    Blend: AUG-CC-PVTZ-RI
    Molecular point group: c1

    Geometry (in Angstrom), charge = 1, multiplicity = 1:

       Center              X                  Y                   Z               Mass
    ------------   -----------------  -----------------  -----------------  -----------------
         N           -0.139242118533     1.350020889949     0.101857992780    14.003074004430
         C            0.009080881467    -0.080291110051    -0.374186007220    12.000000000000
         C           -1.203857518533    -0.858430510051     0.102194892780    12.000000000000
         C            1.353728781467    -0.599000010051     0.102523692780    12.000000000000
         H            0.002543881467    -0.010100110051    -1.464106007220     1.007825032230
         H           -1.011685118533     1.773788889949    -0.236791007220     1.007825032230
         H            0.632962881467     1.943270889949    -0.225603007220     1.007825032230
         H           -0.152186118533     1.404086889949     1.127959992780     1.007825032230
         H           -1.111662118533    -1.896372110051    -0.263121007220     1.007825032230
         H           -1.208211118533    -0.914656110051     1.207972992780     1.007825032230
         H           -2.126925118533    -0.447816110051    -0.244476007220     1.007825032230
         H            1.469540881467    -1.635690110051    -0.260345007220     1.007825032230
         H            1.371737881467    -0.651076110051     1.208267992780     1.007825032230
         H            2.175946881467    -0.013711110051    -0.247190007220     1.007825032230

  Basis Set: AUG-CC-PVTZ
    Blend: AUG-CC-PVTZ
  Basis Set: (AUG-CC-PVTZ AUX)
    Blend: AUG-CC-PVTZ-JKFIT
	 Reference Energy          =    -173.7274578942182757 [Eh]
	 Singles Energy            =      -0.0000000000000000 [Eh]
	 Same-Spin Energy          =      -0.1759141003502491 [Eh]
	 Opposite-Spin Energy      =      -0.6569801722318787 [Eh]
	 Correlation Energy        =      -0.8328942725821278 [Eh]
	 Total Energy              =    -174.5603521668004134 [Eh]

	 ================> DF-SCS-MP2 Energies <==================
	-----------------------------------------------------------
	 SCS Same-Spin Scale       =       0.3333333333333333 [-]
	 SCS Opposite-Spin Scale   =       1.2000000000000000 [-]
	 SCS Same-Spin Energy      =      -0.0586380334500830 [Eh]
	 SCS Opposite-Spin Energy  =      -0.7883762066782544 [Eh]
	 SCS Correlation Energy    =      -0.8470142401283374 [Eh]
	 SCS Total Energy          =    -174.5744721343466210 [Eh]
	-----------------------------------------------------------

  Dipole Moment: [D]
     X:    -0.4198      Y:     4.0552      Z:     0.2114     Total:     4.0823

*** Psi4 exiting successfully. Buy a developer a beer!
