                               Psi4 1.4a3.dev225

  ==> Input File <==

--------------------------------------------------------------------------
#psi4
#
memory 32 gb

molecule  {
1 1
  N        0.0000020     1.3752550     0.0881560
  C        0.0000000    -0.0769010    -0.3911070
  C       -1.2325221    -0.7136654     0.0869851
  C        1.2745180    -0.7353670     0.1032760
  H        0.0000000    -0.0031690    -1.4821840
  H       -0.8310820     1.8851260    -0.2406460
  H        0.8310870     1.8851240    -0.2406470
  H        0.0000020     1.4165200     1.1165880
  H       -1.3097880    -1.7608000    -0.2705820
  H       -1.2994510    -0.7789970     1.1965910
  H       -2.1709030    -0.2224960    -0.2574420
  H        1.3097830    -1.7608040    -0.2705810
  H        1.2994490    -0.7790000     1.1965910
  H        2.1709020    -0.2225020    -0.2574420
units angstrom
no_reorient  #important for SAPT in psi4, default
symmetry c1  #important for SAPT in psi4, default
}

set PROPERTIES_ORIGIN ["COM"]
properties('MP2/aug-cc-pvtz', properties = ['dipole'])
--------------------------------------------------------------------------

    Molecular point group: c1
  Charge       = 1
  Multiplicity = 1
  Basis Set: AUG-CC-PVTZ
    Blend: AUG-CC-PVTZ
  Basis Set: (AUG-CC-PVTZ AUX)
    Blend: AUG-CC-PVTZ-JKFIT

    Orbital Energies [Eh]
    ---------------------

    Doubly Occupied:

       1A    -15.886620     2A    -11.481633     3A    -11.399267
       4A    -11.398012     5A     -1.503993     6A     -1.254728
       7A     -1.127025     8A     -1.015892     9A     -0.956769
      10A     -0.949018    11A     -0.849898    12A     -0.798884
      13A     -0.743794    14A     -0.713925    15A     -0.706465
      16A     -0.685651    17A     -0.671871

  @DF-RHF Final Energy:  -173.72569329710694

   => Energetics <=

    Nuclear Repulsion Energy =            144.3703473100860606
    One-Electron Energy =                -511.9051918072755711
    Two-Electron Energy =                 193.8091512000825674
    Total Energy =                       -173.7256932971069432
  Basis Set: (AUG-CC-PVTZ AUX)
    Blend: AUG-CC-PVTZ-RI
    Molecular point group: c1

    Geometry (in Angstrom), charge = 1, multiplicity = 1:

       Center              X                  Y                   Z               Mass
    ------------   -----------------  -----------------  -----------------  -----------------
         N           -0.008386260478     1.365219761490     0.099500850084    14.003074004430
         C           -0.008388260478    -0.086936238510    -0.379762149916    12.000000000000
         C           -1.240910360478    -0.723700638510     0.098329950084    12.000000000000
         C            1.266129739522    -0.745402238510     0.114620850084    12.000000000000
         H           -0.008388260478    -0.013204238510    -1.470839149916     1.007825032230
         H           -0.839470260478     1.875090761490    -0.229301149916     1.007825032230
         H            0.822698739522     1.875088761490    -0.229302149916     1.007825032230
         H           -0.008386260478     1.406484761490     1.127932850084     1.007825032230
         H           -1.318176260478    -1.770835238510    -0.259237149916     1.007825032230
         H           -1.307839260478    -0.789032238510     1.207935850084     1.007825032230
         H           -2.179291260478    -0.232531238510    -0.246097149916     1.007825032230
         H            1.301394739522    -1.770839238510    -0.259236149916     1.007825032230
         H            1.291060739522    -0.789035238510     1.207935850084     1.007825032230
         H            2.162513739522    -0.232537238510    -0.246097149916     1.007825032230

  Basis Set: AUG-CC-PVTZ
    Blend: AUG-CC-PVTZ
  Basis Set: (AUG-CC-PVTZ AUX)
    Blend: AUG-CC-PVTZ-JKFIT
	 Reference Energy          =    -173.7256932971069432 [Eh]
	 Singles Energy            =      -0.0000000000000000 [Eh]
	 Same-Spin Energy          =      -0.1763205249071838 [Eh]
	 Opposite-Spin Energy      =      -0.6575147991785968 [Eh]
	 Correlation Energy        =      -0.8338353240857805 [Eh]
	 Total Energy              =    -174.5595286211927260 [Eh]

	 ================> DF-SCS-MP2 Energies <==================
	-----------------------------------------------------------
	 SCS Same-Spin Scale       =       0.3333333333333333 [-]
	 SCS Opposite-Spin Scale   =       1.2000000000000000 [-]
	 SCS Same-Spin Energy      =      -0.0587735083023946 [Eh]
	 SCS Opposite-Spin Energy  =      -0.7890177590143161 [Eh]
	 SCS Correlation Energy    =      -0.8477912673167107 [Eh]
	 SCS Total Energy          =    -174.5734845644236657 [Eh]
	-----------------------------------------------------------

  Dipole Moment: [D]
     X:    -0.0486      Y:     4.0243      Z:     0.2110     Total:     4.0301

*** Psi4 exiting successfully. Buy a developer a beer!
