                               Psi4 1.3.2 release

  ==> Input File <==

--------------------------------------------------------------------------
#psi4
#
memory 32 gb

molecule  {
1 1
  N       -0.1404670     1.3625770     0.0888070
  C        0.0078560    -0.0677350    -0.3872370
  C       -1.1890530    -0.8623480     0.1023120
  C        1.3401060    -0.6058050     0.1026400
  H        0.0013190     0.0024560    -1.4771570
  H       -0.8430643     1.7038466    -0.1839144
  H        0.6317380     1.9558270    -0.2386540
  H       -0.1534110     1.4166430     1.1149090
  H       -1.1128870    -1.8838160    -0.2761720
  H       -1.2094360    -0.9021000     1.1949220
  H       -2.1281500    -0.4352600    -0.2575270
  H        1.4683160    -1.6231340    -0.2733960
  H        1.3705130    -0.6385200     1.1952170
  H        2.1747220    -0.0011550    -0.2602410
units angstrom
no_reorient  #important for SAPT in psi4, default
symmetry c1  #important for SAPT in psi4, default
}

set PROPERTIES_ORIGIN ["COM"]
properties('MP2/aug-cc-pvtz', properties = ['dipole'])
--------------------------------------------------------------------------

    Molecular point group: c1
  Charge       = 1
  Multiplicity = 1
  Basis Set: AUG-CC-PVTZ
    Blend: AUG-CC-PVTZ
  Basis Set: (AUG-CC-PVTZ AUX)
    Blend: AUG-CC-PVTZ-JKFIT

    Orbital Energies [Eh]
    ---------------------

    Doubly Occupied:

       1A    -15.872764     2A    -11.483119     3A    -11.398628
       4A    -11.398583     5A     -1.550311     6A     -1.258126
       7A     -1.129398     8A     -1.025583     9A     -1.014187
      10A     -0.962814    11A     -0.854118    12A     -0.797687
      13A     -0.743284    14A     -0.718294    15A     -0.716309
      16A     -0.681465    17A     -0.679530

  @DF-RHF Final Energy:  -173.68786049386463

   => Energetics <=

    Nuclear Repulsion Energy =            145.2106686261908521
    One-Electron Energy =                -513.2286562495667113
    Two-Electron Energy =                 194.3301271295112258
    Total Energy =                       -173.6878604938646333
  Basis Set: (AUG-CC-PVTZ AUX)
    Blend: AUG-CC-PVTZ-RI
    Molecular point group: c1

    Geometry (in Angstrom), charge = 1, multiplicity = 1:

       Center              X                  Y                   Z               Mass
    ------------   -----------------  -----------------  -----------------  -----------------
         N           -0.142816486284     1.358561985845     0.095492149652    14.003074004430
         C            0.005506513716    -0.071750014155    -0.380551850348    12.000000000000
         C           -1.191402486284    -0.866363014155     0.108997149652    12.000000000000
         C            1.337756513716    -0.609820014155     0.109325149652    12.000000000000
         H           -0.001030486284    -0.001559014155    -1.470471850348     1.007825032230
         H           -0.845413786284     1.699831585845    -0.177229250348     1.007825032230
         H            0.629388513716     1.951811985845    -0.231968850348     1.007825032230
         H           -0.155760486284     1.412627985845     1.121594149652     1.007825032230
         H           -1.115236486284    -1.887831014155    -0.269486850348     1.007825032230
         H           -1.211785486284    -0.906115014155     1.201607149652     1.007825032230
         H           -2.130499486284    -0.439275014155    -0.250841850348     1.007825032230
         H            1.465966513716    -1.627149014155    -0.266710850348     1.007825032230
         H            1.368163513716    -0.642535014155     1.201902149652     1.007825032230
         H            2.172372513716    -0.005170014155    -0.253555850348     1.007825032230

  Basis Set: AUG-CC-PVTZ
    Blend: AUG-CC-PVTZ
  Basis Set: (AUG-CC-PVTZ AUX)
    Blend: AUG-CC-PVTZ-JKFIT
	 Reference Energy          =    -173.6878604938646333 [Eh]
	 Singles Energy            =      -0.0000000000000000 [Eh]
	 Same-Spin Energy          =      -0.1749166359973318 [Eh]
	 Opposite-Spin Energy      =      -0.6541621410097613 [Eh]
	 Correlation Energy        =      -0.8290787770070931 [Eh]
	 Total Energy              =    -174.5169392708717169 [Eh]

	 ================> DF-SCS-MP2 Energies <==================
	-----------------------------------------------------------
	 SCS Same-Spin Scale       =       0.3333333333333333 [-]
	 SCS Opposite-Spin Scale   =       1.2000000000000000 [-]
	 SCS Same-Spin Energy      =      -0.0583055453324439 [Eh]
	 SCS Opposite-Spin Energy  =      -0.7849945692117136 [Eh]
	 SCS Correlation Energy    =      -0.8433001145441575 [Eh]
	 SCS Total Energy          =    -174.5311606084087828 [Eh]
	-----------------------------------------------------------

  Dipole Moment: [D]
     X:    -0.2254      Y:     3.9817      Z:     0.2824     Total:     3.9981

*** Psi4 exiting successfully. Buy a developer a beer!
