                               Psi4 1.3.2 release

  ==> Input File <==

--------------------------------------------------------------------------
#psi4
#
memory 32 gb

molecule  {
1 1
  N       -0.1404670     1.3625770     0.0888070
  C        0.0078560    -0.0677350    -0.3872370
  C       -1.1723377    -0.8551108     0.1520601
  C        1.3401060    -0.6058050     0.1026400
  H        0.0335071     0.0228055    -1.4753728
  H       -1.0129100     1.7863450    -0.2498420
  H        0.6317380     1.9558270    -0.2386540
  H       -0.1534110     1.4166430     1.1149090
  H       -1.1128870    -1.8838160    -0.2761720
  H       -1.2094360    -0.9021000     1.1949220
  H       -2.1281500    -0.4352600    -0.2575270
  H        1.4683160    -1.6231340    -0.2733960
  H        1.3705130    -0.6385200     1.1952170
  H        2.1747220    -0.0011550    -0.2602410
units angstrom
no_reorient  #important for SAPT in psi4, default
symmetry c1  #important for SAPT in psi4, default
}

set PROPERTIES_ORIGIN ["COM"]
properties('MP2/aug-cc-pvtz', properties = ['dipole'])
--------------------------------------------------------------------------

    Molecular point group: c1
  Charge       = 1
  Multiplicity = 1
  Basis Set: AUG-CC-PVTZ
    Blend: AUG-CC-PVTZ
  Basis Set: (AUG-CC-PVTZ AUX)
    Blend: AUG-CC-PVTZ-JKFIT

    Orbital Energies [Eh]
    ---------------------

    Doubly Occupied:

       1A    -15.887056     2A    -11.481279     3A    -11.398050
       4A    -11.396600     5A     -1.507531     6A     -1.247998
       7A     -1.125747     8A     -1.021721     9A     -0.958516
      10A     -0.950324    11A     -0.850221    12A     -0.792613
      13A     -0.748161    14A     -0.716494    15A     -0.707076
      16A     -0.686976    17A     -0.670229

  @DF-RHF Final Energy:  -173.72533052339665

   => Energetics <=

    Nuclear Repulsion Energy =            144.1618072994741340
    One-Electron Energy =                -511.4810904667325531
    Two-Electron Energy =                 193.5939526438617406
    Total Energy =                       -173.7253305233966501
  Basis Set: (AUG-CC-PVTZ AUX)
    Blend: AUG-CC-PVTZ-RI
    Molecular point group: c1

    Geometry (in Angstrom), charge = 1, multiplicity = 1:

       Center              X                  Y                   Z               Mass
    ------------   -----------------  -----------------  -----------------  -----------------
         N           -0.143845904752     1.355391298609     0.086631960869    14.003074004430
         C            0.004477095248    -0.074920701391    -0.389412039131    12.000000000000
         C           -1.175716604752    -0.862296501391     0.149885060869    12.000000000000
         C            1.336727095248    -0.612990701391     0.100464960869    12.000000000000
         H            0.030128195248     0.015619798609    -1.477547839131     1.007825032230
         H           -1.016288904752     1.779159298609    -0.252017039131     1.007825032230
         H            0.628359095248     1.948641298609    -0.240829039131     1.007825032230
         H           -0.156789904752     1.409457298609     1.112733960869     1.007825032230
         H           -1.116265904752    -1.891001701391    -0.278347039131     1.007825032230
         H           -1.212814904752    -0.909285701391     1.192746960869     1.007825032230
         H           -2.131528904752    -0.442445701391    -0.259702039131     1.007825032230
         H            1.464937095248    -1.630319701391    -0.275571039131     1.007825032230
         H            1.367134095248    -0.645705701391     1.193041960869     1.007825032230
         H            2.171343095248    -0.008340701391    -0.262416039131     1.007825032230

  Basis Set: AUG-CC-PVTZ
    Blend: AUG-CC-PVTZ
  Basis Set: (AUG-CC-PVTZ AUX)
    Blend: AUG-CC-PVTZ-JKFIT
	 Reference Energy          =    -173.7253305233966501 [Eh]
	 Singles Energy            =      -0.0000000000000000 [Eh]
	 Same-Spin Energy          =      -0.1759614457059425 [Eh]
	 Opposite-Spin Energy      =      -0.6571654783642362 [Eh]
	 Correlation Energy        =      -0.8331269240701786 [Eh]
	 Total Energy              =    -174.5584574474668216 [Eh]

	 ================> DF-SCS-MP2 Energies <==================
	-----------------------------------------------------------
	 SCS Same-Spin Scale       =       0.3333333333333333 [-]
	 SCS Opposite-Spin Scale   =       1.2000000000000000 [-]
	 SCS Same-Spin Energy      =      -0.0586538152353142 [Eh]
	 SCS Opposite-Spin Energy  =      -0.7885985740370834 [Eh]
	 SCS Correlation Energy    =      -0.8472523892723975 [Eh]
	 SCS Total Energy          =    -174.5725829126690485 [Eh]
	-----------------------------------------------------------

  Dipole Moment: [D]
     X:    -0.4312      Y:     4.0781      Z:     0.1620     Total:     4.1040

*** Psi4 exiting successfully. Buy a developer a beer!
