                               Psi4 1.3.2 release

  ==> Input File <==

--------------------------------------------------------------------------
#psi4
#
memory 32 gb

molecule  {
1 1
  N       -0.1404670     1.3625770     0.0888070
  C        0.0078560    -0.0677350    -0.3872370
  C       -1.2207422    -0.8291638     0.0758308
  C        1.3644921    -0.5669247     0.0761601
  H        0.0013190     0.0024560    -1.4771570
  H       -1.0129100     1.7863450    -0.2498420
  H        0.6317380     1.9558270    -0.2386540
  H       -0.1534110     1.4166430     1.1149090
  H       -1.1128870    -1.8838160    -0.2761720
  H       -1.2094360    -0.9021000     1.1949220
  H       -2.1281500    -0.4352600    -0.2575270
  H        1.4683160    -1.6231340    -0.2733960
  H        1.3705130    -0.6385200     1.1952170
  H        2.1747220    -0.0011550    -0.2602410
units angstrom
no_reorient  #important for SAPT in psi4, default
symmetry c1  #important for SAPT in psi4, default
}

set PROPERTIES_ORIGIN ["COM"]
properties('MP2/aug-cc-pvtz', properties = ['dipole'])
--------------------------------------------------------------------------

    Molecular point group: c1
  Charge       = 1
  Multiplicity = 1
  Basis Set: AUG-CC-PVTZ
    Blend: AUG-CC-PVTZ
  Basis Set: (AUG-CC-PVTZ AUX)
    Blend: AUG-CC-PVTZ-JKFIT

    Orbital Energies [Eh]
    ---------------------

    Doubly Occupied:

       1A    -15.886365     2A    -11.481454     3A    -11.398791
       4A    -11.398753     5A     -1.507128     6A     -1.246418
       7A     -1.130784     8A     -1.017921     9A     -0.958634
      10A     -0.949690    11A     -0.849166    12A     -0.806257
      13A     -0.739583    14A     -0.704592    15A     -0.704276
      16A     -0.698926    17A     -0.670598

  @DF-RHF Final Energy:  -173.72223020523873

   => Energetics <=

    Nuclear Repulsion Energy =            143.9838433674111116
    One-Electron Energy =                -511.1134744336081894
    Two-Electron Energy =                 193.4074008609583473
    Total Energy =                       -173.7222302052387306
  Basis Set: (AUG-CC-PVTZ AUX)
    Blend: AUG-CC-PVTZ-RI
    Molecular point group: c1

    Geometry (in Angstrom), charge = 1, multiplicity = 1:

       Center              X                  Y                   Z               Mass
    ------------   -----------------  -----------------  -----------------  -----------------
         N           -0.138508792487     1.342784737868     0.107175924826    14.003074004430
         C            0.009814207513    -0.087527262132    -0.368868075174    12.000000000000
         C           -1.218783992487    -0.848956062132     0.094199724826    12.000000000000
         C            1.366450307513    -0.586716962132     0.094529024826    12.000000000000
         H            0.003277207513    -0.017336262132    -1.458788075174     1.007825032230
         H           -1.010951792487     1.766552737868    -0.231473075174     1.007825032230
         H            0.633696207513     1.936034737868    -0.220285075174     1.007825032230
         H           -0.151452792487     1.396850737868     1.133277924826     1.007825032230
         H           -1.110928792487    -1.903608262132    -0.257803075174     1.007825032230
         H           -1.207477792487    -0.921892262132     1.213290924826     1.007825032230
         H           -2.126191792487    -0.455052262132    -0.239158075174     1.007825032230
         H            1.470274207513    -1.642926262132    -0.255027075174     1.007825032230
         H            1.372471207513    -0.658312262132     1.213585924826     1.007825032230
         H            2.176680207513    -0.020947262132    -0.241872075174     1.007825032230

  Basis Set: AUG-CC-PVTZ
    Blend: AUG-CC-PVTZ
  Basis Set: (AUG-CC-PVTZ AUX)
    Blend: AUG-CC-PVTZ-JKFIT
	 Reference Energy          =    -173.7222302052387306 [Eh]
	 Singles Energy            =      -0.0000000000000000 [Eh]
	 Same-Spin Energy          =      -0.1760448886296825 [Eh]
	 Opposite-Spin Energy      =      -0.6572380474947417 [Eh]
	 Correlation Energy        =      -0.8332829361244242 [Eh]
	 Total Energy              =    -174.5555131413631500 [Eh]

	 ================> DF-SCS-MP2 Energies <==================
	-----------------------------------------------------------
	 SCS Same-Spin Scale       =       0.3333333333333333 [-]
	 SCS Opposite-Spin Scale   =       1.2000000000000000 [-]
	 SCS Same-Spin Energy      =      -0.0586816295432275 [Eh]
	 SCS Opposite-Spin Energy  =      -0.7886856569936900 [Eh]
	 SCS Correlation Energy    =      -0.8473672865369175 [Eh]
	 SCS Total Energy          =    -174.5695974917756530 [Eh]
	-----------------------------------------------------------

  Dipole Moment: [D]
     X:    -0.4150      Y:     4.0078      Z:     0.2235     Total:     4.0354

*** Psi4 exiting successfully. Buy a developer a beer!
