                               Psi4 1.4a3.dev225

  ==> Input File <==

--------------------------------------------------------------------------
#psi4
#
memory 32 gb

molecule  {
1 1
  N        0.0000020     1.3752550     0.0881560
  C        0.0000000    -0.0769010    -0.3911070
  C       -1.2745200    -0.7353630     0.1032760
  C        1.2745180    -0.7353670     0.1032760
  H        0.0000000    -0.0065402    -1.4322978
  H       -0.8310820     1.8851260    -0.2406460
  H        0.8310870     1.8851240    -0.2406470
  H        0.0000020     1.4165200     1.1165880
  H       -1.3097880    -1.7608000    -0.2705820
  H       -1.2994510    -0.7789970     1.1965910
  H       -2.1709030    -0.2224960    -0.2574420
  H        1.3097830    -1.7608040    -0.2705810
  H        1.2994490    -0.7790000     1.1965910
  H        2.1709020    -0.2225020    -0.2574420
units angstrom
no_reorient  #important for SAPT in psi4, default
symmetry c1  #important for SAPT in psi4, default
}

set PROPERTIES_ORIGIN ["COM"]
properties('MP2/aug-cc-pvtz', properties = ['dipole'])
--------------------------------------------------------------------------

    Molecular point group: c1
  Charge       = 1
  Multiplicity = 1
  Basis Set: AUG-CC-PVTZ
    Blend: AUG-CC-PVTZ
  Basis Set: (AUG-CC-PVTZ AUX)
    Blend: AUG-CC-PVTZ-JKFIT

    Orbital Energies [Eh]
    ---------------------

    Doubly Occupied:

       1A    -15.886453     2A    -11.477379     3A    -11.397576
       4A    -11.397563     5A     -1.503059     6A     -1.249408
       7A     -1.126248     8A     -1.022779     9A     -0.956361
      10A     -0.948994    11A     -0.851967    12A     -0.796474
      13A     -0.740634    14A     -0.715240    15A     -0.711766
      16A     -0.684641    17A     -0.679998

  @DF-RHF Final Energy:  -173.72810742888552

   => Energetics <=

    Nuclear Repulsion Energy =            143.9477827375633296
    One-Electron Energy =                -511.0586979574164275
    Two-Electron Energy =                 193.3828077909675756
    Total Energy =                       -173.7281074288855223
  Basis Set: (AUG-CC-PVTZ AUX)
    Blend: AUG-CC-PVTZ-RI
    Molecular point group: c1

    Geometry (in Angstrom), charge = 1, multiplicity = 1:

       Center              X                  Y                   Z               Mass
    ------------   -----------------  -----------------  -----------------  -----------------
         N            0.000001950096     1.369609957324     0.095410271790    14.003074004430
         C           -0.000000049904    -0.082546042676    -0.383852728210    12.000000000000
         C           -1.274520049904    -0.741008042676     0.110530271790    12.000000000000
         C            1.274517950096    -0.741012042676     0.110530271790    12.000000000000
         H           -0.000000049904    -0.012185242676    -1.425043528210     1.007825032230
         H           -0.831082049904     1.879480957324    -0.233391728210     1.007825032230
         H            0.831086950096     1.879478957324    -0.233392728210     1.007825032230
         H            0.000001950096     1.410874957324     1.123842271790     1.007825032230
         H           -1.309788049904    -1.766445042676    -0.263327728210     1.007825032230
         H           -1.299451049904    -0.784642042676     1.203845271790     1.007825032230
         H           -2.170903049904    -0.228141042676    -0.250187728210     1.007825032230
         H            1.309782950096    -1.766449042676    -0.263326728210     1.007825032230
         H            1.299448950096    -0.784645042676     1.203845271790     1.007825032230
         H            2.170901950096    -0.228147042676    -0.250187728210     1.007825032230

  Basis Set: AUG-CC-PVTZ
    Blend: AUG-CC-PVTZ
  Basis Set: (AUG-CC-PVTZ AUX)
    Blend: AUG-CC-PVTZ-JKFIT
	 Reference Energy          =    -173.7281074288855223 [Eh]
	 Singles Energy            =      -0.0000000000000000 [Eh]
	 Same-Spin Energy          =      -0.1757263363843922 [Eh]
	 Opposite-Spin Energy      =      -0.6566609516504256 [Eh]
	 Correlation Energy        =      -0.8323872880348178 [Eh]
	 Total Energy              =    -174.5604947169203456 [Eh]

	 ================> DF-SCS-MP2 Energies <==================
	-----------------------------------------------------------
	 SCS Same-Spin Scale       =       0.3333333333333333 [-]
	 SCS Opposite-Spin Scale   =       1.2000000000000000 [-]
	 SCS Same-Spin Energy      =      -0.0585754454614641 [Eh]
	 SCS Opposite-Spin Energy  =      -0.7879931419805107 [Eh]
	 SCS Correlation Energy    =      -0.8465685874419748 [Eh]
	 SCS Total Energy          =    -174.5746760163274871 [Eh]
	-----------------------------------------------------------

  Dipole Moment: [D]
     X:     0.0000      Y:     4.0737      Z:     0.1949     Total:     4.0784

*** Psi4 exiting successfully. Buy a developer a beer!
