                               Psi4 1.3.2 release

  ==> Input File <==

--------------------------------------------------------------------------
#psi4
#
memory 32 gb

molecule  {
1 1
  N       -0.1404670     1.3625770     0.0888070
  C        0.0078560    -0.0677350    -0.3872370
  C       -1.1809013    -0.8704943     0.1088404
  C        1.3337546    -0.6154245     0.1091680
  H        0.0013190     0.0024560    -1.4771570
  H       -1.0129100     1.7863450    -0.2498420
  H        0.6317380     1.9558270    -0.2386540
  H       -0.1534110     1.4166430     1.1149090
  H       -1.1128870    -1.8838160    -0.2761720
  H       -1.2094360    -0.9021000     1.1949220
  H       -2.1281500    -0.4352600    -0.2575270
  H        1.4683160    -1.6231340    -0.2733960
  H        1.3705130    -0.6385200     1.1952170
  H        2.1747220    -0.0011550    -0.2602410
units angstrom
no_reorient  #important for SAPT in psi4, default
symmetry c1  #important for SAPT in psi4, default
}

set PROPERTIES_ORIGIN ["COM"]
properties('MP2/aug-cc-pvtz', properties = ['dipole'])
--------------------------------------------------------------------------

    Molecular point group: c1
  Charge       = 1
  Multiplicity = 1
  Basis Set: AUG-CC-PVTZ
    Blend: AUG-CC-PVTZ
  Basis Set: (AUG-CC-PVTZ AUX)
    Blend: AUG-CC-PVTZ-JKFIT

    Orbital Energies [Eh]
    ---------------------

    Doubly Occupied:

       1A    -15.888546     2A    -11.480632     3A    -11.397067
       4A    -11.397025     5A     -1.507929     6A     -1.248115
       7A     -1.125259     8A     -1.020428     9A     -0.959470
      10A     -0.951218    11A     -0.850784    12A     -0.791748
      13A     -0.740112    14A     -0.719640    15A     -0.716331
      16A     -0.681289    17A     -0.671872

  @DF-RHF Final Energy:  -173.72868906969452

   => Energetics <=

    Nuclear Repulsion Energy =            144.0572746712151115
    One-Electron Energy =                -511.2769974885538886
    Two-Electron Energy =                 193.4910337476442521
    Total Energy =                       -173.7286890696945250
  Basis Set: (AUG-CC-PVTZ AUX)
    Blend: AUG-CC-PVTZ-RI
    Molecular point group: c1

    Geometry (in Angstrom), charge = 1, multiplicity = 1:

       Center              X                  Y                   Z               Mass
    ------------   -----------------  -----------------  -----------------  -----------------
         N           -0.140327008068     1.360726479534     0.093990296698    14.003074004430
         C            0.007995991932    -0.069585520466    -0.382053703302    12.000000000000
         C           -1.180761308068    -0.872344820466     0.114023696698    12.000000000000
         C            1.333894591932    -0.617275020466     0.114351296698    12.000000000000
         H            0.001458991932     0.000605479534    -1.471973703302     1.007825032230
         H           -1.012770008068     1.784494479534    -0.244658703302     1.007825032230
         H            0.631877991932     1.953976479534    -0.233470703302     1.007825032230
         H           -0.153271008068     1.414792479534     1.120092296698     1.007825032230
         H           -1.112747008068    -1.885666520466    -0.270988703302     1.007825032230
         H           -1.209296008068    -0.903950520466     1.200105296698     1.007825032230
         H           -2.128010008068    -0.437110520466    -0.252343703302     1.007825032230
         H            1.468455991932    -1.624984520466    -0.268212703302     1.007825032230
         H            1.370652991932    -0.640370520466     1.200400296698     1.007825032230
         H            2.174861991932    -0.003005520466    -0.255057703302     1.007825032230

  Basis Set: AUG-CC-PVTZ
    Blend: AUG-CC-PVTZ
  Basis Set: (AUG-CC-PVTZ AUX)
    Blend: AUG-CC-PVTZ-JKFIT
	 Reference Energy          =    -173.7286890696945250 [Eh]
	 Singles Energy            =      -0.0000000000000000 [Eh]
	 Same-Spin Energy          =      -0.1758325916699073 [Eh]
	 Opposite-Spin Energy      =      -0.6569174134118747 [Eh]
	 Correlation Energy        =      -0.8327500050817820 [Eh]
	 Total Energy              =    -174.5614390747763025 [Eh]

	 ================> DF-SCS-MP2 Energies <==================
	-----------------------------------------------------------
	 SCS Same-Spin Scale       =       0.3333333333333333 [-]
	 SCS Opposite-Spin Scale   =       1.2000000000000000 [-]
	 SCS Same-Spin Energy      =      -0.0586108638899691 [Eh]
	 SCS Opposite-Spin Energy  =      -0.7883008960942496 [Eh]
	 SCS Correlation Energy    =      -0.8469117599842186 [Eh]
	 SCS Total Energy          =    -174.5756008296787343 [Eh]
	-----------------------------------------------------------

  Dipole Moment: [D]
     X:    -0.4266      Y:     4.1217      Z:     0.1939     Total:     4.1482

*** Psi4 exiting successfully. Buy a developer a beer!
