                               Psi4 1.3.2 release

  ==> Input File <==

--------------------------------------------------------------------------
#psi4
#
memory 32 gb

molecule  {
1 1
  N       -0.1400420     1.3583895     0.1013375
  C        0.0078560    -0.0677350    -0.3872370
  C       -1.1890530    -0.8623480     0.1023120
  C        1.3401060    -0.6058050     0.1026400
  H        0.0022986    -0.0070073    -1.4777306
  H       -1.0129100     1.7863450    -0.2498420
  H        0.6317380     1.9558270    -0.2386540
  H       -0.1534110     1.4166430     1.1149090
  H       -1.1128870    -1.8838160    -0.2761720
  H       -1.2094360    -0.9021000     1.1949220
  H       -2.1281500    -0.4352600    -0.2575270
  H        1.4683160    -1.6231340    -0.2733960
  H        1.3705130    -0.6385200     1.1952170
  H        2.1747220    -0.0011550    -0.2602410
units angstrom
no_reorient  #important for SAPT in psi4, default
symmetry c1  #important for SAPT in psi4, default
}

set PROPERTIES_ORIGIN ["COM"]
properties('MP2/aug-cc-pvtz', properties = ['dipole'])
--------------------------------------------------------------------------

    Molecular point group: c1
  Charge       = 1
  Multiplicity = 1
  Basis Set: AUG-CC-PVTZ
    Blend: AUG-CC-PVTZ
  Basis Set: (AUG-CC-PVTZ AUX)
    Blend: AUG-CC-PVTZ-JKFIT

    Orbital Energies [Eh]
    ---------------------

    Doubly Occupied:

       1A    -15.888308     2A    -11.480657     3A    -11.397003
       4A    -11.396959     5A     -1.507875     6A     -1.247669
       7A     -1.126061     8A     -1.020474     9A     -0.961192
      10A     -0.946899    11A     -0.852825    12A     -0.794168
      13A     -0.739510    14A     -0.716042    15A     -0.713709
      16A     -0.679219    17A     -0.677653

  @DF-RHF Final Energy:  -173.72880183620049

   => Energetics <=

    Nuclear Repulsion Energy =            144.0683675620851716
    One-Electron Energy =                -511.3018936605050726
    Two-Electron Energy =                 193.5047242622194403
    Total Energy =                       -173.7288018362004891
  Basis Set: (AUG-CC-PVTZ AUX)
    Blend: AUG-CC-PVTZ-RI
    Molecular point group: c1

    Geometry (in Angstrom), charge = 1, multiplicity = 1:

       Center              X                  Y                   Z               Mass
    ------------   -----------------  -----------------  -----------------  -----------------
         N           -0.139657921768     1.354125344705     0.106217697015    14.003074004430
         C            0.008240078232    -0.071999155295    -0.382356802985    12.000000000000
         C           -1.188668921768    -0.866612155295     0.107192197015    12.000000000000
         C            1.340490078232    -0.610069155295     0.107520197015    12.000000000000
         H            0.002682678232    -0.011271455295    -1.472850402985     1.007825032230
         H           -1.012525921768     1.782080844705    -0.244961802985     1.007825032230
         H            0.632122078232     1.951562844705    -0.233773802985     1.007825032230
         H           -0.153026921768     1.412378844705     1.119789197015     1.007825032230
         H           -1.112502921768    -1.888080155295    -0.271291802985     1.007825032230
         H           -1.209051921768    -0.906364155295     1.199802197015     1.007825032230
         H           -2.127765921768    -0.439524155295    -0.252646802985     1.007825032230
         H            1.468700078232    -1.627398155295    -0.268515802985     1.007825032230
         H            1.370897078232    -0.642784155295     1.200097197015     1.007825032230
         H            2.175106078232    -0.005419155295    -0.255360802985     1.007825032230

  Basis Set: AUG-CC-PVTZ
    Blend: AUG-CC-PVTZ
  Basis Set: (AUG-CC-PVTZ AUX)
    Blend: AUG-CC-PVTZ-JKFIT
	 Reference Energy          =    -173.7288018362004891 [Eh]
	 Singles Energy            =      -0.0000000000000000 [Eh]
	 Same-Spin Energy          =      -0.1758504975688505 [Eh]
	 Opposite-Spin Energy      =      -0.6569125356903242 [Eh]
	 Correlation Energy        =      -0.8327630332591747 [Eh]
	 Total Energy              =    -174.5615648694596587 [Eh]

	 ================> DF-SCS-MP2 Energies <==================
	-----------------------------------------------------------
	 SCS Same-Spin Scale       =       0.3333333333333333 [-]
	 SCS Opposite-Spin Scale   =       1.2000000000000000 [-]
	 SCS Same-Spin Energy      =      -0.0586168325229502 [Eh]
	 SCS Opposite-Spin Energy  =      -0.7882950428283889 [Eh]
	 SCS Correlation Energy    =      -0.8469118753513390 [Eh]
	 SCS Total Energy          =    -174.5757137115518276 [Eh]
	-----------------------------------------------------------

  Dipole Moment: [D]
     X:    -0.4257      Y:     4.1119      Z:     0.1762     Total:     4.1377

*** Psi4 exiting successfully. Buy a developer a beer!
