                               Psi4 1.3.2 release

  ==> Input File <==

--------------------------------------------------------------------------
#psi4
#
memory 32 gb

molecule  {
1 1
  N       -0.1404670     1.3625770     0.0888070
  C        0.0078560    -0.0677350    -0.3872370
  C       -1.1634395    -0.8511319     0.1766915
  C        1.3401060    -0.6058050     0.1026400
  H        0.0495919     0.0329404    -1.4739834
  H       -1.0129100     1.7863450    -0.2498420
  H        0.6317380     1.9558270    -0.2386540
  H       -0.1534110     1.4166430     1.1149090
  H       -1.1128870    -1.8838160    -0.2761720
  H       -1.2094360    -0.9021000     1.1949220
  H       -2.1281500    -0.4352600    -0.2575270
  H        1.4683160    -1.6231340    -0.2733960
  H        1.3705130    -0.6385200     1.1952170
  H        2.1747220    -0.0011550    -0.2602410
units angstrom
no_reorient  #important for SAPT in psi4, default
symmetry c1  #important for SAPT in psi4, default
}

set PROPERTIES_ORIGIN ["COM"]
properties('MP2/aug-cc-pvtz', properties = ['dipole'])
--------------------------------------------------------------------------

    Molecular point group: c1
  Charge       = 1
  Multiplicity = 1
  Basis Set: AUG-CC-PVTZ
    Blend: AUG-CC-PVTZ
  Basis Set: (AUG-CC-PVTZ AUX)
    Blend: AUG-CC-PVTZ-JKFIT

    Orbital Energies [Eh]
    ---------------------

    Doubly Occupied:

       1A    -15.886563     2A    -11.481764     3A    -11.398815
       4A    -11.396344     5A     -1.507476     6A     -1.248320
       7A     -1.125781     8A     -1.022933     9A     -0.958209
      10A     -0.950130    11A     -0.850586    12A     -0.791715
      13A     -0.754555    14A     -0.716560    15A     -0.702813
      16A     -0.689178    17A     -0.665835

  @DF-RHF Final Energy:  -173.72049767017339

   => Energetics <=

    Nuclear Repulsion Energy =            144.2287934796700029
    One-Electron Energy =                -511.6034270124956151
    Two-Electron Energy =                 193.6541358626522253
    Total Energy =                       -173.7204976701733870
  Basis Set: (AUG-CC-PVTZ AUX)
    Blend: AUG-CC-PVTZ-RI
    Molecular point group: c1

    Geometry (in Angstrom), charge = 1, multiplicity = 1:

       Center              X                  Y                   Z               Mass
    ------------   -----------------  -----------------  -----------------  -----------------
         N           -0.145892947913     1.354426589416     0.081689042659    14.003074004430
         C            0.002430052087    -0.075885410584    -0.394354957341    12.000000000000
         C           -1.168865447913    -0.859282310584     0.169573542659    12.000000000000
         C            1.334680052087    -0.613955410584     0.095522042659    12.000000000000
         H            0.044165952087     0.024789989416    -1.481101357341     1.007825032230
         H           -1.018335947913     1.778194589416    -0.256959957341     1.007825032230
         H            0.626312052087     1.947676589416    -0.245771957341     1.007825032230
         H           -0.158836947913     1.408492589416     1.107791042659     1.007825032230
         H           -1.118312947913    -1.891966410584    -0.283289957341     1.007825032230
         H           -1.214861947913    -0.910250410584     1.187804042659     1.007825032230
         H           -2.133575947913    -0.443410410584    -0.264644957341     1.007825032230
         H            1.462890052087    -1.631284410584    -0.280513957341     1.007825032230
         H            1.365087052087    -0.646670410584     1.188099042659     1.007825032230
         H            2.169296052087    -0.009305410584    -0.267358957341     1.007825032230

  Basis Set: AUG-CC-PVTZ
    Blend: AUG-CC-PVTZ
  Basis Set: (AUG-CC-PVTZ AUX)
    Blend: AUG-CC-PVTZ-JKFIT
	 Reference Energy          =    -173.7204976701733870 [Eh]
	 Singles Energy            =      -0.0000000000000000 [Eh]
	 Same-Spin Energy          =      -0.1760716552486141 [Eh]
	 Opposite-Spin Energy      =      -0.6574396871298724 [Eh]
	 Correlation Energy        =      -0.8335113423784866 [Eh]
	 Total Energy              =    -174.5540090125518873 [Eh]

	 ================> DF-SCS-MP2 Energies <==================
	-----------------------------------------------------------
	 SCS Same-Spin Scale       =       0.3333333333333333 [-]
	 SCS Opposite-Spin Scale   =       1.2000000000000000 [-]
	 SCS Same-Spin Energy      =      -0.0586905517495380 [Eh]
	 SCS Opposite-Spin Energy  =      -0.7889276245558469 [Eh]
	 SCS Correlation Energy    =      -0.8476181763053849 [Eh]
	 SCS Total Energy          =    -174.5681158464787757 [Eh]
	-----------------------------------------------------------

  Dipole Moment: [D]
     X:    -0.4330      Y:     4.0665      Z:     0.1399     Total:     4.0919

*** Psi4 exiting successfully. Buy a developer a beer!
