                               Psi4 1.3.2 release

  ==> Input File <==

--------------------------------------------------------------------------
#psi4
#
memory 32 gb

molecule  {
1 1
  N       -0.1860349     1.3491498     0.1120162
  C        0.0078560    -0.0677350    -0.3872370
  C       -1.2076919    -0.8183782     0.1252445
  C        1.3401060    -0.6058050     0.1026400
  H        0.0013190     0.0024560    -1.4771570
  H       -1.0129100     1.7863450    -0.2498420
  H        0.6317380     1.9558270    -0.2386540
  H       -0.1534110     1.4166430     1.1149090
  H       -1.1128870    -1.8838160    -0.2761720
  H       -1.2094360    -0.9021000     1.1949220
  H       -2.1281500    -0.4352600    -0.2575270
  H        1.4683160    -1.6231340    -0.2733960
  H        1.3705130    -0.6385200     1.1952170
  H        2.1747220    -0.0011550    -0.2602410
units angstrom
no_reorient  #important for SAPT in psi4, default
symmetry c1  #important for SAPT in psi4, default
}

set PROPERTIES_ORIGIN ["COM"]
properties('MP2/aug-cc-pvtz', properties = ['dipole'])
--------------------------------------------------------------------------

    Molecular point group: c1
  Charge       = 1
  Multiplicity = 1
  Basis Set: AUG-CC-PVTZ
    Blend: AUG-CC-PVTZ
  Basis Set: (AUG-CC-PVTZ AUX)
    Blend: AUG-CC-PVTZ-JKFIT

    Orbital Energies [Eh]
    ---------------------

    Doubly Occupied:

       1A    -15.886512     2A    -11.481548     3A    -11.398926
       4A    -11.395853     5A     -1.507759     6A     -1.247244
       7A     -1.127542     8A     -1.021756     9A     -0.971040
      10A     -0.932368    11A     -0.853365    12A     -0.798716
      13A     -0.744407    14A     -0.717609    15A     -0.693056
      16A     -0.686222    17A     -0.680725

  @DF-RHF Final Energy:  -173.72180287338341

   => Energetics <=

    Nuclear Repulsion Energy =            144.1951521779278096
    One-Electron Energy =                -511.5446121385234051
    Two-Electron Energy =                 193.6276570872121852
    Total Energy =                       -173.7218028733834103
  Basis Set: (AUG-CC-PVTZ AUX)
    Blend: AUG-CC-PVTZ-RI
    Molecular point group: c1

    Geometry (in Angstrom), charge = 1, multiplicity = 1:

       Center              X                  Y                   Z               Mass
    ------------   -----------------  -----------------  -----------------  -----------------
         N           -0.171192151665     1.338098331803     0.109817613057    14.003074004430
         C            0.022698748335    -0.078786468197    -0.389435586943    12.000000000000
         C           -1.192849151665    -0.829429668197     0.123045913057    12.000000000000
         C            1.354948748335    -0.616856468197     0.100441413057    12.000000000000
         H            0.016161748335    -0.008595468197    -1.479355586943     1.007825032230
         H           -0.998067251665     1.775293531803    -0.252040586943     1.007825032230
         H            0.646580748335     1.944775531803    -0.240852586943     1.007825032230
         H           -0.138568251665     1.405591531803     1.112710413057     1.007825032230
         H           -1.098044251665    -1.894867468197    -0.278370586943     1.007825032230
         H           -1.194593251665    -0.913151468197     1.192723413057     1.007825032230
         H           -2.113307251665    -0.446311468197    -0.259725586943     1.007825032230
         H            1.483158748335    -1.634185468197    -0.275594586943     1.007825032230
         H            1.385355748335    -0.649571468197     1.193018413057     1.007825032230
         H            2.189564748335    -0.012206468197    -0.262439586943     1.007825032230

  Basis Set: AUG-CC-PVTZ
    Blend: AUG-CC-PVTZ
  Basis Set: (AUG-CC-PVTZ AUX)
    Blend: AUG-CC-PVTZ-JKFIT
	 Reference Energy          =    -173.7218028733834103 [Eh]
	 Singles Energy            =      -0.0000000000000000 [Eh]
	 Same-Spin Energy          =      -0.1760983443713001 [Eh]
	 Opposite-Spin Energy      =      -0.6574174225527808 [Eh]
	 Correlation Energy        =      -0.8335157669240809 [Eh]
	 Total Energy              =    -174.5553186403074903 [Eh]

	 ================> DF-SCS-MP2 Energies <==================
	-----------------------------------------------------------
	 SCS Same-Spin Scale       =       0.3333333333333333 [-]
	 SCS Opposite-Spin Scale   =       1.2000000000000000 [-]
	 SCS Same-Spin Energy      =      -0.0586994481237667 [Eh]
	 SCS Opposite-Spin Energy  =      -0.7889009070633369 [Eh]
	 SCS Correlation Energy    =      -0.8476003551871036 [Eh]
	 SCS Total Energy          =    -174.5694032285705077 [Eh]
	-----------------------------------------------------------

  Dipole Moment: [D]
     X:    -0.3022      Y:     4.0635      Z:     0.1356     Total:     4.0770

*** Psi4 exiting successfully. Buy a developer a beer!
