                               Psi4 1.3.2 release

  ==> Input File <==

--------------------------------------------------------------------------
#psi4
#
memory 32 gb

molecule  {
1 1
  N       -0.2087337     1.3417878     0.1233944
  C        0.0078560    -0.0677350    -0.3872370
  C       -1.2164574    -0.7960469     0.1364783
  C        1.3401060    -0.6058050     0.1026400
  H        0.0013190     0.0024560    -1.4771570
  H       -1.0129100     1.7863450    -0.2498420
  H        0.6317380     1.9558270    -0.2386540
  H       -0.1534110     1.4166430     1.1149090
  H       -1.1128870    -1.8838160    -0.2761720
  H       -1.2094360    -0.9021000     1.1949220
  H       -2.1281500    -0.4352600    -0.2575270
  H        1.4683160    -1.6231340    -0.2733960
  H        1.3705130    -0.6385200     1.1952170
  H        2.1747220    -0.0011550    -0.2602410
units angstrom
no_reorient  #important for SAPT in psi4, default
symmetry c1  #important for SAPT in psi4, default
}

set PROPERTIES_ORIGIN ["COM"]
properties('MP2/aug-cc-pvtz', properties = ['dipole'])
--------------------------------------------------------------------------

    Molecular point group: c1
  Charge       = 1
  Multiplicity = 1
  Basis Set: AUG-CC-PVTZ
    Blend: AUG-CC-PVTZ
  Basis Set: (AUG-CC-PVTZ AUX)
    Blend: AUG-CC-PVTZ-JKFIT

    Orbital Energies [Eh]
    ---------------------

    Doubly Occupied:

       1A    -15.885855     2A    -11.482254     3A    -11.399834
       4A    -11.395606     5A     -1.508097     6A     -1.247316
       7A     -1.128391     8A     -1.023053     9A     -0.977714
      10A     -0.922137    11A     -0.854930    12A     -0.801050
      13A     -0.746996    14A     -0.718880    15A     -0.689518
      16A     -0.686085    17A     -0.676959

  @DF-RHF Final Energy:  -173.71317466383198

   => Energetics <=

    Nuclear Repulsion Energy =            144.2854200026885678
    One-Electron Energy =                -511.7078408870705744
    Two-Electron Energy =                 193.7092462205500283
    Total Energy =                       -173.7131746638319783
  Basis Set: (AUG-CC-PVTZ AUX)
    Blend: AUG-CC-PVTZ-RI
    Molecular point group: c1

    Geometry (in Angstrom), charge = 1, multiplicity = 1:

       Center              X                  Y                   Z               Mass
    ------------   -----------------  -----------------  -----------------  -----------------
         N           -0.186849845615     1.327991968708     0.116300192331    14.003074004430
         C            0.029739854385    -0.081530831292    -0.394331207669    12.000000000000
         C           -1.194573545615    -0.809842731292     0.129384092331    12.000000000000
         C            1.361989854385    -0.619600831292     0.095545792331    12.000000000000
         H            0.023202854385    -0.011339831292    -1.484251207669     1.007825032230
         H           -0.991026145615     1.772549168708    -0.256936207669     1.007825032230
         H            0.653621854385     1.942031168708    -0.245748207669     1.007825032230
         H           -0.131527145615     1.402847168708     1.107814792331     1.007825032230
         H           -1.091003145615    -1.897611831292    -0.283266207669     1.007825032230
         H           -1.187552145615    -0.915895831292     1.187827792331     1.007825032230
         H           -2.106266145615    -0.449055831292    -0.264621207669     1.007825032230
         H            1.490199854385    -1.636929831292    -0.280490207669     1.007825032230
         H            1.392396854385    -0.652315831292     1.188122792331     1.007825032230
         H            2.196605854385    -0.014950831292    -0.267335207669     1.007825032230

  Basis Set: AUG-CC-PVTZ
    Blend: AUG-CC-PVTZ
  Basis Set: (AUG-CC-PVTZ AUX)
    Blend: AUG-CC-PVTZ-JKFIT
	 Reference Energy          =    -173.7131746638319783 [Eh]
	 Singles Energy            =      -0.0000000000000000 [Eh]
	 Same-Spin Energy          =      -0.1763469030351474 [Eh]
	 Opposite-Spin Energy      =      -0.6579975592044724 [Eh]
	 Correlation Energy        =      -0.8343444622396199 [Eh]
	 Total Energy              =    -174.5475191260715917 [Eh]

	 ================> DF-SCS-MP2 Energies <==================
	-----------------------------------------------------------
	 SCS Same-Spin Scale       =       0.3333333333333333 [-]
	 SCS Opposite-Spin Scale   =       1.2000000000000000 [-]
	 SCS Same-Spin Energy      =      -0.0587823010117158 [Eh]
	 SCS Opposite-Spin Energy  =      -0.7895970710453669 [Eh]
	 SCS Correlation Energy    =      -0.8483793720570827 [Eh]
	 SCS Total Energy          =    -174.5615540358890598 [Eh]
	-----------------------------------------------------------

  Dipole Moment: [D]
     X:    -0.2421      Y:     4.0440      Z:     0.1048     Total:     4.0526

*** Psi4 exiting successfully. Buy a developer a beer!
