                               Psi4 1.3.2 release

  ==> Input File <==

--------------------------------------------------------------------------
#psi4
#
memory 32 gb

molecule  {
1 1
  N       -0.1404670     1.3625770     0.0888070
  C        0.0078560    -0.0677350    -0.3872370
  C       -1.1808764    -0.8588499     0.1272644
  C        1.3401060    -0.6058050     0.1026400
  H        0.0174145     0.0126430    -1.4764308
  H       -1.0129100     1.7863450    -0.2498420
  H        0.6317380     1.9558270    -0.2386540
  H       -0.1534110     1.4166430     1.1149090
  H       -1.1128870    -1.8838160    -0.2761720
  H       -1.2094360    -0.9021000     1.1949220
  H       -2.1281500    -0.4352600    -0.2575270
  H        1.4683160    -1.6231340    -0.2733960
  H        1.3705130    -0.6385200     1.1952170
  H        2.1747220    -0.0011550    -0.2602410
units angstrom
no_reorient  #important for SAPT in psi4, default
symmetry c1  #important for SAPT in psi4, default
}

set PROPERTIES_ORIGIN ["COM"]
properties('MP2/aug-cc-pvtz', properties = ['dipole'])
--------------------------------------------------------------------------

    Molecular point group: c1
  Charge       = 1
  Multiplicity = 1
  Basis Set: AUG-CC-PVTZ
    Blend: AUG-CC-PVTZ
  Basis Set: (AUG-CC-PVTZ AUX)
    Blend: AUG-CC-PVTZ-JKFIT

    Orbital Energies [Eh]
    ---------------------

    Doubly Occupied:

       1A    -15.887567     2A    -11.480919     3A    -11.397528
       4A    -11.396891     5A     -1.507619     6A     -1.247780
       7A     -1.125903     8A     -1.020674     9A     -0.958859
      10A     -0.950578    11A     -0.850082    12A     -0.793541
      13A     -0.742999    14A     -0.716392    15A     -0.711037
      16A     -0.683766    17A     -0.674258

  @DF-RHF Final Energy:  -173.72816942485201

   => Energetics <=

    Nuclear Repulsion Energy =            144.0985192278807006
    One-Electron Energy =                -511.3605986643984807
    Two-Electron Energy =                 193.5339100116657391
    Total Energy =                       -173.7281694248520125
  Basis Set: (AUG-CC-PVTZ AUX)
    Blend: AUG-CC-PVTZ-RI
    Molecular point group: c1

    Geometry (in Angstrom), charge = 1, multiplicity = 1:

       Center              X                  Y                   Z               Mass
    ------------   -----------------  -----------------  -----------------  -----------------
         N           -0.141870533429     1.356308575692     0.091602135582    14.003074004430
         C            0.006452466571    -0.074003424308    -0.384441864418    12.000000000000
         C           -1.182279933429    -0.865118324308     0.130059535582    12.000000000000
         C            1.338702466571    -0.612073424308     0.105435135582    12.000000000000
         H            0.016010966571     0.006374575692    -1.473635664418     1.007825032230
         H           -1.014313533429     1.780076575692    -0.247046864418     1.007825032230
         H            0.630334466571     1.949558575692    -0.235858864418     1.007825032230
         H           -0.154814533429     1.410374575692     1.117704135582     1.007825032230
         H           -1.114290533429    -1.890084424308    -0.273376864418     1.007825032230
         H           -1.210839533429    -0.908368424308     1.197717135582     1.007825032230
         H           -2.129553533429    -0.441528424308    -0.254731864418     1.007825032230
         H            1.466912466571    -1.629402424308    -0.270600864418     1.007825032230
         H            1.369109466571    -0.644788424308     1.198012135582     1.007825032230
         H            2.173318466571    -0.007423424308    -0.257445864418     1.007825032230

  Basis Set: AUG-CC-PVTZ
    Blend: AUG-CC-PVTZ
  Basis Set: (AUG-CC-PVTZ AUX)
    Blend: AUG-CC-PVTZ-JKFIT
	 Reference Energy          =    -173.7281694248520125 [Eh]
	 Singles Energy            =      -0.0000000000000000 [Eh]
	 Same-Spin Energy          =      -0.1758858935209951 [Eh]
	 Opposite-Spin Energy      =      -0.6569853650480658 [Eh]
	 Correlation Energy        =      -0.8328712585690610 [Eh]
	 Total Energy              =    -174.5610406834210835 [Eh]

	 ================> DF-SCS-MP2 Energies <==================
	-----------------------------------------------------------
	 SCS Same-Spin Scale       =       0.3333333333333333 [-]
	 SCS Opposite-Spin Scale   =       1.2000000000000000 [-]
	 SCS Same-Spin Energy      =      -0.0586286311736650 [Eh]
	 SCS Opposite-Spin Energy  =      -0.7883824380576789 [Eh]
	 SCS Correlation Energy    =      -0.8470110692313439 [Eh]
	 SCS Total Energy          =    -174.5751804940833551 [Eh]
	-----------------------------------------------------------

  Dipole Moment: [D]
     X:    -0.4283      Y:     4.0893      Z:     0.1820     Total:     4.1157

*** Psi4 exiting successfully. Buy a developer a beer!
