                               Psi4 1.3.2 release

  ==> Input File <==

--------------------------------------------------------------------------
#psi4
#
memory 32 gb

molecule  {
1 1
  N       -0.1404670     1.3625770     0.0888070
  C        0.0078560    -0.0677350    -0.3872370
  C       -1.1971136    -0.8541411     0.0957464
  C        1.3463559    -0.5961445     0.0960747
  H        0.0013190     0.0024560    -1.4771570
  H       -1.0129100     1.7863450    -0.2498420
  H        0.6317380     1.9558270    -0.2386540
  H       -0.1534110     1.4166430     1.1149090
  H       -1.1128870    -1.8838160    -0.2761720
  H       -1.2094360    -0.9021000     1.1949220
  H       -2.1281500    -0.4352600    -0.2575270
  H        1.4683160    -1.6231340    -0.2733960
  H        1.3705130    -0.6385200     1.1952170
  H        2.1747220    -0.0011550    -0.2602410
units angstrom
no_reorient  #important for SAPT in psi4, default
symmetry c1  #important for SAPT in psi4, default
}

set PROPERTIES_ORIGIN ["COM"]
properties('MP2/aug-cc-pvtz', properties = ['dipole'])
--------------------------------------------------------------------------

    Molecular point group: c1
  Charge       = 1
  Multiplicity = 1
  Basis Set: AUG-CC-PVTZ
    Blend: AUG-CC-PVTZ
  Basis Set: (AUG-CC-PVTZ AUX)
    Blend: AUG-CC-PVTZ-JKFIT

    Orbital Energies [Eh]
    ---------------------

    Doubly Occupied:

       1A    -15.887649     2A    -11.480784     3A    -11.397523
       4A    -11.397482     5A     -1.507562     6A     -1.247274
       7A     -1.127269     8A     -1.019212     9A     -0.959016
      10A     -0.950562    11A     -0.849707    12A     -0.797332
      13A     -0.739665    14A     -0.712883    15A     -0.711725
      16A     -0.683758    17A     -0.677492

  @DF-RHF Final Energy:  -173.72872209928298

   => Energetics <=

    Nuclear Repulsion Energy =            144.0218751532628403
    One-Electron Energy =                -511.2074052771285437
    Two-Electron Energy =                 193.4568080245827275
    Total Energy =                       -173.7287220992829759
  Basis Set: (AUG-CC-PVTZ AUX)
    Blend: AUG-CC-PVTZ-RI
    Molecular point group: c1

    Geometry (in Angstrom), charge = 1, multiplicity = 1:

       Center              X                  Y                   Z               Mass
    ------------   -----------------  -----------------  -----------------  -----------------
         N           -0.139605785617     1.353609485946     0.099220667425    14.003074004430
         C            0.008717214383    -0.076702514054    -0.376823332575    12.000000000000
         C           -1.196252385617    -0.863108614054     0.106160067425    12.000000000000
         C            1.347217114383    -0.605112014054     0.106488367425    12.000000000000
         H            0.002180214383    -0.006511514054    -1.466743332575     1.007825032230
         H           -1.012048785617     1.777377485946    -0.239428332575     1.007825032230
         H            0.632599214383     1.946859485946    -0.228240332575     1.007825032230
         H           -0.152549785617     1.407675485946     1.125322667425     1.007825032230
         H           -1.112025785617    -1.892783514054    -0.265758332575     1.007825032230
         H           -1.208574785617    -0.911067514054     1.205335667425     1.007825032230
         H           -2.127288785617    -0.444227514054    -0.247113332575     1.007825032230
         H            1.469177214383    -1.632101514054    -0.262982332575     1.007825032230
         H            1.371374214383    -0.647487514054     1.205630667425     1.007825032230
         H            2.175583214383    -0.010122514054    -0.249827332575     1.007825032230

  Basis Set: AUG-CC-PVTZ
    Blend: AUG-CC-PVTZ
  Basis Set: (AUG-CC-PVTZ AUX)
    Blend: AUG-CC-PVTZ-JKFIT
	 Reference Energy          =    -173.7287220992829759 [Eh]
	 Singles Energy            =      -0.0000000000000000 [Eh]
	 Same-Spin Energy          =      -0.1758717088108619 [Eh]
	 Opposite-Spin Energy      =      -0.6569168781797015 [Eh]
	 Correlation Energy        =      -0.8327885869905634 [Eh]
	 Total Energy              =    -174.5615106862735502 [Eh]

	 ================> DF-SCS-MP2 Energies <==================
	-----------------------------------------------------------
	 SCS Same-Spin Scale       =       0.3333333333333333 [-]
	 SCS Opposite-Spin Scale   =       1.2000000000000000 [-]
	 SCS Same-Spin Energy      =      -0.0586239029369540 [Eh]
	 SCS Opposite-Spin Energy  =      -0.7883002538156417 [Eh]
	 SCS Correlation Energy    =      -0.8469241567525957 [Eh]
	 SCS Total Energy          =    -174.5756462560355828 [Eh]
	-----------------------------------------------------------

  Dipole Moment: [D]
     X:    -0.4222      Y:     4.0780      Z:     0.2055     Total:     4.1049

*** Psi4 exiting successfully. Buy a developer a beer!
