                               Psi4 1.3.2 release

  ==> Input File <==

--------------------------------------------------------------------------
#psi4
#
memory 32 gb

molecule  {
1 1
  N       -0.1404670     1.3625770     0.0888070
  C        0.0078560    -0.0677350    -0.3872370
  C       -1.1930047    -0.8640063     0.0897794
  C        1.3401060    -0.6058050     0.1026400
  H       -0.0067283    -0.0026457    -1.4773956
  H       -1.0129100     1.7863450    -0.2498420
  H        0.6317380     1.9558270    -0.2386540
  H       -0.1534110     1.4166430     1.1149090
  H       -1.1128870    -1.8838160    -0.2761720
  H       -1.2094360    -0.9021000     1.1949220
  H       -2.1281500    -0.4352600    -0.2575270
  H        1.4683160    -1.6231340    -0.2733960
  H        1.3705130    -0.6385200     1.1952170
  H        2.1747220    -0.0011550    -0.2602410
units angstrom
no_reorient  #important for SAPT in psi4, default
symmetry c1  #important for SAPT in psi4, default
}

set PROPERTIES_ORIGIN ["COM"]
properties('MP2/aug-cc-pvtz', properties = ['dipole'])
--------------------------------------------------------------------------

    Molecular point group: c1
  Charge       = 1
  Multiplicity = 1
  Basis Set: AUG-CC-PVTZ
    Blend: AUG-CC-PVTZ
  Basis Set: (AUG-CC-PVTZ AUX)
    Blend: AUG-CC-PVTZ-JKFIT

    Orbital Energies [Eh]
    ---------------------

    Doubly Occupied:

       1A    -15.888362     2A    -11.480604     3A    -11.397389
       4A    -11.397213     5A     -1.507809     6A     -1.247651
       7A     -1.126455     8A     -1.019406     9A     -0.959414
      10A     -0.951053    11A     -0.850332    12A     -0.794920
      13A     -0.739241    14A     -0.716433    15A     -0.714865
      16A     -0.679592    17A     -0.676793

  @DF-RHF Final Energy:  -173.72892804932621

   => Energetics <=

    Nuclear Repulsion Energy =            144.0098244332266404
    One-Electron Energy =                -511.1824424102262583
    Two-Electron Energy =                 193.4436899276734039
    Total Energy =                       -173.7289280493262140
  Basis Set: (AUG-CC-PVTZ AUX)
    Blend: AUG-CC-PVTZ-RI
    Molecular point group: c1

    Geometry (in Angstrom), charge = 1, multiplicity = 1:

       Center              X                  Y                   Z               Mass
    ------------   -----------------  -----------------  -----------------  -----------------
         N           -0.139043177007     1.357594917753     0.099105171753    14.003074004430
         C            0.009279822993    -0.072717082247    -0.376938828247    12.000000000000
         C           -1.191580877007    -0.868988382247     0.100077571753    12.000000000000
         C            1.341529822993    -0.610787082247     0.112938171753    12.000000000000
         H           -0.005304477007    -0.007627782247    -1.467097428247     1.007825032230
         H           -1.011486177007     1.781362917753    -0.239543828247     1.007825032230
         H            0.633161822993     1.950844917753    -0.228355828247     1.007825032230
         H           -0.151987177007     1.411660917753     1.125207171753     1.007825032230
         H           -1.111463177007    -1.888798082247    -0.265873828247     1.007825032230
         H           -1.208012177007    -0.907082082247     1.205220171753     1.007825032230
         H           -2.126726177007    -0.440242082247    -0.247228828247     1.007825032230
         H            1.469739822993    -1.628116082247    -0.263097828247     1.007825032230
         H            1.371936822993    -0.643502082247     1.205515171753     1.007825032230
         H            2.176145822993    -0.006137082247    -0.249942828247     1.007825032230

  Basis Set: AUG-CC-PVTZ
    Blend: AUG-CC-PVTZ
  Basis Set: (AUG-CC-PVTZ AUX)
    Blend: AUG-CC-PVTZ-JKFIT
	 Reference Energy          =    -173.7289280493262140 [Eh]
	 Singles Energy            =      -0.0000000000000000 [Eh]
	 Same-Spin Energy          =      -0.1758366023387033 [Eh]
	 Opposite-Spin Energy      =      -0.6568849353467632 [Eh]
	 Correlation Energy        =      -0.8327215376854665 [Eh]
	 Total Energy              =    -174.5616495870116864 [Eh]

	 ================> DF-SCS-MP2 Energies <==================
	-----------------------------------------------------------
	 SCS Same-Spin Scale       =       0.3333333333333333 [-]
	 SCS Opposite-Spin Scale   =       1.2000000000000000 [-]
	 SCS Same-Spin Energy      =      -0.0586122007795678 [Eh]
	 SCS Opposite-Spin Energy  =      -0.7882619224161158 [Eh]
	 SCS Correlation Energy    =      -0.8468741231956836 [Eh]
	 SCS Total Energy          =    -174.5758021725218896 [Eh]
	-----------------------------------------------------------

  Dipole Moment: [D]
     X:    -0.4222      Y:     4.1054      Z:     0.2077     Total:     4.1322

*** Psi4 exiting successfully. Buy a developer a beer!
