                               Psi4 1.4a3.dev225

  ==> Input File <==

--------------------------------------------------------------------------
#psi4
#
memory 32 gb

molecule  {
1 1
  N        0.0000020     1.3752550     0.0881560
  C        0.0000000    -0.0769010    -0.3911070
  C       -1.2745200    -0.7353630     0.1032760
  C        1.2745180    -0.7353670     0.1032760
  H        0.0000000    -0.0031690    -1.4821840
  H       -0.8714663     1.9099018    -0.2566232
  H        0.8310870     1.8851240    -0.2406470
  H        0.0000020     1.4165200     1.1165880
  H       -1.3097880    -1.7608000    -0.2705820
  H       -1.2994510    -0.7789970     1.1965910
  H       -2.1709030    -0.2224960    -0.2574420
  H        1.3097830    -1.7608040    -0.2705810
  H        1.2994490    -0.7790000     1.1965910
  H        2.1709020    -0.2225020    -0.2574420
units angstrom
no_reorient  #important for SAPT in psi4, default
symmetry c1  #important for SAPT in psi4, default
}

set PROPERTIES_ORIGIN ["COM"]
properties('MP2/aug-cc-pvtz', properties = ['dipole'])
--------------------------------------------------------------------------

    Molecular point group: c1
  Charge       = 1
  Multiplicity = 1
  Basis Set: AUG-CC-PVTZ
    Blend: AUG-CC-PVTZ
  Basis Set: (AUG-CC-PVTZ AUX)
    Blend: AUG-CC-PVTZ-JKFIT

    Orbital Energies [Eh]
    ---------------------

    Doubly Occupied:

       1A    -15.889520     2A    -11.482296     3A    -11.397505
       4A    -11.397444     5A     -1.495435     6A     -1.245134
       7A     -1.125744     8A     -1.016183     9A     -0.953308
      10A     -0.935375    11A     -0.846182    12A     -0.794192
      13A     -0.739679    14A     -0.714784    15A     -0.710881
      16A     -0.679809    17A     -0.679570

  @DF-RHF Final Energy:  -173.72544326409016

   => Energetics <=

    Nuclear Repulsion Energy =            143.4679864023302116
    One-Electron Energy =                -510.1807809201851569
    Two-Electron Energy =                 192.9873512537647855
    Total Energy =                       -173.7254432640901598
  Basis Set: (AUG-CC-PVTZ AUX)
    Blend: AUG-CC-PVTZ-RI
    Molecular point group: c1

    Geometry (in Angstrom), charge = 1, multiplicity = 1:

       Center              X                  Y                   Z               Mass
    ------------   -----------------  -----------------  -----------------  -----------------
         N            0.000679370391     1.369137809755     0.096515087371    14.003074004430
         C            0.000677370391    -0.083018190245    -0.382747912629    12.000000000000
         C           -1.273842629609    -0.741480190245     0.111635087371    12.000000000000
         C            1.275195370391    -0.741484190245     0.111635087371    12.000000000000
         H            0.000677370391    -0.009286190245    -1.473824912629     1.007825032230
         H           -0.870788929609     1.903784609755    -0.248264112629     1.007825032230
         H            0.831764370391     1.879006809755    -0.232287912629     1.007825032230
         H            0.000679370391     1.410402809755     1.124947087371     1.007825032230
         H           -1.309110629609    -1.766917190245    -0.262222912629     1.007825032230
         H           -1.298773629609    -0.785114190245     1.204950087371     1.007825032230
         H           -2.170225629609    -0.228613190245    -0.249082912629     1.007825032230
         H            1.310460370391    -1.766921190245    -0.262221912629     1.007825032230
         H            1.300126370391    -0.785117190245     1.204950087371     1.007825032230
         H            2.171579370391    -0.228619190245    -0.249082912629     1.007825032230

  Basis Set: AUG-CC-PVTZ
    Blend: AUG-CC-PVTZ
  Basis Set: (AUG-CC-PVTZ AUX)
    Blend: AUG-CC-PVTZ-JKFIT
	 Reference Energy          =    -173.7254432640901598 [Eh]
	 Singles Energy            =      -0.0000000000000000 [Eh]
	 Same-Spin Energy          =      -0.1760789577764029 [Eh]
	 Opposite-Spin Energy      =      -0.6579076181331652 [Eh]
	 Correlation Energy        =      -0.8339865759095682 [Eh]
	 Total Energy              =    -174.5594298399997228 [Eh]

	 ================> DF-SCS-MP2 Energies <==================
	-----------------------------------------------------------
	 SCS Same-Spin Scale       =       0.3333333333333333 [-]
	 SCS Opposite-Spin Scale   =       1.2000000000000000 [-]
	 SCS Same-Spin Energy      =      -0.0586929859254676 [Eh]
	 SCS Opposite-Spin Energy  =      -0.7894891417597982 [Eh]
	 SCS Correlation Energy    =      -0.8481821276852659 [Eh]
	 SCS Total Energy          =    -174.5736253917754368 [Eh]
	-----------------------------------------------------------

  Dipole Moment: [D]
     X:    -0.0507      Y:     4.1034      Z:     0.1780     Total:     4.1076

*** Psi4 exiting successfully. Buy a developer a beer!
