                               Psi4 1.3.2 release

  ==> Input File <==

--------------------------------------------------------------------------
#psi4
#
memory 32 gb

molecule  {
1 1
  N       -0.1290446     1.3656621     0.0829130
  C        0.0078560    -0.0677350    -0.3872370
  C       -1.1841645    -0.8731913     0.0964846
  C        1.3401060    -0.6058050     0.1026400
  H        0.0013190     0.0024560    -1.4771570
  H       -1.0129100     1.7863450    -0.2498420
  H        0.6317380     1.9558270    -0.2386540
  H       -0.1534110     1.4166430     1.1149090
  H       -1.1128870    -1.8838160    -0.2761720
  H       -1.2094360    -0.9021000     1.1949220
  H       -2.1281500    -0.4352600    -0.2575270
  H        1.4683160    -1.6231340    -0.2733960
  H        1.3705130    -0.6385200     1.1952170
  H        2.1747220    -0.0011550    -0.2602410
units angstrom
no_reorient  #important for SAPT in psi4, default
symmetry c1  #important for SAPT in psi4, default
}

set PROPERTIES_ORIGIN ["COM"]
properties('MP2/aug-cc-pvtz', properties = ['dipole'])
--------------------------------------------------------------------------

    Molecular point group: c1
  Charge       = 1
  Multiplicity = 1
  Basis Set: AUG-CC-PVTZ
    Blend: AUG-CC-PVTZ
  Basis Set: (AUG-CC-PVTZ AUX)
    Blend: AUG-CC-PVTZ-JKFIT

    Orbital Energies [Eh]
    ---------------------

    Doubly Occupied:

       1A    -15.888529     2A    -11.480583     3A    -11.397786
       4A    -11.396811     5A     -1.507883     6A     -1.247907
       7A     -1.125986     8A     -1.019491     9A     -0.960736
      10A     -0.950876    11A     -0.849360    12A     -0.793534
      13A     -0.739454    14A     -0.720187    15A     -0.714478
      16A     -0.678361    17A     -0.676086

  @DF-RHF Final Energy:  -173.72868534404034

   => Energetics <=

    Nuclear Repulsion Energy =            144.0049746551644034
    One-Electron Energy =                -511.1712250478006467
    Two-Electron Energy =                 193.4375650485959000
    Total Energy =                       -173.7286853440403434
  Basis Set: (AUG-CC-PVTZ AUX)
    Blend: AUG-CC-PVTZ-RI
    Molecular point group: c1

    Geometry (in Angstrom), charge = 1, multiplicity = 1:

       Center              X                  Y                   Z               Mass
    ------------   -----------------  -----------------  -----------------  -----------------
         N           -0.132183615559     1.361709913417     0.093241651293    14.003074004430
         C            0.004716984441    -0.071687186583    -0.376908348707    12.000000000000
         C           -1.187303515559    -0.877143486583     0.106813251293    12.000000000000
         C            1.336966984441    -0.609757186583     0.112968651293    12.000000000000
         H           -0.001820015559    -0.001496186583    -1.466828348707     1.007825032230
         H           -1.016049015559     1.782392813417    -0.239513348707     1.007825032230
         H            0.628598984441     1.951874813417    -0.228325348707     1.007825032230
         H           -0.156550015559     1.412690813417     1.125237651293     1.007825032230
         H           -1.116026015559    -1.887768186583    -0.265843348707     1.007825032230
         H           -1.212575015559    -0.906052186583     1.205250651293     1.007825032230
         H           -2.131289015559    -0.439212186583    -0.247198348707     1.007825032230
         H            1.465176984441    -1.627086186583    -0.263067348707     1.007825032230
         H            1.367373984441    -0.642472186583     1.205545651293     1.007825032230
         H            2.171582984441    -0.005107186583    -0.249912348707     1.007825032230

  Basis Set: AUG-CC-PVTZ
    Blend: AUG-CC-PVTZ
  Basis Set: (AUG-CC-PVTZ AUX)
    Blend: AUG-CC-PVTZ-JKFIT
	 Reference Energy          =    -173.7286853440403434 [Eh]
	 Singles Energy            =      -0.0000000000000000 [Eh]
	 Same-Spin Energy          =      -0.1758310115511114 [Eh]
	 Opposite-Spin Energy      =      -0.6569005382906994 [Eh]
	 Correlation Energy        =      -0.8327315498418107 [Eh]
	 Total Energy              =    -174.5614168938821535 [Eh]

	 ================> DF-SCS-MP2 Energies <==================
	-----------------------------------------------------------
	 SCS Same-Spin Scale       =       0.3333333333333333 [-]
	 SCS Opposite-Spin Scale   =       1.2000000000000000 [-]
	 SCS Same-Spin Energy      =      -0.0586103371837038 [Eh]
	 SCS Opposite-Spin Energy  =      -0.7882806459488393 [Eh]
	 SCS Correlation Energy    =      -0.8468909831325431 [Eh]
	 SCS Total Energy          =    -174.5755763271728824 [Eh]
	-----------------------------------------------------------

  Dipole Moment: [D]
     X:    -0.4552      Y:     4.1089      Z:     0.2161     Total:     4.1396

*** Psi4 exiting successfully. Buy a developer a beer!
