                               Psi4 1.4a3.dev225

  ==> Input File <==

--------------------------------------------------------------------------
#psi4
#
memory 32 gb

molecule  {
1 1
  N        0.0000020     1.3752550     0.0881560
  C        0.0000001    -0.0294201    -0.3754366
  C       -1.2745200    -0.7353630     0.1032760
  C        1.2745180    -0.7353670     0.1032760
  H        0.0000000    -0.0031690    -1.4821840
  H       -0.8310820     1.8851260    -0.2406460
  H        0.8310870     1.8851240    -0.2406470
  H        0.0000020     1.4165200     1.1165880
  H       -1.3097880    -1.7608000    -0.2705820
  H       -1.2994510    -0.7789970     1.1965910
  H       -2.1709030    -0.2224960    -0.2574420
  H        1.3097830    -1.7608040    -0.2705810
  H        1.2994490    -0.7790000     1.1965910
  H        2.1709020    -0.2225020    -0.2574420
units angstrom
no_reorient  #important for SAPT in psi4, default
symmetry c1  #important for SAPT in psi4, default
}

set PROPERTIES_ORIGIN ["COM"]
properties('MP2/aug-cc-pvtz', properties = ['dipole'])
--------------------------------------------------------------------------

    Molecular point group: c1
  Charge       = 1
  Multiplicity = 1
  Basis Set: AUG-CC-PVTZ
    Blend: AUG-CC-PVTZ
  Basis Set: (AUG-CC-PVTZ AUX)
    Blend: AUG-CC-PVTZ-JKFIT

    Orbital Energies [Eh]
    ---------------------

    Doubly Occupied:

       1A    -15.893762     2A    -11.479723     3A    -11.397454
       4A    -11.397442     5A     -1.517322     6A     -1.241075
       7A     -1.122829     8A     -1.023202     9A     -0.966062
      10A     -0.957242    11A     -0.851422    12A     -0.788789
      13A     -0.736523    14A     -0.717230    15A     -0.714366
      16A     -0.673562    17A     -0.671549

  @DF-RHF Final Energy:  -173.72699196508052

   => Energetics <=

    Nuclear Repulsion Energy =            143.9317063821728482
    One-Electron Energy =                -511.0182883081155296
    Two-Electron Energy =                 193.3595899608621949
    Total Energy =                       -173.7269919650805150
  Basis Set: (AUG-CC-PVTZ AUX)
    Blend: AUG-CC-PVTZ-RI
    Molecular point group: c1

    Geometry (in Angstrom), charge = 1, multiplicity = 1:

       Center              X                  Y                   Z               Mass
    ------------   -----------------  -----------------  -----------------  -----------------
         N            0.000001930123     1.360070081394     0.093117242460    14.003074004430
         C            0.000000030123    -0.044605018606    -0.370475357540    12.000000000000
         C           -1.274520069877    -0.750547918606     0.108237242460    12.000000000000
         C            1.274517930123    -0.750551918606     0.108237242460    12.000000000000
         H           -0.000000069877    -0.018353918606    -1.477222757540     1.007825032230
         H           -0.831082069877     1.869941081394    -0.235684757540     1.007825032230
         H            0.831086930123     1.869939081394    -0.235685757540     1.007825032230
         H            0.000001930123     1.401335081394     1.121549242460     1.007825032230
         H           -1.309788069877    -1.775984918606    -0.265620757540     1.007825032230
         H           -1.299451069877    -0.794181918606     1.201552242460     1.007825032230
         H           -2.170903069877    -0.237680918606    -0.252480757540     1.007825032230
         H            1.309782930123    -1.775988918606    -0.265619757540     1.007825032230
         H            1.299448930123    -0.794184918606     1.201552242460     1.007825032230
         H            2.170901930123    -0.237686918606    -0.252480757540     1.007825032230

  Basis Set: AUG-CC-PVTZ
    Blend: AUG-CC-PVTZ
  Basis Set: (AUG-CC-PVTZ AUX)
    Blend: AUG-CC-PVTZ-JKFIT
	 Reference Energy          =    -173.7269919650805150 [Eh]
	 Singles Energy            =      -0.0000000000000000 [Eh]
	 Same-Spin Energy          =      -0.1759201321315692 [Eh]
	 Opposite-Spin Energy      =      -0.6570548892627796 [Eh]
	 Correlation Energy        =      -0.8329750213943488 [Eh]
	 Total Energy              =    -174.5599669864748762 [Eh]

	 ================> DF-SCS-MP2 Energies <==================
	-----------------------------------------------------------
	 SCS Same-Spin Scale       =       0.3333333333333333 [-]
	 SCS Opposite-Spin Scale   =       1.2000000000000000 [-]
	 SCS Same-Spin Energy      =      -0.0586400440438564 [Eh]
	 SCS Opposite-Spin Energy  =      -0.7884658671153354 [Eh]
	 SCS Correlation Energy    =      -0.8471059111591918 [Eh]
	 SCS Total Energy          =    -174.5740978762397049 [Eh]
	-----------------------------------------------------------

  Dipole Moment: [D]
     X:     0.0000      Y:     4.1828      Z:     0.2163     Total:     4.1884

*** Psi4 exiting successfully. Buy a developer a beer!
