                               Psi4 1.3.2 release

  ==> Input File <==

--------------------------------------------------------------------------
#psi4
#
memory 32 gb

molecule  {
1 1
  N       -0.1404670     1.3625770     0.0888070
  C       -0.0019360     0.0266918    -0.3558094
  C       -1.1890530    -0.8623480     0.1023120
  C        1.3401060    -0.6058050     0.1026400
  H        0.0013190     0.0024560    -1.4771570
  H       -1.0129100     1.7863450    -0.2498420
  H        0.6317380     1.9558270    -0.2386540
  H       -0.1534110     1.4166430     1.1149090
  H       -1.1128870    -1.8838160    -0.2761720
  H       -1.2094360    -0.9021000     1.1949220
  H       -2.1281500    -0.4352600    -0.2575270
  H        1.4683160    -1.6231340    -0.2733960
  H        1.3705130    -0.6385200     1.1952170
  H        2.1747220    -0.0011550    -0.2602410
units angstrom
no_reorient  #important for SAPT in psi4, default
symmetry c1  #important for SAPT in psi4, default
}

set PROPERTIES_ORIGIN ["COM"]
properties('MP2/aug-cc-pvtz', properties = ['dipole'])
--------------------------------------------------------------------------

    Molecular point group: c1
  Charge       = 1
  Multiplicity = 1
  Basis Set: AUG-CC-PVTZ
    Blend: AUG-CC-PVTZ
  Basis Set: (AUG-CC-PVTZ AUX)
    Blend: AUG-CC-PVTZ-JKFIT

    Orbital Energies [Eh]
    ---------------------

    Doubly Occupied:

       1A    -15.900472     2A    -11.475112     3A    -11.397152
       4A    -11.397118     5A     -1.538173     6A     -1.235613
       7A     -1.119698     8A     -1.034506     9A     -0.978994
      10A     -0.966984    11A     -0.857238    12A     -0.782027
      13A     -0.732394    14A     -0.724528    15A     -0.714347
      16A     -0.665598    17A     -0.659428

  @DF-RHF Final Energy:  -173.71870545817862

   => Energetics <=

    Nuclear Repulsion Energy =            144.5119534436161928
    One-Electron Energy =                -512.1025509770736335
    Two-Electron Energy =                 193.8718920752787938
    Total Energy =                       -173.7187054581786185
  Basis Set: (AUG-CC-PVTZ AUX)
    Blend: AUG-CC-PVTZ-RI
    Molecular point group: c1

    Geometry (in Angstrom), charge = 1, multiplicity = 1:

       Center              X                  Y                   Z               Mass
    ------------   -----------------  -----------------  -----------------  -----------------
         N           -0.138011686268     1.338318331660     0.090321030042    14.003074004430
         C            0.000519313732     0.002433131660    -0.354295369958    12.000000000000
         C           -1.186597686268    -0.886606668340     0.103826030042    12.000000000000
         C            1.342561313732    -0.630063668340     0.104154030042    12.000000000000
         H            0.003774313732    -0.021802668340    -1.475642969958     1.007825032230
         H           -1.010454686268     1.762086331660    -0.248327969958     1.007825032230
         H            0.634193313732     1.931568331660    -0.237139969958     1.007825032230
         H           -0.150955686268     1.392384331660     1.116423030042     1.007825032230
         H           -1.110431686268    -1.908074668340    -0.274657969958     1.007825032230
         H           -1.206980686268    -0.926358668340     1.196436030042     1.007825032230
         H           -2.125694686268    -0.459518668340    -0.256012969958     1.007825032230
         H            1.470771313732    -1.647392668340    -0.271881969958     1.007825032230
         H            1.372968313732    -0.662778668340     1.196731030042     1.007825032230
         H            2.177177313732    -0.025413668340    -0.258726969958     1.007825032230

  Basis Set: AUG-CC-PVTZ
    Blend: AUG-CC-PVTZ
  Basis Set: (AUG-CC-PVTZ AUX)
    Blend: AUG-CC-PVTZ-JKFIT
	 Reference Energy          =    -173.7187054581786185 [Eh]
	 Singles Energy            =      -0.0000000000000000 [Eh]
	 Same-Spin Energy          =      -0.1762999847941177 [Eh]
	 Opposite-Spin Energy      =      -0.6573091396178139 [Eh]
	 Correlation Energy        =      -0.8336091244119316 [Eh]
	 Total Energy              =    -174.5523145825905544 [Eh]

	 ================> DF-SCS-MP2 Energies <==================
	-----------------------------------------------------------
	 SCS Same-Spin Scale       =       0.3333333333333333 [-]
	 SCS Opposite-Spin Scale   =       1.2000000000000000 [-]
	 SCS Same-Spin Energy      =      -0.0587666615980392 [Eh]
	 SCS Opposite-Spin Energy  =      -0.7887709675413767 [Eh]
	 SCS Correlation Energy    =      -0.8475376291394159 [Eh]
	 SCS Total Energy          =    -174.5662430873180426 [Eh]
	-----------------------------------------------------------

  Dipole Moment: [D]
     X:    -0.4443      Y:     4.2906      Z:     0.2266     Total:     4.3195

*** Psi4 exiting successfully. Buy a developer a beer!
