                               Psi4 1.3.2 release

  ==> Input File <==

--------------------------------------------------------------------------
#psi4
#
memory 32 gb

molecule  {
1 1
  N       -0.1404670     1.3625770     0.0888070
  C        0.0078560    -0.0677350    -0.3872370
  C       -1.1387975    -0.9102968     0.1409056
  C        1.3004932    -0.6628817     0.1412308
  H        0.0013190     0.0024560    -1.4771570
  H       -1.0129100     1.7863450    -0.2498420
  H        0.6317380     1.9558270    -0.2386540
  H       -0.1534110     1.4166430     1.1149090
  H       -1.1128870    -1.8838160    -0.2761720
  H       -1.2094360    -0.9021000     1.1949220
  H       -2.1281500    -0.4352600    -0.2575270
  H        1.4683160    -1.6231340    -0.2733960
  H        1.3705130    -0.6385200     1.1952170
  H        2.1747220    -0.0011550    -0.2602410
units angstrom
no_reorient  #important for SAPT in psi4, default
symmetry c1  #important for SAPT in psi4, default
}

set PROPERTIES_ORIGIN ["COM"]
properties('MP2/aug-cc-pvtz', properties = ['dipole'])
--------------------------------------------------------------------------

    Molecular point group: c1
  Charge       = 1
  Multiplicity = 1
  Basis Set: AUG-CC-PVTZ
    Blend: AUG-CC-PVTZ
  Basis Set: (AUG-CC-PVTZ AUX)
    Blend: AUG-CC-PVTZ-JKFIT

    Orbital Energies [Eh]
    ---------------------

    Doubly Occupied:

       1A    -15.890915     2A    -11.481230     3A    -11.397365
       4A    -11.397317     5A     -1.509096     6A     -1.251212
       7A     -1.121325     8A     -1.024365     9A     -0.961150
      10A     -0.953043    11A     -0.855237    12A     -0.782378
      13A     -0.745023    14A     -0.732370    15A     -0.726629
      16A     -0.686187    17A     -0.641693

  @DF-RHF Final Energy:  -173.71500186421122

   => Energetics <=

    Nuclear Repulsion Energy =            144.1769474797957855
    One-Electron Energy =                -511.4708302113162972
    Two-Electron Energy =                 193.5788808673092944
    Total Energy =                       -173.7150018642112173
  Basis Set: (AUG-CC-PVTZ AUX)
    Blend: AUG-CC-PVTZ-RI
    Molecular point group: c1

    Geometry (in Angstrom), charge = 1, multiplicity = 1:

       Center              X                  Y                   Z               Mass
    ------------   -----------------  -----------------  -----------------  -----------------
         N           -0.142093094305     1.378154797098     0.081182057056    14.003074004430
         C            0.006229905695    -0.052157202902    -0.394861942944    12.000000000000
         C           -1.140423594305    -0.894719002902     0.133280657056    12.000000000000
         C            1.298867105695    -0.647303902902     0.133605857056    12.000000000000
         H           -0.000307094305     0.018033797098    -1.484781942944     1.007825032230
         H           -1.014536094305     1.801922797098    -0.257466942944     1.007825032230
         H            0.630111905695     1.971404797098    -0.246278942944     1.007825032230
         H           -0.155037094305     1.432220797098     1.107284057056     1.007825032230
         H           -1.114513094305    -1.868238202902    -0.283796942944     1.007825032230
         H           -1.211062094305    -0.886522202902     1.187297057056     1.007825032230
         H           -2.129776094305    -0.419682202902    -0.265151942944     1.007825032230
         H            1.466689905695    -1.607556202902    -0.281020942944     1.007825032230
         H            1.368886905695    -0.622942202902     1.187592057056     1.007825032230
         H            2.173095905695     0.014422797098    -0.267865942944     1.007825032230

  Basis Set: AUG-CC-PVTZ
    Blend: AUG-CC-PVTZ
  Basis Set: (AUG-CC-PVTZ AUX)
    Blend: AUG-CC-PVTZ-JKFIT
	 Reference Energy          =    -173.7150018642112173 [Eh]
	 Singles Energy            =      -0.0000000000000000 [Eh]
	 Same-Spin Energy          =      -0.1760004062702507 [Eh]
	 Opposite-Spin Energy      =      -0.6576257366785596 [Eh]
	 Correlation Energy        =      -0.8336261429488103 [Eh]
	 Total Energy              =    -174.5486280071600333 [Eh]

	 ================> DF-SCS-MP2 Energies <==================
	-----------------------------------------------------------
	 SCS Same-Spin Scale       =       0.3333333333333333 [-]
	 SCS Opposite-Spin Scale   =       1.2000000000000000 [-]
	 SCS Same-Spin Energy      =      -0.0586668020900836 [Eh]
	 SCS Opposite-Spin Energy  =      -0.7891508840142715 [Eh]
	 SCS Correlation Energy    =      -0.8478176861043550 [Eh]
	 SCS Total Energy          =    -174.5628195503155666 [Eh]
	-----------------------------------------------------------

  Dipole Moment: [D]
     X:    -0.4365      Y:     4.2188      Z:     0.1674     Total:     4.2446

*** Psi4 exiting successfully. Buy a developer a beer!
