                               Psi4 1.3.2 release

  ==> Input File <==

--------------------------------------------------------------------------
#psi4
#
memory 32 gb

molecule  {
1 1
  N       -0.1404670     1.3625770     0.0888070
  C        0.0081785    -0.0718229    -0.3746706
  C       -1.1890530    -0.8623480     0.1023120
  C        1.3401060    -0.6058050     0.1026400
  H        0.0013190     0.0024560    -1.4771570
  H       -1.0129100     1.7863450    -0.2498420
  H        0.6317380     1.9558270    -0.2386540
  H       -0.1525117     1.4077316     1.1153507
  H       -1.1128870    -1.8838160    -0.2761720
  H       -1.2094360    -0.9021000     1.1949220
  H       -2.1281500    -0.4352600    -0.2575270
  H        1.4683160    -1.6231340    -0.2733960
  H        1.3705130    -0.6385200     1.1952170
  H        2.1747220    -0.0011550    -0.2602410
units angstrom
no_reorient  #important for SAPT in psi4, default
symmetry c1  #important for SAPT in psi4, default
}

set PROPERTIES_ORIGIN ["COM"]
properties('MP2/aug-cc-pvtz', properties = ['dipole'])
--------------------------------------------------------------------------

    Molecular point group: c1
  Charge       = 1
  Multiplicity = 1
  Basis Set: AUG-CC-PVTZ
    Blend: AUG-CC-PVTZ
  Basis Set: (AUG-CC-PVTZ AUX)
    Blend: AUG-CC-PVTZ-JKFIT

    Orbital Energies [Eh]
    ---------------------

    Doubly Occupied:

       1A    -15.888090     2A    -11.481164     3A    -11.397219
       4A    -11.397182     5A     -1.507870     6A     -1.248936
       7A     -1.127628     8A     -1.017745     9A     -0.960829
      10A     -0.950889    11A     -0.848102    12A     -0.795851
      13A     -0.740310    14A     -0.716901    15A     -0.714393
      16A     -0.680593    17A     -0.676048

  @DF-RHF Final Energy:  -173.72873732875610

   => Energetics <=

    Nuclear Repulsion Energy =            144.1344937002921540
    One-Electron Energy =                -511.4269633090577827
    Two-Electron Energy =                 193.5637322800095035
    Total Energy =                       -173.7287373287560968
  Basis Set: (AUG-CC-PVTZ AUX)
    Blend: AUG-CC-PVTZ-RI
    Molecular point group: c1

    Geometry (in Angstrom), charge = 1, multiplicity = 1:

       Center              X                  Y                   Z               Mass
    ------------   -----------------  -----------------  -----------------  -----------------
         N           -0.140046933300     1.358144085259     0.094080754819    14.003074004430
         C            0.008598566700    -0.076255814741    -0.369396845181    12.000000000000
         C           -1.188632933300    -0.866780914741     0.107585754819    12.000000000000
         C            1.340526066700    -0.610237914741     0.107913754819    12.000000000000
         H            0.001739066700    -0.001976914741    -1.471883245181     1.007825032230
         H           -1.012489933300     1.781912085259    -0.244568245181     1.007825032230
         H            0.632158066700     1.951394085259    -0.233380245181     1.007825032230
         H           -0.152091633300     1.403298685259     1.120624454819     1.007825032230
         H           -1.112466933300    -1.888248914741    -0.270898245181     1.007825032230
         H           -1.209015933300    -0.906532914741     1.200195754819     1.007825032230
         H           -2.127729933300    -0.439692914741    -0.252253245181     1.007825032230
         H            1.468736066700    -1.627566914741    -0.268122245181     1.007825032230
         H            1.370933066700    -0.642952914741     1.200490754819     1.007825032230
         H            2.175142066700    -0.005587914741    -0.254967245181     1.007825032230

  Basis Set: AUG-CC-PVTZ
    Blend: AUG-CC-PVTZ
  Basis Set: (AUG-CC-PVTZ AUX)
    Blend: AUG-CC-PVTZ-JKFIT
	 Reference Energy          =    -173.7287373287560968 [Eh]
	 Singles Energy            =      -0.0000000000000000 [Eh]
	 Same-Spin Energy          =      -0.1759588147050416 [Eh]
	 Opposite-Spin Energy      =      -0.6570202403176577 [Eh]
	 Correlation Energy        =      -0.8329790550226993 [Eh]
	 Total Energy              =    -174.5617163837787871 [Eh]

	 ================> DF-SCS-MP2 Energies <==================
	-----------------------------------------------------------
	 SCS Same-Spin Scale       =       0.3333333333333333 [-]
	 SCS Opposite-Spin Scale   =       1.2000000000000000 [-]
	 SCS Same-Spin Energy      =      -0.0586529382350139 [Eh]
	 SCS Opposite-Spin Energy  =      -0.7884242883811893 [Eh]
	 SCS Correlation Energy    =      -0.8470772266162031 [Eh]
	 SCS Total Energy          =    -174.5758145553722898 [Eh]
	-----------------------------------------------------------

  Dipole Moment: [D]
     X:    -0.4231      Y:     4.0874      Z:     0.1941     Total:     4.1138

*** Psi4 exiting successfully. Buy a developer a beer!
