                               Psi4 1.3.2 release

  ==> Input File <==

--------------------------------------------------------------------------
#psi4
#
memory 32 gb

molecule  {
1 1
  N       -0.1386997     1.3451768     0.1387018
  C        0.0078560    -0.0677350    -0.3872370
  C       -1.1890530    -0.8623480     0.1023120
  C        1.3401060    -0.6058050     0.1026400
  H        0.0052398    -0.0354222    -1.4789532
  H       -1.0129100     1.7863450    -0.2498420
  H        0.6317380     1.9558270    -0.2386540
  H       -0.1534110     1.4166430     1.1149090
  H       -1.1128870    -1.8838160    -0.2761720
  H       -1.2094360    -0.9021000     1.1949220
  H       -2.1281500    -0.4352600    -0.2575270
  H        1.4683160    -1.6231340    -0.2733960
  H        1.3705130    -0.6385200     1.1952170
  H        2.1747220    -0.0011550    -0.2602410
units angstrom
no_reorient  #important for SAPT in psi4, default
symmetry c1  #important for SAPT in psi4, default
}

set PROPERTIES_ORIGIN ["COM"]
properties('MP2/aug-cc-pvtz', properties = ['dipole'])
--------------------------------------------------------------------------

    Molecular point group: c1
  Charge       = 1
  Multiplicity = 1
  Basis Set: AUG-CC-PVTZ
    Blend: AUG-CC-PVTZ
  Basis Set: (AUG-CC-PVTZ AUX)
    Blend: AUG-CC-PVTZ-JKFIT

    Orbital Energies [Eh]
    ---------------------

    Doubly Occupied:

       1A    -15.888946     2A    -11.480721     3A    -11.396266
       4A    -11.396218     5A     -1.508596     6A     -1.247913
       7A     -1.125596     8A     -1.024150     9A     -0.965287
      10A     -0.934847    11A     -0.860804    12A     -0.792931
      13A     -0.738481    14A     -0.715257    15A     -0.712697
      16A     -0.678069    17A     -0.677079

  @DF-RHF Final Energy:  -173.72439673865733

   => Energetics <=

    Nuclear Repulsion Energy =            144.1633293767264377
    One-Electron Energy =                -511.4877345129333435
    Two-Electron Energy =                 193.6000083975495727
    Total Energy =                       -173.7243967386573331
  Basis Set: (AUG-CC-PVTZ AUX)
    Blend: AUG-CC-PVTZ-RI
    Molecular point group: c1

    Geometry (in Angstrom), charge = 1, multiplicity = 1:

       Center              X                  Y                   Z               Mass
    ------------   -----------------  -----------------  -----------------  -----------------
         N           -0.138677806548     1.344468752461     0.134894057843    14.003074004430
         C            0.007877893452    -0.068443047539    -0.391044742157    12.000000000000
         C           -1.189031106548    -0.863056047539     0.098504257843    12.000000000000
         C            1.340127893452    -0.606513047539     0.098832257843    12.000000000000
         H            0.005261693452    -0.036130247539    -1.482760942157     1.007825032230
         H           -1.012888106548     1.785636952461    -0.253649742157     1.007825032230
         H            0.631759893452     1.955118952461    -0.242461742157     1.007825032230
         H           -0.153389106548     1.415934952461     1.111101257843     1.007825032230
         H           -1.112865106548    -1.884524047539    -0.279979742157     1.007825032230
         H           -1.209414106548    -0.902808047539     1.191114257843     1.007825032230
         H           -2.128128106548    -0.435968047539    -0.261334742157     1.007825032230
         H            1.468337893452    -1.623842047539    -0.277203742157     1.007825032230
         H            1.370534893452    -0.639228047539     1.191409257843     1.007825032230
         H            2.174743893452    -0.001863047539    -0.264048742157     1.007825032230

  Basis Set: AUG-CC-PVTZ
    Blend: AUG-CC-PVTZ
  Basis Set: (AUG-CC-PVTZ AUX)
    Blend: AUG-CC-PVTZ-JKFIT
	 Reference Energy          =    -173.7243967386573331 [Eh]
	 Singles Energy            =      -0.0000000000000000 [Eh]
	 Same-Spin Energy          =      -0.1759434902294836 [Eh]
	 Opposite-Spin Energy      =      -0.6571649222674251 [Eh]
	 Correlation Energy        =      -0.8331084124969086 [Eh]
	 Total Energy              =    -174.5575051511542313 [Eh]

	 ================> DF-SCS-MP2 Energies <==================
	-----------------------------------------------------------
	 SCS Same-Spin Scale       =       0.3333333333333333 [-]
	 SCS Opposite-Spin Scale   =       1.2000000000000000 [-]
	 SCS Same-Spin Energy      =      -0.0586478300764945 [Eh]
	 SCS Opposite-Spin Energy  =      -0.7885979067209100 [Eh]
	 SCS Correlation Energy    =      -0.8472457367974046 [Eh]
	 SCS Total Energy          =    -174.5716424754547518 [Eh]
	-----------------------------------------------------------

  Dipole Moment: [D]
     X:    -0.4292      Y:     4.1464      Z:     0.1038     Total:     4.1699

*** Psi4 exiting successfully. Buy a developer a beer!
