                               Psi4 1.3.2 release

  ==> Input File <==

--------------------------------------------------------------------------
#psi4
#
memory 32 gb

molecule  {
1 1
  N       -0.1404670     1.3625770     0.0888070
  C        0.0078560    -0.0677350    -0.3872370
  C       -1.1890530    -0.8623480     0.1023120
  C        1.3401060    -0.6058050     0.1026400
  H        0.0025160    -0.0103972    -1.2775740
  H       -1.0129100     1.7863450    -0.2498420
  H        0.6317380     1.9558270    -0.2386540
  H       -0.1534110     1.4166430     1.1149090
  H       -1.1128870    -1.8838160    -0.2761720
  H       -1.2094360    -0.9021000     1.1949220
  H       -2.1281500    -0.4352600    -0.2575270
  H        1.4683160    -1.6231340    -0.2733960
  H        1.3705130    -0.6385200     1.1952170
  H        2.1747220    -0.0011550    -0.2602410
units angstrom
no_reorient  #important for SAPT in psi4, default
symmetry c1  #important for SAPT in psi4, default
}

set PROPERTIES_ORIGIN ["COM"]
properties('MP2/aug-cc-pvtz', properties = ['dipole'])
--------------------------------------------------------------------------

    Molecular point group: c1
  Charge       = 1
  Multiplicity = 1
  Basis Set: AUG-CC-PVTZ
    Blend: AUG-CC-PVTZ
  Basis Set: (AUG-CC-PVTZ AUX)
    Blend: AUG-CC-PVTZ-JKFIT

    Orbital Energies [Eh]
    ---------------------

    Doubly Occupied:

       1A    -15.887520     2A    -11.458057     3A    -11.396523
       4A    -11.396481     5A     -1.509460     6A     -1.260195
       7A     -1.125824     8A     -1.046642     9A     -0.959362
      10A     -0.950911    11A     -0.871673    12A     -0.798637
      13A     -0.739968    14A     -0.715974    15A     -0.715656
      16A     -0.694497    17A     -0.677159

  @DF-RHF Final Energy:  -173.69491067492814

   => Energetics <=

    Nuclear Repulsion Energy =            145.1112851956689838
    One-Electron Energy =                -513.2033159275390517
    Two-Electron Energy =                 194.3971200569419295
    Total Energy =                       -173.6949106749281384
  Basis Set: (AUG-CC-PVTZ AUX)
    Blend: AUG-CC-PVTZ-RI
    Molecular point group: c1

    Geometry (in Angstrom), charge = 1, multiplicity = 1:

       Center              X                  Y                   Z               Mass
    ------------   -----------------  -----------------  -----------------  -----------------
         N           -0.139987514329     1.357393733035     0.093250167483    14.003074004430
         C            0.008335485671    -0.072918266965    -0.382793832517    12.000000000000
         C           -1.188573514329    -0.867531266965     0.106755167483    12.000000000000
         C            1.340585485671    -0.610988266965     0.107083167483    12.000000000000
         H            0.002995485671    -0.015580466965    -1.273130832517     1.007825032230
         H           -1.012430514329     1.781161733035    -0.245398832517     1.007825032230
         H            0.632217485671     1.950643733035    -0.234210832517     1.007825032230
         H           -0.152931514329     1.411459733035     1.119352167483     1.007825032230
         H           -1.112407514329    -1.888999266965    -0.271728832517     1.007825032230
         H           -1.208956514329    -0.907283266965     1.199365167483     1.007825032230
         H           -2.127670514329    -0.440443266965    -0.253083832517     1.007825032230
         H            1.468795485671    -1.628317266965    -0.268952832517     1.007825032230
         H            1.370992485671    -0.643703266965     1.199660167483     1.007825032230
         H            2.175201485671    -0.006338266965    -0.255797832517     1.007825032230

  Basis Set: AUG-CC-PVTZ
    Blend: AUG-CC-PVTZ
  Basis Set: (AUG-CC-PVTZ AUX)
    Blend: AUG-CC-PVTZ-JKFIT
	 Reference Energy          =    -173.6949106749281384 [Eh]
	 Singles Energy            =      -0.0000000000000000 [Eh]
	 Same-Spin Energy          =      -0.1757183799714608 [Eh]
	 Opposite-Spin Energy      =      -0.6561039907666300 [Eh]
	 Correlation Energy        =      -0.8318223707380907 [Eh]
	 Total Energy              =    -174.5267330456662194 [Eh]

	 ================> DF-SCS-MP2 Energies <==================
	-----------------------------------------------------------
	 SCS Same-Spin Scale       =       0.3333333333333333 [-]
	 SCS Opposite-Spin Scale   =       1.2000000000000000 [-]
	 SCS Same-Spin Energy      =      -0.0585727933238203 [Eh]
	 SCS Opposite-Spin Energy  =      -0.7873247889199559 [Eh]
	 SCS Correlation Energy    =      -0.8458975822437762 [Eh]
	 SCS Total Energy          =    -174.5408082571719035 [Eh]
	-----------------------------------------------------------

  Dipole Moment: [D]
     X:    -0.4272      Y:     4.1269      Z:     0.1956     Total:     4.1536

*** Psi4 exiting successfully. Buy a developer a beer!
