                               Psi4 1.3.2 release

  ==> Input File <==

--------------------------------------------------------------------------
#psi4
#
memory 32 gb

molecule  {
1 1
  N       -0.1518781     1.3593830     0.0946648
  C        0.0078560    -0.0677350    -0.3872370
  C       -1.1938504    -0.8514442     0.1081021
  C        1.3401060    -0.6058050     0.1026400
  H        0.0013190     0.0024560    -1.4771570
  H       -1.0129100     1.7863450    -0.2498420
  H        0.6317380     1.9558270    -0.2386540
  H       -0.1534110     1.4166430     1.1149090
  H       -1.1128870    -1.8838160    -0.2761720
  H       -1.2094360    -0.9021000     1.1949220
  H       -2.1281500    -0.4352600    -0.2575270
  H        1.4683160    -1.6231340    -0.2733960
  H        1.3705130    -0.6385200     1.1952170
  H        2.1747220    -0.0011550    -0.2602410
units angstrom
no_reorient  #important for SAPT in psi4, default
symmetry c1  #important for SAPT in psi4, default
}

set PROPERTIES_ORIGIN ["COM"]
properties('MP2/aug-cc-pvtz', properties = ['dipole'])
--------------------------------------------------------------------------

    Molecular point group: c1
  Charge       = 1
  Multiplicity = 1
  Basis Set: AUG-CC-PVTZ
    Blend: AUG-CC-PVTZ
  Basis Set: (AUG-CC-PVTZ AUX)
    Blend: AUG-CC-PVTZ-JKFIT

    Orbital Energies [Eh]
    ---------------------

    Doubly Occupied:

       1A    -15.887671     2A    -11.480825     3A    -11.397629
       4A    -11.396794     5A     -1.507656     6A     -1.247483
       7A     -1.126510     8A     -1.020181     9A     -0.961251
      10A     -0.947265    11A     -0.850995    12A     -0.795458
      13A     -0.740739    14A     -0.715986    15A     -0.709555
      16A     -0.680972    17A     -0.679110

  @DF-RHF Final Energy:  -173.72862021832992

   => Energetics <=

    Nuclear Repulsion Energy =            144.0745344444763134
    One-Electron Energy =                -511.3141514307512807
    Two-Electron Energy =                 193.5109967679450733
    Total Energy =                       -173.7286202183299224
  Basis Set: (AUG-CC-PVTZ AUX)
    Blend: AUG-CC-PVTZ-RI
    Molecular point group: c1

    Geometry (in Angstrom), charge = 1, multiplicity = 1:

       Center              X                  Y                   Z               Mass
    ------------   -----------------  -----------------  -----------------  -----------------
         N           -0.147760784325     1.352550742114     0.099934119987    14.003074004430
         C            0.011973315675    -0.074567257886    -0.381967680013    12.000000000000
         C           -1.189733084325    -0.858276457886     0.113371419987    12.000000000000
         C            1.344223315675    -0.612637257886     0.107909319987    12.000000000000
         H            0.005436315675    -0.004376257886    -1.471887680013     1.007825032230
         H           -1.008792684325     1.779512742114    -0.244572680013     1.007825032230
         H            0.635855315675     1.948994742114    -0.233384680013     1.007825032230
         H           -0.149293684325     1.409810742114     1.120178319987     1.007825032230
         H           -1.108769684325    -1.890648257886    -0.270902680013     1.007825032230
         H           -1.205318684325    -0.908932257886     1.200191319987     1.007825032230
         H           -2.124032684325    -0.442092257886    -0.252257680013     1.007825032230
         H            1.472433315675    -1.629966257886    -0.268126680013     1.007825032230
         H            1.374630315675    -0.645352257886     1.200486319987     1.007825032230
         H            2.178839315675    -0.007987257886    -0.254971680013     1.007825032230

  Basis Set: AUG-CC-PVTZ
    Blend: AUG-CC-PVTZ
  Basis Set: (AUG-CC-PVTZ AUX)
    Blend: AUG-CC-PVTZ-JKFIT
	 Reference Energy          =    -173.7286202183299224 [Eh]
	 Singles Energy            =      -0.0000000000000000 [Eh]
	 Same-Spin Energy          =      -0.1758779723500359 [Eh]
	 Opposite-Spin Energy      =      -0.6569460452701277 [Eh]
	 Correlation Energy        =      -0.8328240176201636 [Eh]
	 Total Energy              =    -174.5614442359500913 [Eh]

	 ================> DF-SCS-MP2 Energies <==================
	-----------------------------------------------------------
	 SCS Same-Spin Scale       =       0.3333333333333333 [-]
	 SCS Opposite-Spin Scale   =       1.2000000000000000 [-]
	 SCS Same-Spin Energy      =      -0.0586259907833453 [Eh]
	 SCS Opposite-Spin Energy  =      -0.7883352543241532 [Eh]
	 SCS Correlation Energy    =      -0.8469612451074985 [Eh]
	 SCS Total Energy          =    -174.5755814634374303 [Eh]
	-----------------------------------------------------------

  Dipole Moment: [D]
     X:    -0.3937      Y:     4.0912      Z:     0.1834     Total:     4.1142

*** Psi4 exiting successfully. Buy a developer a beer!
