                               Psi4 1.3.2 release

  ==> Input File <==

--------------------------------------------------------------------------
#psi4
#
memory 32 gb

molecule  {
1 1
  N       -0.1404670     1.3625770     0.0888070
  C        0.0084898    -0.0758015    -0.3620690
  C       -1.1890530    -0.8623480     0.1023120
  C        1.3401060    -0.6058050     0.1026400
  H        0.0013190     0.0024560    -1.4771570
  H       -1.0129100     1.7863450    -0.2498420
  H        0.6317380     1.9558270    -0.2386540
  H       -0.1516115     1.3988168     1.1157142
  H       -1.1128870    -1.8838160    -0.2761720
  H       -1.2094360    -0.9021000     1.1949220
  H       -2.1281500    -0.4352600    -0.2575270
  H        1.4683160    -1.6231340    -0.2733960
  H        1.3705130    -0.6385200     1.1952170
  H        2.1747220    -0.0011550    -0.2602410
units angstrom
no_reorient  #important for SAPT in psi4, default
symmetry c1  #important for SAPT in psi4, default
}

set PROPERTIES_ORIGIN ["COM"]
properties('MP2/aug-cc-pvtz', properties = ['dipole'])
--------------------------------------------------------------------------

    Molecular point group: c1
  Charge       = 1
  Multiplicity = 1
  Basis Set: AUG-CC-PVTZ
    Blend: AUG-CC-PVTZ
  Basis Set: (AUG-CC-PVTZ AUX)
    Blend: AUG-CC-PVTZ-JKFIT

    Orbital Energies [Eh]
    ---------------------

    Doubly Occupied:

       1A    -15.888103     2A    -11.481691     3A    -11.397211
       4A    -11.397178     5A     -1.508023     6A     -1.250227
       7A     -1.129039     8A     -1.015739     9A     -0.962431
      10A     -0.950906    11A     -0.846216    12A     -0.797175
      13A     -0.740790    14A     -0.717539    15A     -0.714748
      16A     -0.683279    17A     -0.672417

  @DF-RHF Final Energy:  -173.72788466652162

   => Energetics <=

    Nuclear Repulsion Energy =            144.2296957461008446
    One-Electron Energy =                -511.6097406622558879
    Two-Electron Energy =                 193.6521602496334253
    Total Energy =                       -173.7278846665216179
  Basis Set: (AUG-CC-PVTZ AUX)
    Blend: AUG-CC-PVTZ-RI
    Molecular point group: c1

    Geometry (in Angstrom), charge = 1, multiplicity = 1:

       Center              X                  Y                   Z               Mass
    ------------   -----------------  -----------------  -----------------  -----------------
         N           -0.140124209295     1.359088268151     0.091557748775    14.003074004430
         C            0.008832590705    -0.079290231849    -0.359318251225    12.000000000000
         C           -1.188710209295    -0.865836731849     0.105062748775    12.000000000000
         C            1.340448790705    -0.609293731849     0.105390748775    12.000000000000
         H            0.001661790705    -0.001032731849    -1.474406251225     1.007825032230
         H           -1.012567209295     1.782856268151    -0.247091251225     1.007825032230
         H            0.632080790705     1.952338268151    -0.235903251225     1.007825032230
         H           -0.151268709295     1.395328068151     1.118464948775     1.007825032230
         H           -1.112544209295    -1.887304731849    -0.273421251225     1.007825032230
         H           -1.209093209295    -0.905588731849     1.197672748775     1.007825032230
         H           -2.127807209295    -0.438748731849    -0.254776251225     1.007825032230
         H            1.468658790705    -1.626622731849    -0.270645251225     1.007825032230
         H            1.370855790705    -0.642008731849     1.197967748775     1.007825032230
         H            2.175064790705    -0.004643731849    -0.257490251225     1.007825032230

  Basis Set: AUG-CC-PVTZ
    Blend: AUG-CC-PVTZ
  Basis Set: (AUG-CC-PVTZ AUX)
    Blend: AUG-CC-PVTZ-JKFIT
	 Reference Energy          =    -173.7278846665216179 [Eh]
	 Singles Energy            =      -0.0000000000000000 [Eh]
	 Same-Spin Energy          =      -0.1760827574905248 [Eh]
	 Opposite-Spin Energy      =      -0.6571705188731365 [Eh]
	 Correlation Energy        =      -0.8332532763636613 [Eh]
	 Total Energy              =    -174.5611379428852672 [Eh]

	 ================> DF-SCS-MP2 Energies <==================
	-----------------------------------------------------------
	 SCS Same-Spin Scale       =       0.3333333333333333 [-]
	 SCS Opposite-Spin Scale   =       1.2000000000000000 [-]
	 SCS Same-Spin Energy      =      -0.0586942524968416 [Eh]
	 SCS Opposite-Spin Energy  =      -0.7886046226477638 [Eh]
	 SCS Correlation Energy    =      -0.8472988751446053 [Eh]
	 SCS Total Energy          =    -174.5751835416662345 [Eh]
	-----------------------------------------------------------

  Dipole Moment: [D]
     X:    -0.4219      Y:     4.0746      Z:     0.1889     Total:     4.1008

*** Psi4 exiting successfully. Buy a developer a beer!
