                               Psi4 1.4a3.dev225

  ==> Input File <==

--------------------------------------------------------------------------
#psi4
#
memory 32 gb

molecule  {
1 1
  N        0.0000020     1.3752550     0.0881560
  C        0.0000000    -0.0769010    -0.3911070
  C       -1.2745200    -0.7353630     0.1032760
  C        1.2745180    -0.7353670     0.1032760
  H        0.0000000    -0.0031690    -1.4821840
  H       -0.8472357     1.8950363    -0.2470369
  H        0.8310870     1.8851240    -0.2406470
  H        0.0000020     1.4165200     1.1165880
  H       -1.3097880    -1.7608000    -0.2705820
  H       -1.2994510    -0.7789970     1.1965910
  H       -2.1709030    -0.2224960    -0.2574420
  H        1.3097830    -1.7608040    -0.2705810
  H        1.2994490    -0.7790000     1.1965910
  H        2.1709020    -0.2225020    -0.2574420
units angstrom
no_reorient  #important for SAPT in psi4, default
symmetry c1  #important for SAPT in psi4, default
}

set PROPERTIES_ORIGIN ["COM"]
properties('MP2/aug-cc-pvtz', properties = ['dipole'])
--------------------------------------------------------------------------

    Molecular point group: c1
  Charge       = 1
  Multiplicity = 1
  Basis Set: AUG-CC-PVTZ
    Blend: AUG-CC-PVTZ
  Basis Set: (AUG-CC-PVTZ AUX)
    Blend: AUG-CC-PVTZ-JKFIT

    Orbital Energies [Eh]
    ---------------------

    Doubly Occupied:

       1A    -15.887865     2A    -11.482667     3A    -11.397698
       4A    -11.397673     5A     -1.499724     6A     -1.246323
       7A     -1.126135     8A     -1.016760     9A     -0.954709
      10A     -0.943919    11A     -0.846768    12A     -0.794775
      13A     -0.740286    14A     -0.715134    15A     -0.711269
      16A     -0.680079    17A     -0.679896

  @DF-RHF Final Energy:  -173.72793671505605

   => Energetics <=

    Nuclear Repulsion Energy =            143.6089429689511121
    One-Electron Energy =                -510.4303931666357812
    Two-Electron Energy =                 193.0935134826286230
    Total Energy =                       -173.7279367150560461
  Basis Set: (AUG-CC-PVTZ AUX)
    Blend: AUG-CC-PVTZ-RI
    Molecular point group: c1

    Geometry (in Angstrom), charge = 1, multiplicity = 1:

       Center              X                  Y                   Z               Mass
    ------------   -----------------  -----------------  -----------------  -----------------
         N            0.000272917878     1.369387168823     0.096354283441    14.003074004430
         C            0.000270917878    -0.082768831177    -0.382908716559    12.000000000000
         C           -1.274249082122    -0.741230831177     0.111474283441    12.000000000000
         C            1.274788917878    -0.741234831177     0.111474283441    12.000000000000
         H            0.000270917878    -0.009036831177    -1.473985716559     1.007825032230
         H           -0.846964782122     1.889168468823    -0.238838616559     1.007825032230
         H            0.831357917878     1.879256168823    -0.232448716559     1.007825032230
         H            0.000272917878     1.410652168823     1.124786283441     1.007825032230
         H           -1.309517082122    -1.766667831177    -0.262383716559     1.007825032230
         H           -1.299180082122    -0.784864831177     1.204789283441     1.007825032230
         H           -2.170632082122    -0.228363831177    -0.249243716559     1.007825032230
         H            1.310053917878    -1.766671831177    -0.262382716559     1.007825032230
         H            1.299719917878    -0.784867831177     1.204789283441     1.007825032230
         H            2.171172917878    -0.228369831177    -0.249243716559     1.007825032230

  Basis Set: AUG-CC-PVTZ
    Blend: AUG-CC-PVTZ
  Basis Set: (AUG-CC-PVTZ AUX)
    Blend: AUG-CC-PVTZ-JKFIT
	 Reference Energy          =    -173.7279367150560461 [Eh]
	 Singles Energy            =      -0.0000000000000000 [Eh]
	 Same-Spin Energy          =      -0.1759039322750766 [Eh]
	 Opposite-Spin Energy      =      -0.6573596272367851 [Eh]
	 Correlation Energy        =      -0.8332635595118617 [Eh]
	 Total Energy              =    -174.5612002745679092 [Eh]

	 ================> DF-SCS-MP2 Energies <==================
	-----------------------------------------------------------
	 SCS Same-Spin Scale       =       0.3333333333333333 [-]
	 SCS Opposite-Spin Scale   =       1.2000000000000000 [-]
	 SCS Same-Spin Energy      =      -0.0586346440916922 [Eh]
	 SCS Opposite-Spin Energy  =      -0.7888315526841421 [Eh]
	 SCS Correlation Energy    =      -0.8474661967758342 [Eh]
	 SCS Total Energy          =    -174.5754029118318726 [Eh]
	-----------------------------------------------------------

  Dipole Moment: [D]
     X:    -0.0201      Y:     4.0815      Z:     0.1912     Total:     4.0860

*** Psi4 exiting successfully. Buy a developer a beer!
