                               Psi4 1.3.2 release

  ==> Input File <==

--------------------------------------------------------------------------
#psi4
#
memory 32 gb

molecule  {
1 1
  N       -0.1404670     1.3625770     0.0888070
  C        0.0274401    -0.2565886    -0.4500923
  C       -1.1890530    -0.8623480     0.1023120
  C        1.3401060    -0.6058050     0.1026400
  H        0.0013190     0.0024560    -1.4771570
  H       -1.0129100     1.7863450    -0.2498420
  H        0.6317380     1.9558270    -0.2386540
  H       -0.1534110     1.4166430     1.1149090
  H       -1.1128870    -1.8838160    -0.2761720
  H       -1.2094360    -0.9021000     1.1949220
  H       -2.1281500    -0.4352600    -0.2575270
  H        1.4683160    -1.6231340    -0.2733960
  H        1.3705130    -0.6385200     1.1952170
  H        2.1747220    -0.0011550    -0.2602410
units angstrom
no_reorient  #important for SAPT in psi4, default
symmetry c1  #important for SAPT in psi4, default
}

set PROPERTIES_ORIGIN ["COM"]
properties('MP2/aug-cc-pvtz', properties = ['dipole'])
--------------------------------------------------------------------------

    Molecular point group: c1
  Charge       = 1
  Multiplicity = 1
  Basis Set: AUG-CC-PVTZ
    Blend: AUG-CC-PVTZ
  Basis Set: (AUG-CC-PVTZ AUX)
    Blend: AUG-CC-PVTZ-JKFIT

    Orbital Energies [Eh]
    ---------------------

    Doubly Occupied:

       1A    -15.849169     2A    -11.499195     3A    -11.402930
       4A    -11.402879     5A     -1.454754     6A     -1.271970
       7A     -1.143772     8A     -1.007370     9A     -0.920847
      10A     -0.915051    11A     -0.831778    12A     -0.821248
      13A     -0.763328    14A     -0.723264    15A     -0.701676
      16A     -0.700462    17A     -0.682247

  @DF-RHF Final Energy:  -173.70725933001378

   => Energetics <=

    Nuclear Repulsion Energy =            143.1629360332051704
    One-Electron Energy =                -509.5565095014001145
    Two-Electron Energy =                 192.6863141381811886
    Total Energy =                       -173.7072593300137839
  Basis Set: (AUG-CC-PVTZ AUX)
    Blend: AUG-CC-PVTZ-RI
    Molecular point group: c1

    Geometry (in Angstrom), charge = 1, multiplicity = 1:

       Center              X                  Y                   Z               Mass
    ------------   -----------------  -----------------  -----------------  -----------------
         N           -0.143878953741     1.394897723644     0.109152086326    14.003074004430
         C            0.024028146259    -0.224267876356    -0.429747213674    12.000000000000
         C           -1.192464953741    -0.830027276356     0.122657086326    12.000000000000
         C            1.336694046259    -0.573484276356     0.122985086326    12.000000000000
         H           -0.002092953741     0.034776723644    -1.456811913674     1.007825032230
         H           -1.016321953741     1.818665723644    -0.229496913674     1.007825032230
         H            0.628326046259     1.988147723644    -0.218308913674     1.007825032230
         H           -0.156822953741     1.448963723644     1.135254086326     1.007825032230
         H           -1.116298953741    -1.851495276356    -0.255826913674     1.007825032230
         H           -1.212847953741    -0.869779276356     1.215267086326     1.007825032230
         H           -2.131561953741    -0.402939276356    -0.237181913674     1.007825032230
         H            1.464904046259    -1.590813276356    -0.253050913674     1.007825032230
         H            1.367101046259    -0.606199276356     1.215562086326     1.007825032230
         H            2.171310046259     0.031165723644    -0.239895913674     1.007825032230

  Basis Set: AUG-CC-PVTZ
    Blend: AUG-CC-PVTZ
  Basis Set: (AUG-CC-PVTZ AUX)
    Blend: AUG-CC-PVTZ-JKFIT
	 Reference Energy          =    -173.7072593300137839 [Eh]
	 Singles Energy            =      -0.0000000000000000 [Eh]
	 Same-Spin Energy          =      -0.1761125023758247 [Eh]
	 Opposite-Spin Energy      =      -0.6577539633179683 [Eh]
	 Correlation Energy        =      -0.8338664656937930 [Eh]
	 Total Energy              =    -174.5411257957075861 [Eh]

	 ================> DF-SCS-MP2 Energies <==================
	-----------------------------------------------------------
	 SCS Same-Spin Scale       =       0.3333333333333333 [-]
	 SCS Opposite-Spin Scale   =       1.2000000000000000 [-]
	 SCS Same-Spin Energy      =      -0.0587041674586082 [Eh]
	 SCS Opposite-Spin Energy  =      -0.7893047559815619 [Eh]
	 SCS Correlation Energy    =      -0.8480089234401701 [Eh]
	 SCS Total Energy          =    -174.5552682534539599 [Eh]
	-----------------------------------------------------------

  Dipole Moment: [D]
     X:    -0.3511      Y:     3.4005      Z:     0.1004     Total:     3.4201

*** Psi4 exiting successfully. Buy a developer a beer!
