                               Psi4 1.3.2 release

  ==> Input File <==

--------------------------------------------------------------------------
#psi4
#
memory 32 gb

molecule  {
1 1
  N       -0.1404670     1.3625770     0.0888070
  C        0.0078560    -0.0677350    -0.3872370
  C       -1.1559055    -0.8945641     0.1281968
  C        1.3140967    -0.6440297     0.1285230
  H        0.0013190     0.0024560    -1.4771570
  H       -1.0129100     1.7863450    -0.2498420
  H        0.6317380     1.9558270    -0.2386540
  H       -0.1534110     1.4166430     1.1149090
  H       -1.1128870    -1.8838160    -0.2761720
  H       -1.2094360    -0.9021000     1.1949220
  H       -2.1281500    -0.4352600    -0.2575270
  H        1.4683160    -1.6231340    -0.2733960
  H        1.3705130    -0.6385200     1.1952170
  H        2.1747220    -0.0011550    -0.2602410
units angstrom
no_reorient  #important for SAPT in psi4, default
symmetry c1  #important for SAPT in psi4, default
}

set PROPERTIES_ORIGIN ["COM"]
properties('MP2/aug-cc-pvtz', properties = ['dipole'])
--------------------------------------------------------------------------

    Molecular point group: c1
  Charge       = 1
  Multiplicity = 1
  Basis Set: AUG-CC-PVTZ
    Blend: AUG-CC-PVTZ
  Basis Set: (AUG-CC-PVTZ AUX)
    Blend: AUG-CC-PVTZ-JKFIT

    Orbital Energies [Eh]
    ---------------------

    Doubly Occupied:

       1A    -15.889947     2A    -11.480827     3A    -11.396994
       4A    -11.396947     5A     -1.508589     6A     -1.249798
       7A     -1.122720     8A     -1.022662     9A     -0.960396
      10A     -0.952288    11A     -0.853197    12A     -0.785095
      13A     -0.741893    14A     -0.728580    15A     -0.722711
      16A     -0.685187    17A     -0.653777

  @DF-RHF Final Energy:  -173.72266280805627

   => Energetics <=

    Nuclear Repulsion Energy =            144.1240912908553469
    One-Electron Energy =                -511.3902920466337036
    Two-Electron Energy =                 193.5435379477220863
    Total Energy =                       -173.7226628080562705
  Basis Set: (AUG-CC-PVTZ AUX)
    Blend: AUG-CC-PVTZ-RI
    Molecular point group: c1

    Geometry (in Angstrom), charge = 1, multiplicity = 1:

       Center              X                  Y                   Z               Mass
    ------------   -----------------  -----------------  -----------------  -----------------
         N           -0.141393143023     1.371247219666     0.086258496422    14.003074004430
         C            0.006929856977    -0.059064780334    -0.389785503578    12.000000000000
         C           -1.156831643023    -0.885893880334     0.125648296422    12.000000000000
         C            1.313170556977    -0.635359480334     0.125974496422    12.000000000000
         H            0.000392856977     0.011126219666    -1.479705503578     1.007825032230
         H           -1.013836143023     1.795015219666    -0.252390503578     1.007825032230
         H            0.630811856977     1.964497219666    -0.241202503578     1.007825032230
         H           -0.154337143023     1.425313219666     1.112360496422     1.007825032230
         H           -1.113813143023    -1.875145780334    -0.278720503578     1.007825032230
         H           -1.210362143023    -0.893429780334     1.192373496422     1.007825032230
         H           -2.129076143023    -0.426589780334    -0.260075503578     1.007825032230
         H            1.467389856977    -1.614463780334    -0.275944503578     1.007825032230
         H            1.369586856977    -0.629849780334     1.192668496422     1.007825032230
         H            2.173795856977     0.007515219666    -0.262789503578     1.007825032230

  Basis Set: AUG-CC-PVTZ
    Blend: AUG-CC-PVTZ
  Basis Set: (AUG-CC-PVTZ AUX)
    Blend: AUG-CC-PVTZ-JKFIT
	 Reference Energy          =    -173.7226628080562705 [Eh]
	 Singles Energy            =      -0.0000000000000000 [Eh]
	 Same-Spin Energy          =      -0.1758876526186319 [Eh]
	 Opposite-Spin Energy      =      -0.6572244134624996 [Eh]
	 Correlation Energy        =      -0.8331120660811315 [Eh]
	 Total Energy              =    -174.5557748741373985 [Eh]

	 ================> DF-SCS-MP2 Energies <==================
	-----------------------------------------------------------
	 SCS Same-Spin Scale       =       0.3333333333333333 [-]
	 SCS Opposite-Spin Scale   =       1.2000000000000000 [-]
	 SCS Same-Spin Energy      =      -0.0586292175395440 [Eh]
	 SCS Opposite-Spin Energy  =      -0.7886692961549995 [Eh]
	 SCS Correlation Energy    =      -0.8472985136945435 [Eh]
	 SCS Total Energy          =    -174.5699613217508102 [Eh]
	-----------------------------------------------------------

  Dipole Moment: [D]
     X:    -0.4328      Y:     4.1821      Z:     0.1776     Total:     4.2082

*** Psi4 exiting successfully. Buy a developer a beer!
