                               Psi4 1.3.2 release

  ==> Input File <==

--------------------------------------------------------------------------
#psi4
#
memory 32 gb

molecule  {
1 1
  N       -0.1404670     1.3625770     0.0888070
  C        0.0078560    -0.0677350    -0.3872370
  C       -1.1890530    -0.8623480     0.1023120
  C        1.3401060    -0.6058050     0.1026400
  H        0.0013190     0.0024560    -1.4771570
  H       -1.0129100     1.7863450    -0.2498420
  H        0.6317380     1.9558270    -0.2386540
  H       -0.1534110     1.4166430     1.1149090
  H       -1.1128870    -1.8838160    -0.2761720
  H       -1.2094360    -0.9021000     1.1949220
  H       -2.1281500    -0.4352600    -0.2575270
  H        1.4683160    -1.6231340    -0.2733960
  H        1.3705130    -0.6385200     1.1952170
  H        2.1747220    -0.0011550    -0.2602410
units angstrom
no_reorient  #important for SAPT in psi4, default
symmetry c1  #important for SAPT in psi4, default
}

set PROPERTIES_ORIGIN ["COM"]
properties('MP2/aug-cc-pvtz', properties = ['dipole'])
--------------------------------------------------------------------------

    Molecular point group: c1
  Charge       = 1
  Multiplicity = 1
  Basis Set: AUG-CC-PVTZ
    Blend: AUG-CC-PVTZ
  Basis Set: (AUG-CC-PVTZ AUX)
    Blend: AUG-CC-PVTZ-JKFIT

    Orbital Energies [Eh]
    ---------------------

    Doubly Occupied:

       1A    -15.888093     2A    -11.480679     3A    -11.397255
       4A    -11.397214     5A     -1.507738     6A     -1.247667
       7A     -1.126231     8A     -1.019789     9A     -0.959225
      10A     -0.950883    11A     -0.850185    12A     -0.794463
      13A     -0.739850    14A     -0.716289    15A     -0.714062
      16A     -0.679488    17A     -0.677848

  @DF-RHF Final Energy:  -173.72912314809028

   => Energetics <=

    Nuclear Repulsion Energy =            144.0386137937335889
    One-Electron Energy =                -511.2415542174157395
    Two-Electron Energy =                 193.4738172755918697
    Total Energy =                       -173.7291231480902809
  Basis Set: (AUG-CC-PVTZ AUX)
    Blend: AUG-CC-PVTZ-RI
    Molecular point group: c1

    Geometry (in Angstrom), charge = 1, multiplicity = 1:

       Center              X                  Y                   Z               Mass
    ------------   -----------------  -----------------  -----------------  -----------------
         N           -0.139967435435     1.357178128988     0.096598042146    14.003074004430
         C            0.008355564565    -0.073133871012    -0.379445957854    12.000000000000
         C           -1.188553435435    -0.867746871012     0.110103042146    12.000000000000
         C            1.340605564565    -0.611203871012     0.110431042146    12.000000000000
         H            0.001818564565    -0.002942871012    -1.469365957854     1.007825032230
         H           -1.012410435435     1.780946128988    -0.242050957854     1.007825032230
         H            0.632237564565     1.950428128988    -0.230862957854     1.007825032230
         H           -0.152911435435     1.411244128988     1.122700042146     1.007825032230
         H           -1.112387435435    -1.889214871012    -0.268380957854     1.007825032230
         H           -1.208936435435    -0.907498871012     1.202713042146     1.007825032230
         H           -2.127650435435    -0.440658871012    -0.249735957854     1.007825032230
         H            1.468815564565    -1.628532871012    -0.265604957854     1.007825032230
         H            1.371012564565    -0.643918871012     1.203008042146     1.007825032230
         H            2.175221564565    -0.006553871012    -0.252449957854     1.007825032230

  Basis Set: AUG-CC-PVTZ
    Blend: AUG-CC-PVTZ
  Basis Set: (AUG-CC-PVTZ AUX)
    Blend: AUG-CC-PVTZ-JKFIT
	 Reference Energy          =    -173.7291231480902809 [Eh]
	 Singles Energy            =      -0.0000000000000000 [Eh]
	 Same-Spin Energy          =      -0.1758445551745781 [Eh]
	 Opposite-Spin Energy      =      -0.6568962314443756 [Eh]
	 Correlation Energy        =      -0.8327407866189538 [Eh]
	 Total Energy              =    -174.5618639347092369 [Eh]

	 ================> DF-SCS-MP2 Energies <==================
	-----------------------------------------------------------
	 SCS Same-Spin Scale       =       0.3333333333333333 [-]
	 SCS Opposite-Spin Scale   =       1.2000000000000000 [-]
	 SCS Same-Spin Energy      =      -0.0586148517248594 [Eh]
	 SCS Opposite-Spin Energy  =      -0.7882754777332507 [Eh]
	 SCS Correlation Energy    =      -0.8468903294581100 [Eh]
	 SCS Total Energy          =    -174.5760134775484005 [Eh]
	-----------------------------------------------------------

  Dipole Moment: [D]
     X:    -0.4244      Y:     4.1001      Z:     0.1997     Total:     4.1269

*** Psi4 exiting successfully. Buy a developer a beer!
