                               Psi4 1.3.2 release

  ==> Input File <==

--------------------------------------------------------------------------
#psi4
#
memory 32 gb

molecule  {
1 1
  N       -0.1404670     1.3625770     0.0888070
  C       -0.0117281     0.1211186    -0.3243817
  C       -1.1890530    -0.8623480     0.1023120
  C        1.3401060    -0.6058050     0.1026400
  H        0.0013190     0.0024560    -1.4771570
  H       -1.0129100     1.7863450    -0.2498420
  H        0.6317380     1.9558270    -0.2386540
  H       -0.1534110     1.4166430     1.1149090
  H       -1.1128870    -1.8838160    -0.2761720
  H       -1.2094360    -0.9021000     1.1949220
  H       -2.1281500    -0.4352600    -0.2575270
  H        1.4683160    -1.6231340    -0.2733960
  H        1.3705130    -0.6385200     1.1952170
  H        2.1747220    -0.0011550    -0.2602410
units angstrom
no_reorient  #important for SAPT in psi4, default
symmetry c1  #important for SAPT in psi4, default
}

set PROPERTIES_ORIGIN ["COM"]
properties('MP2/aug-cc-pvtz', properties = ['dipole'])
--------------------------------------------------------------------------

    Molecular point group: c1
  Charge       = 1
  Multiplicity = 1
  Basis Set: AUG-CC-PVTZ
    Blend: AUG-CC-PVTZ
  Basis Set: (AUG-CC-PVTZ AUX)
    Blend: AUG-CC-PVTZ-JKFIT

    Orbital Energies [Eh]
    ---------------------

    Doubly Occupied:

       1A    -15.908174     2A    -11.472012     3A    -11.398691
       4A    -11.398664     5A     -1.573593     6A     -1.224086
       7A     -1.115205     8A     -1.055354     9A     -0.999091
      10A     -0.982758    11A     -0.860673    12A     -0.771292
      13A     -0.731850    14A     -0.726800    15A     -0.713002
      16A     -0.648927    17A     -0.638745

  @DF-RHF Final Energy:  -173.68458326433978

   => Energetics <=

    Nuclear Repulsion Energy =            145.0767296361698016
    One-Electron Energy =                -513.0847927618794984
    Two-Electron Energy =                 194.3234798613698899
    Total Energy =                       -173.6845832643397785
  Basis Set: (AUG-CC-PVTZ AUX)
    Blend: AUG-CC-PVTZ-RI
    Molecular point group: c1

    Geometry (in Angstrom), charge = 1, multiplicity = 1:

       Center              X                  Y                   Z               Mass
    ------------   -----------------  -----------------  -----------------  -----------------
         N           -0.136055917128     1.319458534332     0.084043997966    14.003074004430
         C           -0.007317017128     0.078000134332    -0.329144702034    12.000000000000
         C           -1.184641917128    -0.905466465668     0.097548997966    12.000000000000
         C            1.344517082872    -0.648923465668     0.097876997966    12.000000000000
         H            0.005730082872    -0.040662465668    -1.481920002034     1.007825032230
         H           -1.008498917128     1.743226534332    -0.254605002034     1.007825032230
         H            0.636149082872     1.912708534332    -0.243417002034     1.007825032230
         H           -0.148999917128     1.373524534332     1.110145997966     1.007825032230
         H           -1.108475917128    -1.926934465668    -0.280935002034     1.007825032230
         H           -1.205024917128    -0.945218465668     1.190158997966     1.007825032230
         H           -2.123738917128    -0.478378465668    -0.262290002034     1.007825032230
         H            1.472727082872    -1.666252465668    -0.278159002034     1.007825032230
         H            1.374924082872    -0.681638465668     1.190453997966     1.007825032230
         H            2.179133082872    -0.044273465668    -0.265004002034     1.007825032230

  Basis Set: AUG-CC-PVTZ
    Blend: AUG-CC-PVTZ
  Basis Set: (AUG-CC-PVTZ AUX)
    Blend: AUG-CC-PVTZ-JKFIT
	 Reference Energy          =    -173.6845832643397785 [Eh]
	 Singles Energy            =      -0.0000000000000000 [Eh]
	 Same-Spin Energy          =      -0.1774079305195579 [Eh]
	 Opposite-Spin Energy      =      -0.6588594890627619 [Eh]
	 Correlation Energy        =      -0.8362674195823198 [Eh]
	 Total Energy              =    -174.5208506839221059 [Eh]

	 ================> DF-SCS-MP2 Energies <==================
	-----------------------------------------------------------
	 SCS Same-Spin Scale       =       0.3333333333333333 [-]
	 SCS Opposite-Spin Scale   =       1.2000000000000000 [-]
	 SCS Same-Spin Energy      =      -0.0591359768398526 [Eh]
	 SCS Opposite-Spin Energy  =      -0.7906313868753143 [Eh]
	 SCS Correlation Energy    =      -0.8497673637151669 [Eh]
	 SCS Total Energy          =    -174.5343506280549377 [Eh]
	-----------------------------------------------------------

  Dipole Moment: [D]
     X:    -0.4535      Y:     4.3785      Z:     0.2398     Total:     4.4084

*** Psi4 exiting successfully. Buy a developer a beer!
