                               Psi4 1.3.2 release

  ==> Input File <==

--------------------------------------------------------------------------
#psi4
#
memory 32 gb

molecule  {
1 1
  N       -0.1404670     1.3625770     0.0888070
  C        0.0176480    -0.1621618    -0.4186646
  C       -1.1890530    -0.8623480     0.1023120
  C        1.3401060    -0.6058050     0.1026400
  H        0.0013190     0.0024560    -1.4771570
  H       -1.0129100     1.7863450    -0.2498420
  H        0.6317380     1.9558270    -0.2386540
  H       -0.1534110     1.4166430     1.1149090
  H       -1.1128870    -1.8838160    -0.2761720
  H       -1.2094360    -0.9021000     1.1949220
  H       -2.1281500    -0.4352600    -0.2575270
  H        1.4683160    -1.6231340    -0.2733960
  H        1.3705130    -0.6385200     1.1952170
  H        2.1747220    -0.0011550    -0.2602410
units angstrom
no_reorient  #important for SAPT in psi4, default
symmetry c1  #important for SAPT in psi4, default
}

set PROPERTIES_ORIGIN ["COM"]
properties('MP2/aug-cc-pvtz', properties = ['dipole'])
--------------------------------------------------------------------------

    Molecular point group: c1
  Charge       = 1
  Multiplicity = 1
  Basis Set: AUG-CC-PVTZ
    Blend: AUG-CC-PVTZ
  Basis Set: (AUG-CC-PVTZ AUX)
    Blend: AUG-CC-PVTZ-JKFIT

    Orbital Energies [Eh]
    ---------------------

    Doubly Occupied:

       1A    -15.870810     2A    -11.488787     3A    -11.399187
       4A    -11.399139     5A     -1.480357     6A     -1.259921
       7A     -1.134411     8A     -1.011254     9A     -0.939900
      10A     -0.933653    11A     -0.840880    12A     -0.807914
      13A     -0.750041    14A     -0.719051    15A     -0.700414
      16A     -0.692565    17A     -0.690462

  @DF-RHF Final Energy:  -173.72345074609137

   => Energetics <=

    Nuclear Repulsion Energy =            143.6038107073039214
    One-Electron Energy =                -510.4170331764569255
    Two-Electron Energy =                 193.0897717230616308
    Total Energy =                       -173.7234507460913733
  Basis Set: (AUG-CC-PVTZ AUX)
    Blend: AUG-CC-PVTZ-RI
    Molecular point group: c1

    Geometry (in Angstrom), charge = 1, multiplicity = 1:

       Center              X                  Y                   Z               Mass
    ------------   -----------------  -----------------  -----------------  -----------------
         N           -0.141923184602     1.376037926316     0.102875054249    14.003074004430
         C            0.016191815398    -0.148700873684    -0.404596545751    12.000000000000
         C           -1.190509184602    -0.848887073684     0.116380054249    12.000000000000
         C            1.338649815398    -0.592344073684     0.116708054249    12.000000000000
         H           -0.000137184602     0.015916926316    -1.463088945751     1.007825032230
         H           -1.014366184602     1.799805926316    -0.235773945751     1.007825032230
         H            0.630281815398     1.969287926316    -0.224585945751     1.007825032230
         H           -0.154867184602     1.430103926316     1.128977054249     1.007825032230
         H           -1.114343184602    -1.870355073684    -0.262103945751     1.007825032230
         H           -1.210892184602    -0.888639073684     1.208990054249     1.007825032230
         H           -2.129606184602    -0.421799073684    -0.243458945751     1.007825032230
         H            1.466859815398    -1.609673073684    -0.259327945751     1.007825032230
         H            1.369056815398    -0.625059073684     1.209285054249     1.007825032230
         H            2.173265815398     0.012305926316    -0.246172945751     1.007825032230

  Basis Set: AUG-CC-PVTZ
    Blend: AUG-CC-PVTZ
  Basis Set: (AUG-CC-PVTZ AUX)
    Blend: AUG-CC-PVTZ-JKFIT
	 Reference Energy          =    -173.7234507460913733 [Eh]
	 Singles Energy            =      -0.0000000000000000 [Eh]
	 Same-Spin Energy          =      -0.1758472944513656 [Eh]
	 Opposite-Spin Energy      =      -0.6571939943221368 [Eh]
	 Correlation Energy        =      -0.8330412887735024 [Eh]
	 Total Energy              =    -174.5564920348648741 [Eh]

	 ================> DF-SCS-MP2 Energies <==================
	-----------------------------------------------------------
	 SCS Same-Spin Scale       =       0.3333333333333333 [-]
	 SCS Opposite-Spin Scale   =       1.2000000000000000 [-]
	 SCS Same-Spin Energy      =      -0.0586157648171219 [Eh]
	 SCS Opposite-Spin Energy  =      -0.7886327931865641 [Eh]
	 SCS Correlation Energy    =      -0.8472485580036859 [Eh]
	 SCS Total Energy          =    -174.5706993040950579 [Eh]
	-----------------------------------------------------------

  Dipole Moment: [D]
     X:    -0.3933      Y:     3.8024      Z:     0.1575     Total:     3.8259

*** Psi4 exiting successfully. Buy a developer a beer!
