                               Psi4 1.4a3.dev225

  ==> Input File <==

--------------------------------------------------------------------------
#psi4
#
memory 32 gb

molecule  {
1 1
  N        0.0000020     1.3752550     0.0881560
  C        0.0000000    -0.0579086    -0.3848388
  C       -1.2745200    -0.7353630     0.1032760
  C        1.2745180    -0.7353670     0.1032760
  H        0.0000000    -0.0031690    -1.4821840
  H       -0.8310820     1.8851260    -0.2406460
  H        0.8310870     1.8851240    -0.2406470
  H        0.0000020     1.4165200     1.1165880
  H       -1.3097880    -1.7608000    -0.2705820
  H       -1.2994510    -0.7789970     1.1965910
  H       -2.1709030    -0.2224960    -0.2574420
  H        1.3097830    -1.7608040    -0.2705810
  H        1.2994490    -0.7790000     1.1965910
  H        2.1709020    -0.2225020    -0.2574420
units angstrom
no_reorient  #important for SAPT in psi4, default
symmetry c1  #important for SAPT in psi4, default
}

set PROPERTIES_ORIGIN ["COM"]
properties('MP2/aug-cc-pvtz', properties = ['dipole'])
--------------------------------------------------------------------------

    Molecular point group: c1
  Charge       = 1
  Multiplicity = 1
  Basis Set: AUG-CC-PVTZ
    Blend: AUG-CC-PVTZ
  Basis Set: (AUG-CC-PVTZ AUX)
    Blend: AUG-CC-PVTZ-JKFIT

    Orbital Energies [Eh]
    ---------------------

    Doubly Occupied:

       1A    -15.889656     2A    -11.481561     3A    -11.397626
       4A    -11.397614     5A     -1.508508     6A     -1.244715
       7A     -1.124922     8A     -1.019377     9A     -0.960203
      10A     -0.952347    11A     -0.848939    12A     -0.792572
      13A     -0.738940    14A     -0.714943    15A     -0.713911
      16A     -0.677569    17A     -0.676872

  @DF-RHF Final Energy:  -173.72866254521381

   => Energetics <=

    Nuclear Repulsion Energy =            143.7951701275407288
    One-Electron Energy =                -510.7671174794811009
    Two-Electron Energy =                 193.2432848067265354
    Total Energy =                       -173.7286625452138082
  Basis Set: (AUG-CC-PVTZ AUX)
    Blend: AUG-CC-PVTZ-RI
    Molecular point group: c1

    Geometry (in Angstrom), charge = 1, multiplicity = 1:

       Center              X                  Y                   Z               Mass
    ------------   -----------------  -----------------  -----------------  -----------------
         N            0.000001950096     1.365760069154     0.094995137152    14.003074004430
         C           -0.000000049904    -0.067403530846    -0.377999662848    12.000000000000
         C           -1.274520049904    -0.744857930846     0.110115137152    12.000000000000
         C            1.274517950096    -0.744861930846     0.110115137152    12.000000000000
         H           -0.000000049904    -0.012663930846    -1.475344862848     1.007825032230
         H           -0.831082049904     1.875631069154    -0.233806862848     1.007825032230
         H            0.831086950096     1.875629069154    -0.233807862848     1.007825032230
         H            0.000001950096     1.407025069154     1.123427137152     1.007825032230
         H           -1.309788049904    -1.770294930846    -0.263742862848     1.007825032230
         H           -1.299451049904    -0.788491930846     1.203430137152     1.007825032230
         H           -2.170903049904    -0.231990930846    -0.250602862848     1.007825032230
         H            1.309782950096    -1.770298930846    -0.263741862848     1.007825032230
         H            1.299448950096    -0.788494930846     1.203430137152     1.007825032230
         H            2.170901950096    -0.231996930846    -0.250602862848     1.007825032230

  Basis Set: AUG-CC-PVTZ
    Blend: AUG-CC-PVTZ
  Basis Set: (AUG-CC-PVTZ AUX)
    Blend: AUG-CC-PVTZ-JKFIT
	 Reference Energy          =    -173.7286625452138082 [Eh]
	 Singles Energy            =      -0.0000000000000000 [Eh]
	 Same-Spin Energy          =      -0.1758275413568728 [Eh]
	 Opposite-Spin Energy      =      -0.6570032144531531 [Eh]
	 Correlation Energy        =      -0.8328307558100259 [Eh]
	 Total Energy              =    -174.5614933010238303 [Eh]

	 ================> DF-SCS-MP2 Energies <==================
	-----------------------------------------------------------
	 SCS Same-Spin Scale       =       0.3333333333333333 [-]
	 SCS Opposite-Spin Scale   =       1.2000000000000000 [-]
	 SCS Same-Spin Energy      =      -0.0586091804522909 [Eh]
	 SCS Opposite-Spin Energy  =      -0.7884038573437837 [Eh]
	 SCS Correlation Energy    =      -0.8470130377960746 [Eh]
	 SCS Total Energy          =    -174.5756755830098825 [Eh]
	-----------------------------------------------------------

  Dipole Moment: [D]
     X:     0.0000      Y:     4.1166      Z:     0.2069     Total:     4.1217

*** Psi4 exiting successfully. Buy a developer a beer!
