                               Psi4 1.3.2 release

  ==> Input File <==

--------------------------------------------------------------------------
#psi4
#
memory 32 gb

molecule  {
1 1
  N       -0.1404670     1.3625770     0.0888070
  C        0.0078560    -0.0677350    -0.3872370
  C       -1.2679121    -0.9147016     0.1345663
  C        1.3401060    -0.6058050     0.1026400
  H        0.0013190     0.0024560    -1.4771570
  H       -1.0129100     1.7863450    -0.2498420
  H        0.6317380     1.9558270    -0.2386540
  H       -0.1534110     1.4166430     1.1149090
  H       -1.1128870    -1.8838160    -0.2761720
  H       -1.2094360    -0.9021000     1.1949220
  H       -2.1281500    -0.4352600    -0.2575270
  H        1.4683160    -1.6231340    -0.2733960
  H        1.3705130    -0.6385200     1.1952170
  H        2.1747220    -0.0011550    -0.2602410
units angstrom
no_reorient  #important for SAPT in psi4, default
symmetry c1  #important for SAPT in psi4, default
}

set PROPERTIES_ORIGIN ["COM"]
properties('MP2/aug-cc-pvtz', properties = ['dipole'])
--------------------------------------------------------------------------

    Molecular point group: c1
  Charge       = 1
  Multiplicity = 1
  Basis Set: AUG-CC-PVTZ
    Blend: AUG-CC-PVTZ
  Basis Set: (AUG-CC-PVTZ AUX)
    Blend: AUG-CC-PVTZ-JKFIT

    Orbital Energies [Eh]
    ---------------------

    Doubly Occupied:

       1A    -15.887836     2A    -11.481796     3A    -11.396945
       4A    -11.396732     5A     -1.505460     6A     -1.235545
       7A     -1.125920     8A     -1.021278     9A     -0.958080
      10A     -0.950488    11A     -0.845482    12A     -0.791114
      13A     -0.739796    14A     -0.732064    15A     -0.714555
      16A     -0.689423    17A     -0.655380

  @DF-RHF Final Energy:  -173.72167144821776

   => Energetics <=

    Nuclear Repulsion Energy =            142.7714303469615800
    One-Electron Energy =                -508.7304165450225355
    Two-Electron Energy =                 192.2373147498432218
    Total Energy =                       -173.7216714482177622
  Basis Set: (AUG-CC-PVTZ AUX)
    Blend: AUG-CC-PVTZ-RI
    Molecular point group: c1

    Geometry (in Angstrom), charge = 1, multiplicity = 1:

       Center              X                  Y                   Z               Mass
    ------------   -----------------  -----------------  -----------------  -----------------
         N           -0.124216963710     1.367634676127     0.090155913841    14.003074004430
         C            0.024106036290    -0.062677323873    -0.385888086159    12.000000000000
         C           -1.251662063710    -0.909643923873     0.135915213841    12.000000000000
         C            1.356356036290    -0.600747323873     0.103988913841    12.000000000000
         H            0.017569036290     0.007513676127    -1.475808086159     1.007825032230
         H           -0.996659963710     1.791402676127    -0.248493086159     1.007825032230
         H            0.647988036290     1.960884676127    -0.237305086159     1.007825032230
         H           -0.137160963710     1.421700676127     1.116257913841     1.007825032230
         H           -1.096636963710    -1.878758323873    -0.274823086159     1.007825032230
         H           -1.193185963710    -0.897042323873     1.196270913841     1.007825032230
         H           -2.111899963710    -0.430202323873    -0.256178086159     1.007825032230
         H            1.484566036290    -1.618076323873    -0.272047086159     1.007825032230
         H            1.386763036290    -0.633462323873     1.196565913841     1.007825032230
         H            2.190972036290     0.003902676127    -0.258892086159     1.007825032230

  Basis Set: AUG-CC-PVTZ
    Blend: AUG-CC-PVTZ
  Basis Set: (AUG-CC-PVTZ AUX)
    Blend: AUG-CC-PVTZ-JKFIT
	 Reference Energy          =    -173.7216714482177622 [Eh]
	 Singles Energy            =      -0.0000000000000000 [Eh]
	 Same-Spin Energy          =      -0.1753320267218930 [Eh]
	 Opposite-Spin Energy      =      -0.6568562777291438 [Eh]
	 Correlation Energy        =      -0.8321883044510368 [Eh]
	 Total Energy              =    -174.5538597526687852 [Eh]

	 ================> DF-SCS-MP2 Energies <==================
	-----------------------------------------------------------
	 SCS Same-Spin Scale       =       0.3333333333333333 [-]
	 SCS Opposite-Spin Scale   =       1.2000000000000000 [-]
	 SCS Same-Spin Energy      =      -0.0584440089072977 [Eh]
	 SCS Opposite-Spin Energy  =      -0.7882275332749725 [Eh]
	 SCS Correlation Energy    =      -0.8466715421822701 [Eh]
	 SCS Total Energy          =    -174.5683429904000263 [Eh]
	-----------------------------------------------------------

  Dipole Moment: [D]
     X:    -0.3540      Y:     4.1731      Z:     0.1804     Total:     4.1919

*** Psi4 exiting successfully. Buy a developer a beer!
