                               Psi4 1.3.2 release

  ==> Input File <==

--------------------------------------------------------------------------
#psi4
#
memory 32 gb

molecule  {
1 1
  N       -0.1404670     1.3625770     0.0888070
  C        0.0078560    -0.0677350    -0.3872370
  C       -1.1726591    -0.8785795     0.1153309
  C        1.3273023    -0.6250022     0.1156581
  H        0.0013190     0.0024560    -1.4771570
  H       -1.0129100     1.7863450    -0.2498420
  H        0.6317380     1.9558270    -0.2386540
  H       -0.1534110     1.4166430     1.1149090
  H       -1.1128870    -1.8838160    -0.2761720
  H       -1.2094360    -0.9021000     1.1949220
  H       -2.1281500    -0.4352600    -0.2575270
  H        1.4683160    -1.6231340    -0.2733960
  H        1.3705130    -0.6385200     1.1952170
  H        2.1747220    -0.0011550    -0.2602410
units angstrom
no_reorient  #important for SAPT in psi4, default
symmetry c1  #important for SAPT in psi4, default
}

set PROPERTIES_ORIGIN ["COM"]
properties('MP2/aug-cc-pvtz', properties = ['dipole'])
--------------------------------------------------------------------------

    Molecular point group: c1
  Charge       = 1
  Multiplicity = 1
  Basis Set: AUG-CC-PVTZ
    Blend: AUG-CC-PVTZ
  Basis Set: (AUG-CC-PVTZ AUX)
    Blend: AUG-CC-PVTZ-JKFIT

    Orbital Energies [Eh]
    ---------------------

    Doubly Occupied:

       1A    -15.889006     2A    -11.480641     3A    -11.396960
       4A    -11.396916     5A     -1.508135     6A     -1.248619
       7A     -1.124351     8A     -1.021124     9A     -0.959748
      10A     -0.951565    11A     -0.851493    12A     -0.789246
      13A     -0.740487    14A     -0.722870    15A     -0.718530
      16A     -0.682862    17A     -0.665857

  @DF-RHF Final Energy:  -173.72744835142154

   => Energetics <=

    Nuclear Repulsion Energy =            144.0777880611794330
    One-Electron Energy =                -511.3136542794328534
    Two-Electron Energy =                 193.5084178668318771
    Total Energy =                       -173.7274483514215433
  Basis Set: (AUG-CC-PVTZ AUX)
    Blend: AUG-CC-PVTZ-RI
    Molecular point group: c1

    Geometry (in Angstrom), charge = 1, multiplicity = 1:

       Center              X                  Y                   Z               Mass
    ------------   -----------------  -----------------  -----------------  -----------------
         N           -0.140684503517     1.364254277937     0.091397690730    14.003074004430
         C            0.007638496483    -0.066057722063    -0.384646309270    12.000000000000
         C           -1.172876603517    -0.876902222063     0.117921590730    12.000000000000
         C            1.327084796483    -0.623324922063     0.118248790730    12.000000000000
         H            0.001101496483     0.004133277937    -1.474566309270     1.007825032230
         H           -1.013127503517     1.788022277937    -0.247251309270     1.007825032230
         H            0.631520496483     1.957504277937    -0.236063309270     1.007825032230
         H           -0.153628503517     1.418320277937     1.117499690730     1.007825032230
         H           -1.113104503517    -1.882138722063    -0.273581309270     1.007825032230
         H           -1.209653503517    -0.900422722063     1.197512690730     1.007825032230
         H           -2.128367503517    -0.433582722063    -0.254936309270     1.007825032230
         H            1.468098496483    -1.621456722063    -0.270805309270     1.007825032230
         H            1.370295496483    -0.636842722063     1.197807690730     1.007825032230
         H            2.174504496483     0.000522277937    -0.257650309270     1.007825032230

  Basis Set: AUG-CC-PVTZ
    Blend: AUG-CC-PVTZ
  Basis Set: (AUG-CC-PVTZ AUX)
    Blend: AUG-CC-PVTZ-JKFIT
	 Reference Energy          =    -173.7274483514215433 [Eh]
	 Singles Energy            =      -0.0000000000000000 [Eh]
	 Same-Spin Energy          =      -0.1758357876736178 [Eh]
	 Opposite-Spin Energy      =      -0.6569796403969977 [Eh]
	 Correlation Energy        =      -0.8328154280706156 [Eh]
	 Total Energy              =    -174.5602637794921463 [Eh]

	 ================> DF-SCS-MP2 Energies <==================
	-----------------------------------------------------------
	 SCS Same-Spin Scale       =       0.3333333333333333 [-]
	 SCS Opposite-Spin Scale   =       1.2000000000000000 [-]
	 SCS Same-Spin Energy      =      -0.0586119292245393 [Eh]
	 SCS Opposite-Spin Energy  =      -0.7883755684763972 [Eh]
	 SCS Correlation Energy    =      -0.8469874977009365 [Eh]
	 SCS Total Energy          =    -174.5744358491224659 [Eh]
	-----------------------------------------------------------

  Dipole Moment: [D]
     X:    -0.4287      Y:     4.1425      Z:     0.1883     Total:     4.1689

*** Psi4 exiting successfully. Buy a developer a beer!
