                               Psi4 1.4a3.dev225

  ==> Input File <==

--------------------------------------------------------------------------
#psi4
#
memory 32 gb

molecule  {
1 1
  N        0.0000020     1.3752550     0.0881560
  C        0.0000000    -0.0769010    -0.3911070
  C       -1.2745200    -0.7353630     0.1032760
  C        1.2745180    -0.7353670     0.1032760
  H        0.0000000    -0.0018205    -1.5021385
  H       -0.8310820     1.8851260    -0.2406460
  H        0.8310870     1.8851240    -0.2406470
  H        0.0000020     1.4165200     1.1165880
  H       -1.3097880    -1.7608000    -0.2705820
  H       -1.2994510    -0.7789970     1.1965910
  H       -2.1709030    -0.2224960    -0.2574420
  H        1.3097830    -1.7608040    -0.2705810
  H        1.2994490    -0.7790000     1.1965910
  H        2.1709020    -0.2225020    -0.2574420
units angstrom
no_reorient  #important for SAPT in psi4, default
symmetry c1  #important for SAPT in psi4, default
}

set PROPERTIES_ORIGIN ["COM"]
properties('MP2/aug-cc-pvtz', properties = ['dipole'])
--------------------------------------------------------------------------

    Molecular point group: c1
  Charge       = 1
  Multiplicity = 1
  Basis Set: AUG-CC-PVTZ
    Blend: AUG-CC-PVTZ
  Basis Set: (AUG-CC-PVTZ AUX)
    Blend: AUG-CC-PVTZ-JKFIT

    Orbital Energies [Eh]
    ---------------------

    Doubly Occupied:

       1A    -15.886774     2A    -11.485074     3A    -11.397947
       4A    -11.397934     5A     -1.502712     6A     -1.246382
       7A     -1.126474     8A     -1.015138     9A     -0.956299
      10A     -0.949051    11A     -0.845369    12A     -0.794564
      13A     -0.740710    14A     -0.715418    15A     -0.711453
      16A     -0.680376    17A     -0.678140

  @DF-RHF Final Energy:  -173.72837120602188

   => Energetics <=

    Nuclear Repulsion Energy =            143.6137026270820058
    One-Electron Energy =                -510.4245158702139520
    Two-Electron Energy =                 193.0824420371100985
    Total Energy =                       -173.7283712060218761
  Basis Set: (AUG-CC-PVTZ AUX)
    Blend: AUG-CC-PVTZ-RI
    Molecular point group: c1

    Geometry (in Angstrom), charge = 1, multiplicity = 1:

       Center              X                  Y                   Z               Mass
    ------------   -----------------  -----------------  -----------------  -----------------
         N            0.000001950096     1.369530787434     0.096581803985    14.003074004430
         C           -0.000000049904    -0.082625212566    -0.382681196015    12.000000000000
         C           -1.274520049904    -0.741087212566     0.111701803985    12.000000000000
         C            1.274517950096    -0.741091212566     0.111701803985    12.000000000000
         H           -0.000000049904    -0.007544712566    -1.493712696015     1.007825032230
         H           -0.831082049904     1.879401787434    -0.232220196015     1.007825032230
         H            0.831086950096     1.879399787434    -0.232221196015     1.007825032230
         H            0.000001950096     1.410795787434     1.125013803985     1.007825032230
         H           -1.309788049904    -1.766524212566    -0.262156196015     1.007825032230
         H           -1.299451049904    -0.784721212566     1.205016803985     1.007825032230
         H           -2.170903049904    -0.228220212566    -0.249016196015     1.007825032230
         H            1.309782950096    -1.766528212566    -0.262155196015     1.007825032230
         H            1.299448950096    -0.784724212566     1.205016803985     1.007825032230
         H            2.170901950096    -0.228226212566    -0.249016196015     1.007825032230

  Basis Set: AUG-CC-PVTZ
    Blend: AUG-CC-PVTZ
  Basis Set: (AUG-CC-PVTZ AUX)
    Blend: AUG-CC-PVTZ-JKFIT
	 Reference Energy          =    -173.7283712060218761 [Eh]
	 Singles Energy            =      -0.0000000000000000 [Eh]
	 Same-Spin Energy          =      -0.1758186072048374 [Eh]
	 Opposite-Spin Energy      =      -0.6571664740437242 [Eh]
	 Correlation Energy        =      -0.8329850812485616 [Eh]
	 Total Energy              =    -174.5613562872704279 [Eh]

	 ================> DF-SCS-MP2 Energies <==================
	-----------------------------------------------------------
	 SCS Same-Spin Scale       =       0.3333333333333333 [-]
	 SCS Opposite-Spin Scale   =       1.2000000000000000 [-]
	 SCS Same-Spin Energy      =      -0.0586062024016125 [Eh]
	 SCS Opposite-Spin Energy  =      -0.7885997688524690 [Eh]
	 SCS Correlation Energy    =      -0.8472059712540815 [Eh]
	 SCS Total Energy          =    -174.5755771772759601 [Eh]
	-----------------------------------------------------------

  Dipole Moment: [D]
     X:     0.0000      Y:     4.0643      Z:     0.2027     Total:     4.0693

*** Psi4 exiting successfully. Buy a developer a beer!
