                               Psi4 1.3.2 release

  ==> Input File <==

--------------------------------------------------------------------------
#psi4
#
memory 32 gb

molecule  {
1 1
  N       -0.1404670     1.3625770     0.0888070
  C        0.0078560    -0.0677350    -0.3872370
  C       -1.1101939    -0.8099944     0.0700577
  C        1.3401060    -0.6058050     0.1026400
  H        0.0013190     0.0024560    -1.4771570
  H       -1.0129100     1.7863450    -0.2498420
  H        0.6317380     1.9558270    -0.2386540
  H       -0.1534110     1.4166430     1.1149090
  H       -1.1128870    -1.8838160    -0.2761720
  H       -1.2094360    -0.9021000     1.1949220
  H       -2.1281500    -0.4352600    -0.2575270
  H        1.4683160    -1.6231340    -0.2733960
  H        1.3705130    -0.6385200     1.1952170
  H        2.1747220    -0.0011550    -0.2602410
units angstrom
no_reorient  #important for SAPT in psi4, default
symmetry c1  #important for SAPT in psi4, default
}

set PROPERTIES_ORIGIN ["COM"]
properties('MP2/aug-cc-pvtz', properties = ['dipole'])
--------------------------------------------------------------------------

    Molecular point group: c1
  Charge       = 1
  Multiplicity = 1
  Basis Set: AUG-CC-PVTZ
    Blend: AUG-CC-PVTZ
  Basis Set: (AUG-CC-PVTZ AUX)
    Blend: AUG-CC-PVTZ-JKFIT

    Orbital Energies [Eh]
    ---------------------

    Doubly Occupied:

       1A    -15.887891     2A    -11.477638     3A    -11.400653
       4A    -11.397591     5A     -1.510260     6A     -1.264013
       7A     -1.127873     8A     -1.016995     9A     -0.960020
      10A     -0.950674    11A     -0.856153    12A     -0.803241
      13A     -0.747084    14A     -0.716201    15A     -0.705102
      16A     -0.683289    17A     -0.661118

  @DF-RHF Final Energy:  -173.71729872855542

   => Energetics <=

    Nuclear Repulsion Energy =            145.4039720811410064
    One-Electron Energy =                -513.9109475171634358
    Two-Electron Energy =                 194.7896767074670379
    Total Energy =                       -173.7172987285554200
  Basis Set: (AUG-CC-PVTZ AUX)
    Blend: AUG-CC-PVTZ-RI
    Molecular point group: c1

    Geometry (in Angstrom), charge = 1, multiplicity = 1:

       Center              X                  Y                   Z               Mass
    ------------   -----------------  -----------------  -----------------  -----------------
         N           -0.155717907160     1.346721581849     0.103040170450    14.003074004430
         C           -0.007394907160    -0.083590418151    -0.373003829550    12.000000000000
         C           -1.125444807160    -0.825849818151     0.084290870450    12.000000000000
         C            1.324855092840    -0.621660418151     0.116873170450    12.000000000000
         H           -0.013931907160    -0.013399418151    -1.462923829550     1.007825032230
         H           -1.028160907160     1.770489581849    -0.235608829550     1.007825032230
         H            0.616487092840     1.939971581849    -0.224420829550     1.007825032230
         H           -0.168661907160     1.400787581849     1.129142170450     1.007825032230
         H           -1.128137907160    -1.899671418151    -0.261938829550     1.007825032230
         H           -1.224686907160    -0.917955418151     1.209155170450     1.007825032230
         H           -2.143400907160    -0.451115418151    -0.243293829550     1.007825032230
         H            1.453065092840    -1.638989418151    -0.259162829550     1.007825032230
         H            1.355262092840    -0.654375418151     1.209450170450     1.007825032230
         H            2.159471092840    -0.017010418151    -0.246007829550     1.007825032230

  Basis Set: AUG-CC-PVTZ
    Blend: AUG-CC-PVTZ
  Basis Set: (AUG-CC-PVTZ AUX)
    Blend: AUG-CC-PVTZ-JKFIT
	 Reference Energy          =    -173.7172987285554200 [Eh]
	 Singles Energy            =      -0.0000000000000000 [Eh]
	 Same-Spin Energy          =      -0.1770695801903959 [Eh]
	 Opposite-Spin Energy      =      -0.6582040700350931 [Eh]
	 Correlation Energy        =      -0.8352736502254889 [Eh]
	 Total Energy              =    -174.5525723787809227 [Eh]

	 ================> DF-SCS-MP2 Energies <==================
	-----------------------------------------------------------
	 SCS Same-Spin Scale       =       0.3333333333333333 [-]
	 SCS Opposite-Spin Scale   =       1.2000000000000000 [-]
	 SCS Same-Spin Energy      =      -0.0590231933967986 [Eh]
	 SCS Opposite-Spin Energy  =      -0.7898448840421116 [Eh]
	 SCS Correlation Energy    =      -0.8488680774389102 [Eh]
	 SCS Total Energy          =    -174.5661668059943281 [Eh]
	-----------------------------------------------------------

  Dipole Moment: [D]
     X:    -0.5151      Y:     3.9990      Z:     0.2222     Total:     4.0382

*** Psi4 exiting successfully. Buy a developer a beer!
