                               Psi4 1.3.2 release

  ==> Input File <==

--------------------------------------------------------------------------
#psi4
#
memory 32 gb

molecule  {
1 1
  N       -0.1404670     1.3625770     0.0888070
  C        0.0078560    -0.0677350    -0.3872370
  C       -1.0313347    -0.7576408     0.0378035
  C        1.3401060    -0.6058050     0.1026400
  H        0.0013190     0.0024560    -1.4771570
  H       -1.0129100     1.7863450    -0.2498420
  H        0.6317380     1.9558270    -0.2386540
  H       -0.1534110     1.4166430     1.1149090
  H       -1.1128870    -1.8838160    -0.2761720
  H       -1.2094360    -0.9021000     1.1949220
  H       -2.1281500    -0.4352600    -0.2575270
  H        1.4683160    -1.6231340    -0.2733960
  H        1.3705130    -0.6385200     1.1952170
  H        2.1747220    -0.0011550    -0.2602410
units angstrom
no_reorient  #important for SAPT in psi4, default
symmetry c1  #important for SAPT in psi4, default
}

set PROPERTIES_ORIGIN ["COM"]
properties('MP2/aug-cc-pvtz', properties = ['dipole'])
--------------------------------------------------------------------------

    Molecular point group: c1
  Charge       = 1
  Multiplicity = 1
  Basis Set: AUG-CC-PVTZ
    Blend: AUG-CC-PVTZ
  Basis Set: (AUG-CC-PVTZ AUX)
    Blend: AUG-CC-PVTZ-JKFIT

    Orbital Energies [Eh]
    ---------------------

    Doubly Occupied:

       1A    -15.887265     2A    -11.472778     3A    -11.406342
       4A    -11.398074     5A     -1.513435     6A     -1.285716
       7A     -1.130881     8A     -1.013001     9A     -0.960477
      10A     -0.949754    11A     -0.863753    12A     -0.816363
      13A     -0.758499    14A     -0.717932    15A     -0.707973
      16A     -0.665276    17A     -0.638307

  @DF-RHF Final Energy:  -173.67799235979763

   => Energetics <=

    Nuclear Repulsion Energy =            146.9094411554440569
    One-Electron Energy =                -516.8032122833450330
    Two-Electron Energy =                 196.2157787681033767
    Total Energy =                       -173.6779923597976278
  Basis Set: (AUG-CC-PVTZ AUX)
    Blend: AUG-CC-PVTZ-RI
    Molecular point group: c1

    Geometry (in Angstrom), charge = 1, multiplicity = 1:

       Center              X                  Y                   Z               Mass
    ------------   -----------------  -----------------  -----------------  -----------------
         N           -0.171468398857     1.336265034710     0.109482278781    14.003074004430
         C           -0.023145398857    -0.094046965290    -0.366561721219    12.000000000000
         C           -1.062336098857    -0.783952765290     0.058478778781    12.000000000000
         C            1.309104601143    -0.632116965290     0.123315278781    12.000000000000
         H           -0.029682398857    -0.023855965290    -1.456481721219     1.007825032230
         H           -1.043911398857     1.760033034710    -0.229166721219     1.007825032230
         H            0.600736601143     1.929515034710    -0.217978721219     1.007825032230
         H           -0.184412398857     1.390331034710     1.135584278781     1.007825032230
         H           -1.143888398857    -1.910127965290    -0.255496721219     1.007825032230
         H           -1.240437398857    -0.928411965290     1.215597278781     1.007825032230
         H           -2.159151398857    -0.461571965290    -0.236851721219     1.007825032230
         H            1.437314601143    -1.649445965290    -0.252720721219     1.007825032230
         H            1.339511601143    -0.664831965290     1.215892278781     1.007825032230
         H            2.143720601143    -0.027466965290    -0.239565721219     1.007825032230

  Basis Set: AUG-CC-PVTZ
    Blend: AUG-CC-PVTZ
  Basis Set: (AUG-CC-PVTZ AUX)
    Blend: AUG-CC-PVTZ-JKFIT
	 Reference Energy          =    -173.6779923597976278 [Eh]
	 Singles Energy            =      -0.0000000000000000 [Eh]
	 Same-Spin Energy          =      -0.1791722186508142 [Eh]
	 Opposite-Spin Energy      =      -0.6610338807767631 [Eh]
	 Correlation Energy        =      -0.8402060994275773 [Eh]
	 Total Energy              =    -174.5181984592252036 [Eh]

	 ================> DF-SCS-MP2 Energies <==================
	-----------------------------------------------------------
	 SCS Same-Spin Scale       =       0.3333333333333333 [-]
	 SCS Opposite-Spin Scale   =       1.2000000000000000 [-]
	 SCS Same-Spin Energy      =      -0.0597240728836047 [Eh]
	 SCS Opposite-Spin Energy  =      -0.7932406569321157 [Eh]
	 SCS Correlation Energy    =      -0.8529647298157204 [Eh]
	 SCS Total Energy          =    -174.5309570896133380 [Eh]
	-----------------------------------------------------------

  Dipole Moment: [D]
     X:    -0.6218      Y:     3.8675      Z:     0.2453     Total:     3.9249

*** Psi4 exiting successfully. Buy a developer a beer!
