                               Psi4 1.3.2 release

  ==> Input File <==

--------------------------------------------------------------------------
#psi4
#
memory 32 gb

molecule  {
1 1
  N       -0.1404670     1.3625770     0.0888070
  C        0.0078560    -0.0677350    -0.3872370
  C       -1.1890530    -0.8623480     0.1023120
  C        1.3401060    -0.6058050     0.1026400
  H        0.0007205     0.0088826    -1.5769485
  H       -1.0129100     1.7863450    -0.2498420
  H        0.6317380     1.9558270    -0.2386540
  H       -0.1534110     1.4166430     1.1149090
  H       -1.1128870    -1.8838160    -0.2761720
  H       -1.2094360    -0.9021000     1.1949220
  H       -2.1281500    -0.4352600    -0.2575270
  H        1.4683160    -1.6231340    -0.2733960
  H        1.3705130    -0.6385200     1.1952170
  H        2.1747220    -0.0011550    -0.2602410
units angstrom
no_reorient  #important for SAPT in psi4, default
symmetry c1  #important for SAPT in psi4, default
}

set PROPERTIES_ORIGIN ["COM"]
properties('MP2/aug-cc-pvtz', properties = ['dipole'])
--------------------------------------------------------------------------

    Molecular point group: c1
  Charge       = 1
  Multiplicity = 1
  Basis Set: AUG-CC-PVTZ
    Blend: AUG-CC-PVTZ
  Basis Set: (AUG-CC-PVTZ AUX)
    Blend: AUG-CC-PVTZ-JKFIT

    Orbital Energies [Eh]
    ---------------------

    Doubly Occupied:

       1A    -15.888687     2A    -11.491172     3A    -11.397907
       4A    -11.397865     5A     -1.507490     6A     -1.244434
       7A     -1.126665     8A     -1.011334     9A     -0.959163
      10A     -0.951061    11A     -0.841764    12A     -0.791350
      13A     -0.740097    14A     -0.716615    15A     -0.713863
      16A     -0.678545    17A     -0.668819

  @DF-RHF Final Energy:  -173.72247838403152

   => Energetics <=

    Nuclear Repulsion Energy =            143.5939146960851645
    One-Electron Energy =                -510.3791280039228013
    Two-Electron Energy =                 193.0627349238061186
    Total Energy =                       -173.7224783840315183
  Basis Set: (AUG-CC-PVTZ AUX)
    Blend: AUG-CC-PVTZ-RI
    Molecular point group: c1

    Geometry (in Angstrom), charge = 1, multiplicity = 1:

       Center              X                  Y                   Z               Mass
    ------------   -----------------  -----------------  -----------------  -----------------
         N           -0.139957395988     1.357070326964     0.098271979477    14.003074004430
         C            0.008365604012    -0.073241673036    -0.377772020523    12.000000000000
         C           -1.188543395988    -0.867854673036     0.111776979477    12.000000000000
         C            1.340615604012    -0.611311673036     0.112104979477    12.000000000000
         H            0.001230104012     0.003375926964    -1.567483520523     1.007825032230
         H           -1.012400395988     1.780838326964    -0.240377020523     1.007825032230
         H            0.632247604012     1.950320326964    -0.229189020523     1.007825032230
         H           -0.152901395988     1.411136326964     1.124373979477     1.007825032230
         H           -1.112377395988    -1.889322673036    -0.266707020523     1.007825032230
         H           -1.208926395988    -0.907606673036     1.204386979477     1.007825032230
         H           -2.127640395988    -0.440766673036    -0.248062020523     1.007825032230
         H            1.468825604012    -1.628640673036    -0.263931020523     1.007825032230
         H            1.371022604012    -0.644026673036     1.204681979477     1.007825032230
         H            2.175231604012    -0.006661673036    -0.250776020523     1.007825032230

  Basis Set: AUG-CC-PVTZ
    Blend: AUG-CC-PVTZ
  Basis Set: (AUG-CC-PVTZ AUX)
    Blend: AUG-CC-PVTZ-JKFIT
	 Reference Energy          =    -173.7224783840315183 [Eh]
	 Singles Energy            =      -0.0000000000000000 [Eh]
	 Same-Spin Energy          =      -0.1759968072295932 [Eh]
	 Opposite-Spin Energy      =      -0.6577777707059658 [Eh]
	 Correlation Energy        =      -0.8337745779355590 [Eh]
	 Total Energy              =    -174.5562529619670897 [Eh]

	 ================> DF-SCS-MP2 Energies <==================
	-----------------------------------------------------------
	 SCS Same-Spin Scale       =       0.3333333333333333 [-]
	 SCS Opposite-Spin Scale   =       1.2000000000000000 [-]
	 SCS Same-Spin Energy      =      -0.0586656024098644 [Eh]
	 SCS Opposite-Spin Energy  =      -0.7893333248471589 [Eh]
	 SCS Correlation Energy    =      -0.8479989272570233 [Eh]
	 SCS Total Energy          =    -174.5704773112885277 [Eh]
	-----------------------------------------------------------

  Dipole Moment: [D]
     X:    -0.4230      Y:     4.0859      Z:     0.2184     Total:     4.1135

*** Psi4 exiting successfully. Buy a developer a beer!
