                               Psi4 1.3.2 release

  ==> Input File <==

--------------------------------------------------------------------------
#psi4
#
memory 32 gb

molecule  {
1 1
  N       -0.1404670     1.3625770     0.0888070
  C        0.0078560    -0.0677350    -0.3872370
  C       -1.2113859    -0.8713861     0.0265906
  C        1.3401060    -0.6058050     0.1026400
  H       -0.0469360    -0.0282208    -1.4773432
  H       -1.0129100     1.7863450    -0.2498420
  H        0.6317380     1.9558270    -0.2386540
  H       -0.1534110     1.4166430     1.1149090
  H       -1.1128870    -1.8838160    -0.2761720
  H       -1.2094360    -0.9021000     1.1949220
  H       -2.1281500    -0.4352600    -0.2575270
  H        1.4683160    -1.6231340    -0.2733960
  H        1.3705130    -0.6385200     1.1952170
  H        2.1747220    -0.0011550    -0.2602410
units angstrom
no_reorient  #important for SAPT in psi4, default
symmetry c1  #important for SAPT in psi4, default
}

set PROPERTIES_ORIGIN ["COM"]
properties('MP2/aug-cc-pvtz', properties = ['dipole'])
--------------------------------------------------------------------------

    Molecular point group: c1
  Charge       = 1
  Multiplicity = 1
  Basis Set: AUG-CC-PVTZ
    Blend: AUG-CC-PVTZ
  Basis Set: (AUG-CC-PVTZ AUX)
    Blend: AUG-CC-PVTZ-JKFIT

    Orbital Energies [Eh]
    ---------------------

    Doubly Occupied:

       1A    -15.889755     2A    -11.480652     3A    -11.398366
       4A    -11.398009     5A     -1.508265     6A     -1.247985
       7A     -1.128089     8A     -1.018056     9A     -0.960388
      10A     -0.952030    11A     -0.852084    12A     -0.797229
      13A     -0.744308    14A     -0.718269    15A     -0.714040
      16A     -0.686009    17A     -0.659615

  @DF-RHF Final Energy:  -173.72181125120318

   => Energetics <=

    Nuclear Repulsion Energy =            143.8756878140075628
    One-Electron Energy =                -510.8887006525244487
    Two-Electron Energy =                 193.2912015873137079
    Total Energy =                       -173.7218112512031780
  Basis Set: (AUG-CC-PVTZ AUX)
    Blend: AUG-CC-PVTZ-RI
    Molecular point group: c1

    Geometry (in Angstrom), charge = 1, multiplicity = 1:

       Center              X                  Y                   Z               Mass
    ------------   -----------------  -----------------  -----------------  -----------------
         N           -0.134697455113     1.359497885560     0.111724946674    14.003074004430
         C            0.013625544887    -0.070814114440    -0.364319053326    12.000000000000
         C           -1.205616355113    -0.874465214440     0.049508546674    12.000000000000
         C            1.345875544887    -0.608884114440     0.125557946674    12.000000000000
         H           -0.041166455113    -0.031299914440    -1.454425253326     1.007825032230
         H           -1.007140455113     1.783265885560    -0.226924053326     1.007825032230
         H            0.637507544887     1.952747885560    -0.215736053326     1.007825032230
         H           -0.147641455113     1.413563885560     1.137826946674     1.007825032230
         H           -1.107117455113    -1.886895114440    -0.253254053326     1.007825032230
         H           -1.203666455113    -0.905179114440     1.217839946674     1.007825032230
         H           -2.122380455113    -0.438339114440    -0.234609053326     1.007825032230
         H            1.474085544887    -1.626213114440    -0.250478053326     1.007825032230
         H            1.376282544887    -0.641599114440     1.218134946674     1.007825032230
         H            2.180491544887    -0.004234114440    -0.237323053326     1.007825032230

  Basis Set: AUG-CC-PVTZ
    Blend: AUG-CC-PVTZ
  Basis Set: (AUG-CC-PVTZ AUX)
    Blend: AUG-CC-PVTZ-JKFIT
	 Reference Energy          =    -173.7218112512031780 [Eh]
	 Singles Energy            =      -0.0000000000000000 [Eh]
	 Same-Spin Energy          =      -0.1759228830178149 [Eh]
	 Opposite-Spin Energy      =      -0.6571509272612355 [Eh]
	 Correlation Energy        =      -0.8330738102790504 [Eh]
	 Total Energy              =    -174.5548850614822243 [Eh]

	 ================> DF-SCS-MP2 Energies <==================
	-----------------------------------------------------------
	 SCS Same-Spin Scale       =       0.3333333333333333 [-]
	 SCS Opposite-Spin Scale   =       1.2000000000000000 [-]
	 SCS Same-Spin Energy      =      -0.0586409610059383 [Eh]
	 SCS Opposite-Spin Energy  =      -0.7885811127134825 [Eh]
	 SCS Correlation Energy    =      -0.8472220737194208 [Eh]
	 SCS Total Energy          =    -174.5690333249226001 [Eh]
	-----------------------------------------------------------

  Dipole Moment: [D]
     X:    -0.4084      Y:     4.1295      Z:     0.2396     Total:     4.1566

*** Psi4 exiting successfully. Buy a developer a beer!
