                               Psi4 1.3.2 release

  ==> Input File <==

--------------------------------------------------------------------------
#psi4
#
memory 32 gb

molecule  {
1 1
  N       -0.1404670     1.3625770     0.0888070
  C        0.0078560    -0.0677350    -0.3872370
  C       -1.1890530    -0.8623480     0.1023120
  C        1.3401060    -0.6058050     0.1026400
  H        0.0001220     0.0153092    -1.6767400
  H       -1.0129100     1.7863450    -0.2498420
  H        0.6317380     1.9558270    -0.2386540
  H       -0.1534110     1.4166430     1.1149090
  H       -1.1128870    -1.8838160    -0.2761720
  H       -1.2094360    -0.9021000     1.1949220
  H       -2.1281500    -0.4352600    -0.2575270
  H        1.4683160    -1.6231340    -0.2733960
  H        1.3705130    -0.6385200     1.1952170
  H        2.1747220    -0.0011550    -0.2602410
units angstrom
no_reorient  #important for SAPT in psi4, default
symmetry c1  #important for SAPT in psi4, default
}

set PROPERTIES_ORIGIN ["COM"]
properties('MP2/aug-cc-pvtz', properties = ['dipole'])
--------------------------------------------------------------------------

    Molecular point group: c1
  Charge       = 1
  Multiplicity = 1
  Basis Set: AUG-CC-PVTZ
    Blend: AUG-CC-PVTZ
  Basis Set: (AUG-CC-PVTZ AUX)
    Blend: AUG-CC-PVTZ-JKFIT

    Orbital Energies [Eh]
    ---------------------

    Doubly Occupied:

       1A    -15.889447     2A    -11.500676     3A    -11.398730
       4A    -11.398689     5A     -1.507560     6A     -1.242513
       7A     -1.127255     8A     -1.005558     9A     -0.959135
      10A     -0.951368    11A     -0.835823    12A     -0.787775
      13A     -0.740543    14A     -0.717059    15A     -0.713971
      16A     -0.679432    17A     -0.656199

  @DF-RHF Final Energy:  -173.70873419309476

   => Energetics <=

    Nuclear Repulsion Energy =            143.1940013202560351
    One-Electron Energy =                -509.5820053868586683
    Two-Electron Energy =                 192.6792698735079057
    Total Energy =                       -173.7087341930947559
  Basis Set: (AUG-CC-PVTZ AUX)
    Blend: AUG-CC-PVTZ-RI
    Molecular point group: c1

    Geometry (in Angstrom), charge = 1, multiplicity = 1:

       Center              X                  Y                   Z               Mass
    ------------   -----------------  -----------------  -----------------  -----------------
         N           -0.139947356540     1.356962524940     0.099945916808    14.003074004430
         C            0.008375643460    -0.073349475060    -0.376098083192    12.000000000000
         C           -1.188533356540    -0.867962475060     0.113450916808    12.000000000000
         C            1.340625643460    -0.611419475060     0.113778916808    12.000000000000
         H            0.000641643460     0.009694724940    -1.665601083192     1.007825032230
         H           -1.012390356540     1.780730524940    -0.238703083192     1.007825032230
         H            0.632257643460     1.950212524940    -0.227515083192     1.007825032230
         H           -0.152891356540     1.411028524940     1.126047916808     1.007825032230
         H           -1.112367356540    -1.889430475060    -0.265033083192     1.007825032230
         H           -1.208916356540    -0.907714475060     1.206060916808     1.007825032230
         H           -2.127630356540    -0.440874475060    -0.246388083192     1.007825032230
         H            1.468835643460    -1.628748475060    -0.262257083192     1.007825032230
         H            1.371032643460    -0.644134475060     1.206355916808     1.007825032230
         H            2.175241643460    -0.006769475060    -0.249102083192     1.007825032230

  Basis Set: AUG-CC-PVTZ
    Blend: AUG-CC-PVTZ
  Basis Set: (AUG-CC-PVTZ AUX)
    Blend: AUG-CC-PVTZ-JKFIT
	 Reference Energy          =    -173.7087341930947559 [Eh]
	 Singles Energy            =      -0.0000000000000000 [Eh]
	 Same-Spin Energy          =      -0.1761745397839573 [Eh]
	 Opposite-Spin Energy      =      -0.6588564350251106 [Eh]
	 Correlation Energy        =      -0.8350309748090680 [Eh]
	 Total Energy              =    -174.5437651679038140 [Eh]

	 ================> DF-SCS-MP2 Energies <==================
	-----------------------------------------------------------
	 SCS Same-Spin Scale       =       0.3333333333333333 [-]
	 SCS Opposite-Spin Scale   =       1.2000000000000000 [-]
	 SCS Same-Spin Energy      =      -0.0587248465946524 [Eh]
	 SCS Opposite-Spin Energy  =      -0.7906277220301327 [Eh]
	 SCS Correlation Energy    =      -0.8493525686247851 [Eh]
	 SCS Total Energy          =    -174.5580867617195509 [Eh]
	-----------------------------------------------------------

  Dipole Moment: [D]
     X:    -0.4214      Y:     4.0708      Z:     0.2465     Total:     4.1000

*** Psi4 exiting successfully. Buy a developer a beer!
