                               Psi4 1.3.2 release

  ==> Input File <==

--------------------------------------------------------------------------
#psi4
#
memory 32 gb

molecule  {
1 1
  N       -0.1404670     1.3625770     0.0888070
  C        0.0078560    -0.0677350    -0.3872370
  C       -1.1890530    -0.8623480     0.1023120
  C        1.3401060    -0.6058050     0.1026400
  H        0.0013190     0.0024560    -1.4771570
  H       -0.9279872     1.7450958    -0.2168782
  H        0.6317380     1.9558270    -0.2386540
  H       -0.1534110     1.4166430     1.1149090
  H       -1.1128870    -1.8838160    -0.2761720
  H       -1.2094360    -0.9021000     1.1949220
  H       -2.1281500    -0.4352600    -0.2575270
  H        1.4683160    -1.6231340    -0.2733960
  H        1.3705130    -0.6385200     1.1952170
  H        2.1747220    -0.0011550    -0.2602410
units angstrom
no_reorient  #important for SAPT in psi4, default
symmetry c1  #important for SAPT in psi4, default
}

set PROPERTIES_ORIGIN ["COM"]
properties('MP2/aug-cc-pvtz', properties = ['dipole'])
--------------------------------------------------------------------------

    Molecular point group: c1
  Charge       = 1
  Multiplicity = 1
  Basis Set: AUG-CC-PVTZ
    Blend: AUG-CC-PVTZ
  Basis Set: (AUG-CC-PVTZ AUX)
    Blend: AUG-CC-PVTZ-JKFIT

    Orbital Energies [Eh]
    ---------------------

    Doubly Occupied:

       1A    -15.881118     2A    -11.481901     3A    -11.397977
       4A    -11.397879     5A     -1.526037     6A     -1.252413
       7A     -1.127696     8A     -1.021919     9A     -0.985072
      10A     -0.959252    11A     -0.852123    12A     -0.796179
      13A     -0.741671    14A     -0.717333    15A     -0.715228
      16A     -0.680517    17A     -0.678724

  @DF-RHF Final Energy:  -173.72296877851539

   => Energetics <=

    Nuclear Repulsion Energy =            144.5753739046380986
    One-Electron Energy =                -512.1706051094677150
    Two-Electron Energy =                 193.8722624263141938
    Total Energy =                       -173.7229687785153942
  Basis Set: (AUG-CC-PVTZ AUX)
    Blend: AUG-CC-PVTZ-RI
    Molecular point group: c1

    Geometry (in Angstrom), charge = 1, multiplicity = 1:

       Center              X                  Y                   Z               Mass
    ------------   -----------------  -----------------  -----------------  -----------------
         N           -0.141391960020     1.357870057416     0.096045095899    14.003074004430
         C            0.006931039980    -0.072441942584    -0.379998904101    12.000000000000
         C           -1.189977960020    -0.867054942584     0.109550095899    12.000000000000
         C            1.339181039980    -0.610511942584     0.109878095899    12.000000000000
         H            0.000394039980    -0.002250942584    -1.469918904101     1.007825032230
         H           -0.928912160020     1.740388857416    -0.209640104101     1.007825032230
         H            0.630813039980     1.951120057416    -0.231415904101     1.007825032230
         H           -0.154335960020     1.411936057416     1.122147095899     1.007825032230
         H           -1.113811960020    -1.888522942584    -0.268933904101     1.007825032230
         H           -1.210360960020    -0.906806942584     1.202160095899     1.007825032230
         H           -2.129074960020    -0.439966942584    -0.250288904101     1.007825032230
         H            1.467391039980    -1.627840942584    -0.266157904101     1.007825032230
         H            1.369588039980    -0.643226942584     1.202455095899     1.007825032230
         H            2.173797039980    -0.005861942584    -0.253002904101     1.007825032230

  Basis Set: AUG-CC-PVTZ
    Blend: AUG-CC-PVTZ
  Basis Set: (AUG-CC-PVTZ AUX)
    Blend: AUG-CC-PVTZ-JKFIT
	 Reference Energy          =    -173.7229687785153942 [Eh]
	 Singles Energy            =      -0.0000000000000000 [Eh]
	 Same-Spin Energy          =      -0.1753197447698654 [Eh]
	 Opposite-Spin Energy      =      -0.6553216763096474 [Eh]
	 Correlation Energy        =      -0.8306414210795128 [Eh]
	 Total Energy              =    -174.5536101995949139 [Eh]

	 ================> DF-SCS-MP2 Energies <==================
	-----------------------------------------------------------
	 SCS Same-Spin Scale       =       0.3333333333333333 [-]
	 SCS Opposite-Spin Scale   =       1.2000000000000000 [-]
	 SCS Same-Spin Energy      =      -0.0584399149232885 [Eh]
	 SCS Opposite-Spin Energy  =      -0.7863860115715769 [Eh]
	 SCS Correlation Energy    =      -0.8448259264948654 [Eh]
	 SCS Total Energy          =    -174.5677947050102716 [Eh]
	-----------------------------------------------------------

  Dipole Moment: [D]
     X:    -0.3219      Y:     4.0397      Z:     0.2426     Total:     4.0598

*** Psi4 exiting successfully. Buy a developer a beer!
