                               Psi4 1.4a3.dev225

  ==> Input File <==

--------------------------------------------------------------------------
#psi4
#
memory 32 gb

molecule  {
1 1
  N        0.0000020     1.3752550     0.0881560
  C        0.0000000    -0.0769010    -0.3911070
  C       -1.2913192    -0.7440420     0.1097923
  C        1.2745180    -0.7353670     0.1032760
  H        0.0000000    -0.0031690    -1.4821840
  H       -0.8310820     1.8851260    -0.2406460
  H        0.8310870     1.8851240    -0.2406470
  H        0.0000020     1.4165200     1.1165880
  H       -1.3097880    -1.7608000    -0.2705820
  H       -1.2994510    -0.7789970     1.1965910
  H       -2.1709030    -0.2224960    -0.2574420
  H        1.3097830    -1.7608040    -0.2705810
  H        1.2994490    -0.7790000     1.1965910
  H        2.1709020    -0.2225020    -0.2574420
units angstrom
no_reorient  #important for SAPT in psi4, default
symmetry c1  #important for SAPT in psi4, default
}

set PROPERTIES_ORIGIN ["COM"]
properties('MP2/aug-cc-pvtz', properties = ['dipole'])
--------------------------------------------------------------------------

    Molecular point group: c1
  Charge       = 1
  Multiplicity = 1
  Basis Set: AUG-CC-PVTZ
    Blend: AUG-CC-PVTZ
  Basis Set: (AUG-CC-PVTZ AUX)
    Blend: AUG-CC-PVTZ-JKFIT

    Orbital Energies [Eh]
    ---------------------

    Doubly Occupied:

       1A    -15.886659     2A    -11.483286     3A    -11.397742
       4A    -11.397461     5A     -1.502327     6A     -1.244431
       7A     -1.126250     8A     -1.017556     9A     -0.956110
      10A     -0.948989    11A     -0.846154    12A     -0.794048
      13A     -0.739964    14A     -0.717875    15A     -0.712279
      16A     -0.682959    17A     -0.676554

  @DF-RHF Final Energy:  -173.72884769604616

   => Energetics <=

    Nuclear Repulsion Energy =            143.4478886735239485
    One-Electron Energy =                -510.0921855302868266
    Two-Electron Energy =                 192.9154491607167188
    Total Energy =                       -173.7288476960461594
  Basis Set: (AUG-CC-PVTZ AUX)
    Blend: AUG-CC-PVTZ-RI
    Molecular point group: c1

    Geometry (in Angstrom), charge = 1, multiplicity = 1:

       Center              X                  Y                   Z               Mass
    ------------   -----------------  -----------------  -----------------  -----------------
         N            0.003357242314     1.371286858114     0.094945584316    14.003074004430
         C            0.003355242314    -0.080869141886    -0.384317415684    12.000000000000
         C           -1.287963957686    -0.748010141886     0.116581884316    12.000000000000
         C            1.277873242314    -0.739335141886     0.110065584316    12.000000000000
         H            0.003355242314    -0.007137141886    -1.475394415684     1.007825032230
         H           -0.827726757686     1.881157858114    -0.233856415684     1.007825032230
         H            0.834442242314     1.881155858114    -0.233857415684     1.007825032230
         H            0.003357242314     1.412551858114     1.123377584316     1.007825032230
         H           -1.306432757686    -1.764768141886    -0.263792415684     1.007825032230
         H           -1.296095757686    -0.782965141886     1.203380584316     1.007825032230
         H           -2.167547757686    -0.226464141886    -0.250652415684     1.007825032230
         H            1.313138242314    -1.764772141886    -0.263791415684     1.007825032230
         H            1.302804242314    -0.782968141886     1.203380584316     1.007825032230
         H            2.174257242314    -0.226470141886    -0.250652415684     1.007825032230

  Basis Set: AUG-CC-PVTZ
    Blend: AUG-CC-PVTZ
  Basis Set: (AUG-CC-PVTZ AUX)
    Blend: AUG-CC-PVTZ-JKFIT
	 Reference Energy          =    -173.7288476960461594 [Eh]
	 Singles Energy            =      -0.0000000000000000 [Eh]
	 Same-Spin Energy          =      -0.1756281157788264 [Eh]
	 Opposite-Spin Energy      =      -0.6568941382675454 [Eh]
	 Correlation Energy        =      -0.8325222540463718 [Eh]
	 Total Energy              =    -174.5613699500925406 [Eh]

	 ================> DF-SCS-MP2 Energies <==================
	-----------------------------------------------------------
	 SCS Same-Spin Scale       =       0.3333333333333333 [-]
	 SCS Opposite-Spin Scale   =       1.2000000000000000 [-]
	 SCS Same-Spin Energy      =      -0.0585427052596088 [Eh]
	 SCS Opposite-Spin Energy  =      -0.7882729659210544 [Eh]
	 SCS Correlation Energy    =      -0.8468156711806633 [Eh]
	 SCS Total Energy          =    -174.5756633672268094 [Eh]
	-----------------------------------------------------------

  Dipole Moment: [D]
     X:     0.0176      Y:     4.0822      Z:     0.1957     Total:     4.0869

*** Psi4 exiting successfully. Buy a developer a beer!
