                               Psi4 1.3.2 release

  ==> Input File <==

--------------------------------------------------------------------------
#psi4
#
memory 32 gb

molecule  {
1 1
  N       -0.1404670     1.3625770     0.0888070
  C        0.0078560    -0.0677350    -0.3872370
  C       -1.1890530    -0.8623480     0.1023120
  C        1.3401060    -0.6058050     0.1026400
  H        0.0013190     0.0024560    -1.4771570
  H       -1.0978328     1.8275942    -0.2828058
  H        0.6317380     1.9558270    -0.2386540
  H       -0.1534110     1.4166430     1.1149090
  H       -1.1128870    -1.8838160    -0.2761720
  H       -1.2094360    -0.9021000     1.1949220
  H       -2.1281500    -0.4352600    -0.2575270
  H        1.4683160    -1.6231340    -0.2733960
  H        1.3705130    -0.6385200     1.1952170
  H        2.1747220    -0.0011550    -0.2602410
units angstrom
no_reorient  #important for SAPT in psi4, default
symmetry c1  #important for SAPT in psi4, default
}

set PROPERTIES_ORIGIN ["COM"]
properties('MP2/aug-cc-pvtz', properties = ['dipole'])
--------------------------------------------------------------------------

    Molecular point group: c1
  Charge       = 1
  Multiplicity = 1
  Basis Set: AUG-CC-PVTZ
    Blend: AUG-CC-PVTZ
  Basis Set: (AUG-CC-PVTZ AUX)
    Blend: AUG-CC-PVTZ-JKFIT

    Orbital Energies [Eh]
    ---------------------

    Doubly Occupied:

       1A    -15.893327     2A    -11.479446     3A    -11.396585
       4A    -11.396472     5A     -1.493939     6A     -1.243748
       7A     -1.124911     8A     -1.017835     9A     -0.954199
      10A     -0.923011    11A     -0.848268    12A     -0.792477
      13A     -0.737781    14A     -0.715149    15A     -0.712740
      16A     -0.678385    17A     -0.676881

  @DF-RHF Final Energy:  -173.71960964667974

   => Energetics <=

    Nuclear Repulsion Energy =            143.5755468443205700
    One-Electron Energy =                -510.4200054302286276
    Two-Electron Energy =                 193.1248489392283147
    Total Energy =                       -173.7196096466797428
  Basis Set: (AUG-CC-PVTZ AUX)
    Blend: AUG-CC-PVTZ-RI
    Molecular point group: c1

    Geometry (in Angstrom), charge = 1, multiplicity = 1:

       Center              X                  Y                   Z               Mass
    ------------   -----------------  -----------------  -----------------  -----------------
         N           -0.138542910849     1.356486200559     0.097150988393    14.003074004430
         C            0.009780089151    -0.073825799441    -0.378893011607    12.000000000000
         C           -1.187128910849    -0.868438799441     0.110655988393    12.000000000000
         C            1.342030089151    -0.611895799441     0.110983988393    12.000000000000
         H            0.003243089151    -0.003634799441    -1.468813011607     1.007825032230
         H           -1.095908710849     1.821503400559    -0.274461811607     1.007825032230
         H            0.633662089151     1.949736200559    -0.230310011607     1.007825032230
         H           -0.151486910849     1.410552200559     1.123252988393     1.007825032230
         H           -1.110962910849    -1.889906799441    -0.267828011607     1.007825032230
         H           -1.207511910849    -0.908190799441     1.203265988393     1.007825032230
         H           -2.126225910849    -0.441350799441    -0.249183011607     1.007825032230
         H            1.470240089151    -1.629224799441    -0.265052011607     1.007825032230
         H            1.372437089151    -0.644610799441     1.203560988393     1.007825032230
         H            2.176646089151    -0.007245799441    -0.251897011607     1.007825032230

  Basis Set: AUG-CC-PVTZ
    Blend: AUG-CC-PVTZ
  Basis Set: (AUG-CC-PVTZ AUX)
    Blend: AUG-CC-PVTZ-JKFIT
	 Reference Energy          =    -173.7196096466797428 [Eh]
	 Singles Energy            =      -0.0000000000000000 [Eh]
	 Same-Spin Energy          =      -0.1764313621485421 [Eh]
	 Opposite-Spin Energy      =      -0.6587546545521985 [Eh]
	 Correlation Energy        =      -0.8351860167007406 [Eh]
	 Total Energy              =    -174.5547956633804745 [Eh]

	 ================> DF-SCS-MP2 Energies <==================
	-----------------------------------------------------------
	 SCS Same-Spin Scale       =       0.3333333333333333 [-]
	 SCS Opposite-Spin Scale   =       1.2000000000000000 [-]
	 SCS Same-Spin Energy      =      -0.0588104540495140 [Eh]
	 SCS Opposite-Spin Energy  =      -0.7905055854626382 [Eh]
	 SCS Correlation Energy    =      -0.8493160395121522 [Eh]
	 SCS Total Energy          =    -174.5689256861919034 [Eh]
	-----------------------------------------------------------

  Dipole Moment: [D]
     X:    -0.5329      Y:     4.1619      Z:     0.1536     Total:     4.1987

*** Psi4 exiting successfully. Buy a developer a beer!
