                               Psi4 1.3.2 release

  ==> Input File <==

--------------------------------------------------------------------------
#psi4
#
memory 32 gb

molecule  {
1 1
  N       -0.1420536     1.3782346     0.0383322
  C        0.0078560    -0.0677350    -0.3872370
  C       -1.1890530    -0.8623480     0.1023120
  C        1.3401060    -0.6058050     0.1026400
  H       -0.0025938     0.0402487    -1.4740329
  H       -1.0129100     1.7863450    -0.2498420
  H        0.6317380     1.9558270    -0.2386540
  H       -0.1534110     1.4166430     1.1149090
  H       -1.1128870    -1.8838160    -0.2761720
  H       -1.2094360    -0.9021000     1.1949220
  H       -2.1281500    -0.4352600    -0.2575270
  H        1.4683160    -1.6231340    -0.2733960
  H        1.3705130    -0.6385200     1.1952170
  H        2.1747220    -0.0011550    -0.2602410
units angstrom
no_reorient  #important for SAPT in psi4, default
symmetry c1  #important for SAPT in psi4, default
}

set PROPERTIES_ORIGIN ["COM"]
properties('MP2/aug-cc-pvtz', properties = ['dipole'])
--------------------------------------------------------------------------

    Molecular point group: c1
  Charge       = 1
  Multiplicity = 1
  Basis Set: AUG-CC-PVTZ
    Blend: AUG-CC-PVTZ
  Basis Set: (AUG-CC-PVTZ AUX)
    Blend: AUG-CC-PVTZ-JKFIT

    Orbital Energies [Eh]
    ---------------------

    Doubly Occupied:

       1A    -15.887278     2A    -11.480961     3A    -11.398294
       4A    -11.398261     5A     -1.507629     6A     -1.247956
       7A     -1.126978     8A     -1.019350     9A     -0.966460
      10A     -0.949033    11A     -0.840167    12A     -0.794711
      13A     -0.741182    14A     -0.717219    15A     -0.715565
      16A     -0.679891    17A     -0.678639

  @DF-RHF Final Energy:  -173.72516141180688

   => Energetics <=

    Nuclear Repulsion Energy =            143.9273904282336218
    One-Electron Energy =                -511.0059520330364649
    Two-Electron Energy =                 193.3534001929959913
    Total Energy =                       -173.7251614118068801
  Basis Set: (AUG-CC-PVTZ AUX)
    Blend: AUG-CC-PVTZ-RI
    Molecular point group: c1

    Geometry (in Angstrom), charge = 1, multiplicity = 1:

       Center              X                  Y                   Z               Mass
    ------------   -----------------  -----------------  -----------------  -----------------
         N           -0.141118614024     1.368552485176     0.057834931618    14.003074004430
         C            0.008790985976    -0.077417114824    -0.367734268382    12.000000000000
         C           -1.188118014024    -0.872030114824     0.121814731618    12.000000000000
         C            1.341040985976    -0.615487114824     0.122142731618    12.000000000000
         H           -0.001658814024     0.030566585176    -1.454530168382     1.007825032230
         H           -1.011975014024     1.776662885176    -0.230339268382     1.007825032230
         H            0.632672985976     1.946144885176    -0.219151268382     1.007825032230
         H           -0.152476014024     1.406960885176     1.134411731618     1.007825032230
         H           -1.111952014024    -1.893498114824    -0.256669268382     1.007825032230
         H           -1.208501014024    -0.911782114824     1.214424731618     1.007825032230
         H           -2.127215014024    -0.444942114824    -0.238024268382     1.007825032230
         H            1.469250985976    -1.632816114824    -0.253893268382     1.007825032230
         H            1.371447985976    -0.648202114824     1.214719731618     1.007825032230
         H            2.175656985976    -0.010837114824    -0.240738268382     1.007825032230

  Basis Set: AUG-CC-PVTZ
    Blend: AUG-CC-PVTZ
  Basis Set: (AUG-CC-PVTZ AUX)
    Blend: AUG-CC-PVTZ-JKFIT
	 Reference Energy          =    -173.7251614118068801 [Eh]
	 Singles Energy            =      -0.0000000000000000 [Eh]
	 Same-Spin Energy          =      -0.1759465882759029 [Eh]
	 Opposite-Spin Energy      =      -0.6571619154426902 [Eh]
	 Correlation Energy        =      -0.8331085037185931 [Eh]
	 Total Energy              =    -174.5582699155254716 [Eh]

	 ================> DF-SCS-MP2 Energies <==================
	-----------------------------------------------------------
	 SCS Same-Spin Scale       =       0.3333333333333333 [-]
	 SCS Opposite-Spin Scale   =       1.2000000000000000 [-]
	 SCS Same-Spin Energy      =      -0.0586488627586343 [Eh]
	 SCS Opposite-Spin Energy  =      -0.7885942985312282 [Eh]
	 SCS Correlation Energy    =      -0.8472431612898625 [Eh]
	 SCS Total Energy          =    -174.5724045730967475 [Eh]
	-----------------------------------------------------------

  Dipole Moment: [D]
     X:    -0.4193      Y:     4.0518      Z:     0.2903     Total:     4.0837

*** Psi4 exiting successfully. Buy a developer a beer!
