                               Psi4 1.4a3.dev225

  ==> Input File <==

--------------------------------------------------------------------------
#psi4
#
memory 32 gb

molecule  {
1 1
  N        0.0000020     1.3752550     0.0881560
  C       -0.0000001    -0.1243819    -0.4067774
  C       -1.2745200    -0.7353630     0.1032760
  C        1.2745180    -0.7353670     0.1032760
  H        0.0000000    -0.0031690    -1.4821840
  H       -0.8310820     1.8851260    -0.2406460
  H        0.8310870     1.8851240    -0.2406470
  H        0.0000020     1.4165200     1.1165880
  H       -1.3097880    -1.7608000    -0.2705820
  H       -1.2994510    -0.7789970     1.1965910
  H       -2.1709030    -0.2224960    -0.2574420
  H        1.3097830    -1.7608040    -0.2705810
  H        1.2994490    -0.7790000     1.1965910
  H        2.1709020    -0.2225020    -0.2574420
units angstrom
no_reorient  #important for SAPT in psi4, default
symmetry c1  #important for SAPT in psi4, default
}

set PROPERTIES_ORIGIN ["COM"]
properties('MP2/aug-cc-pvtz', properties = ['dipole'])
--------------------------------------------------------------------------

    Molecular point group: c1
  Charge       = 1
  Multiplicity = 1
  Basis Set: AUG-CC-PVTZ
    Blend: AUG-CC-PVTZ
  Basis Set: (AUG-CC-PVTZ AUX)
    Blend: AUG-CC-PVTZ-JKFIT

    Orbital Energies [Eh]
    ---------------------

    Doubly Occupied:

       1A    -15.878357     2A    -11.486737     3A    -11.398670
       4A    -11.398657     5A     -1.488967     6A     -1.253274
       7A     -1.130372     8A     -1.012651     9A     -0.946669
      10A     -0.940510    11A     -0.842416    12A     -0.801741
      13A     -0.745512    14A     -0.716560    15A     -0.704952
      16A     -0.688039    17A     -0.685976

  @DF-RHF Final Energy:  -173.72712382397614

   => Energetics <=

    Nuclear Repulsion Energy =            143.4890714645849528
    One-Electron Energy =                -510.1922693219163421
    Two-Electron Energy =                 192.9760740333552178
    Total Energy =                       -173.7271238239761431
  Basis Set: (AUG-CC-PVTZ AUX)
    Blend: AUG-CC-PVTZ-RI
    Molecular point group: c1

    Geometry (in Angstrom), charge = 1, multiplicity = 1:

       Center              X                  Y                   Z               Mass
    ------------   -----------------  -----------------  -----------------  -----------------
         N            0.000001970069     1.379036733890     0.099376918062    14.003074004430
         C           -0.000000129931    -0.120600166110    -0.395556481938    12.000000000000
         C           -1.274520029931    -0.731581266110     0.114496918062    12.000000000000
         C            1.274517970069    -0.731585266110     0.114496918062    12.000000000000
         H           -0.000000029931     0.000612733890    -1.470963081938     1.007825032230
         H           -0.831082029931     1.888907733890    -0.229425081938     1.007825032230
         H            0.831086970069     1.888905733890    -0.229426081938     1.007825032230
         H            0.000001970069     1.420301733890     1.127808918062     1.007825032230
         H           -1.309788029931    -1.757018266110    -0.259361081938     1.007825032230
         H           -1.299451029931    -0.775215266110     1.207811918062     1.007825032230
         H           -2.170903029931    -0.218714266110    -0.246221081938     1.007825032230
         H            1.309782970069    -1.757022266110    -0.259360081938     1.007825032230
         H            1.299448970069    -0.775218266110     1.207811918062     1.007825032230
         H            2.170901970069    -0.218720266110    -0.246221081938     1.007825032230

  Basis Set: AUG-CC-PVTZ
    Blend: AUG-CC-PVTZ
  Basis Set: (AUG-CC-PVTZ AUX)
    Blend: AUG-CC-PVTZ-JKFIT
	 Reference Energy          =    -173.7271238239761431 [Eh]
	 Singles Energy            =      -0.0000000000000000 [Eh]
	 Same-Spin Energy          =      -0.1757665626102404 [Eh]
	 Opposite-Spin Energy      =      -0.6571230221168864 [Eh]
	 Correlation Energy        =      -0.8328895847271268 [Eh]
	 Total Energy              =    -174.5600134087032700 [Eh]

	 ================> DF-SCS-MP2 Energies <==================
	-----------------------------------------------------------
	 SCS Same-Spin Scale       =       0.3333333333333333 [-]
	 SCS Opposite-Spin Scale   =       1.2000000000000000 [-]
	 SCS Same-Spin Energy      =      -0.0585888542034135 [Eh]
	 SCS Opposite-Spin Energy  =      -0.7885476265402637 [Eh]
	 SCS Correlation Energy    =      -0.8471364807436771 [Eh]
	 SCS Total Energy          =    -174.5742603047198145 [Eh]
	-----------------------------------------------------------

  Dipole Moment: [D]
     X:     0.0000      Y:     3.9243      Z:     0.1797     Total:     3.9284

*** Psi4 exiting successfully. Buy a developer a beer!
