                               Psi4 1.3.2 release

  ==> Input File <==

--------------------------------------------------------------------------
#psi4
#
memory 32 gb

molecule  {
1 1
  N       -0.1396058     1.3540935     0.1138307
  C        0.0078560    -0.0677350    -0.3872370
  C       -1.1890530    -0.8623480     0.1023120
  C        1.3401060    -0.6058050     0.1026400
  H        0.0032787    -0.0164753    -1.4782212
  H       -1.0129100     1.7863450    -0.2498420
  H        0.6317380     1.9558270    -0.2386540
  H       -0.1534110     1.4166430     1.1149090
  H       -1.1128870    -1.8838160    -0.2761720
  H       -1.2094360    -0.9021000     1.1949220
  H       -2.1281500    -0.4352600    -0.2575270
  H        1.4683160    -1.6231340    -0.2733960
  H        1.3705130    -0.6385200     1.1952170
  H        2.1747220    -0.0011550    -0.2602410
units angstrom
no_reorient  #important for SAPT in psi4, default
symmetry c1  #important for SAPT in psi4, default
}

set PROPERTIES_ORIGIN ["COM"]
properties('MP2/aug-cc-pvtz', properties = ['dipole'])
--------------------------------------------------------------------------

    Molecular point group: c1
  Charge       = 1
  Multiplicity = 1
  Basis Set: AUG-CC-PVTZ
    Blend: AUG-CC-PVTZ
  Basis Set: (AUG-CC-PVTZ AUX)
    Blend: AUG-CC-PVTZ-JKFIT

    Orbital Energies [Eh]
    ---------------------

    Doubly Occupied:

       1A    -15.888523     2A    -11.480657     3A    -11.396753
       4A    -11.396708     5A     -1.508061     6A     -1.247708
       7A     -1.125899     8A     -1.021426     9A     -0.962868
      10A     -0.942893    11A     -0.855483    12A     -0.793807
      13A     -0.739168    14A     -0.715788    15A     -0.713365
      16A     -0.678890    17A     -0.677460

  @DF-RHF Final Energy:  -173.72791893851712

   => Energetics <=

    Nuclear Repulsion Energy =            144.0990292768172196
    One-Electron Energy =                -511.3629799775118272
    Two-Electron Energy =                 193.5360317621775152
    Total Energy =                       -173.7279189385171208
  Basis Set: (AUG-CC-PVTZ AUX)
    Blend: AUG-CC-PVTZ-RI
    Molecular point group: c1

    Geometry (in Angstrom), charge = 1, multiplicity = 1:

       Center              X                  Y                   Z               Mass
    ------------   -----------------  -----------------  -----------------  -----------------
         N           -0.139339826858     1.350989427212     0.115807353074    14.003074004430
         C            0.008121973142    -0.070839072788    -0.385260346926    12.000000000000
         C           -1.188787026858    -0.865452072788     0.104288653074    12.000000000000
         C            1.340371973142    -0.608909072788     0.104616653074    12.000000000000
         H            0.003544673142    -0.019579372788    -1.476244546926     1.007825032230
         H           -1.012644026858     1.783240927212    -0.247865346926     1.007825032230
         H            0.632003973142     1.952722927212    -0.236677346926     1.007825032230
         H           -0.153145026858     1.413538927212     1.116885653074     1.007825032230
         H           -1.112621026858    -1.886920072788    -0.274195346926     1.007825032230
         H           -1.209170026858    -0.905204072788     1.196898653074     1.007825032230
         H           -2.127884026858    -0.438364072788    -0.255550346926     1.007825032230
         H            1.468581973142    -1.626238072788    -0.271419346926     1.007825032230
         H            1.370778973142    -0.641624072788     1.197193653074     1.007825032230
         H            2.174987973142    -0.004259072788    -0.258264346926     1.007825032230

  Basis Set: AUG-CC-PVTZ
    Blend: AUG-CC-PVTZ
  Basis Set: (AUG-CC-PVTZ AUX)
    Blend: AUG-CC-PVTZ-JKFIT
	 Reference Energy          =    -173.7279189385171208 [Eh]
	 Singles Energy            =      -0.0000000000000000 [Eh]
	 Same-Spin Energy          =      -0.1758689717238935 [Eh]
	 Opposite-Spin Energy      =      -0.6569625741837469 [Eh]
	 Correlation Energy        =      -0.8328315459076405 [Eh]
	 Total Energy              =    -174.5607504844247728 [Eh]

	 ================> DF-SCS-MP2 Energies <==================
	-----------------------------------------------------------
	 SCS Same-Spin Scale       =       0.3333333333333333 [-]
	 SCS Opposite-Spin Scale   =       1.2000000000000000 [-]
	 SCS Same-Spin Energy      =      -0.0586229905746312 [Eh]
	 SCS Opposite-Spin Energy  =      -0.7883550890204963 [Eh]
	 SCS Correlation Energy    =      -0.8469780795951275 [Eh]
	 SCS Total Energy          =    -174.5748970181122388 [Eh]
	-----------------------------------------------------------

  Dipole Moment: [D]
     X:    -0.4269      Y:     4.1236      Z:     0.1523     Total:     4.1484

*** Psi4 exiting successfully. Buy a developer a beer!
