                               Psi4 1.3.2 release

  ==> Input File <==

--------------------------------------------------------------------------
#psi4
#
memory 32 gb

molecule  {
1 1
  N       -0.1404670     1.3625770     0.0888070
  C        0.0078560    -0.0677350    -0.3872370
  C       -1.1968650    -0.8656041     0.0772105
  C        1.3401060    -0.6058050     0.1026400
  H       -0.0147745    -0.0077524    -1.4775512
  H       -1.0129100     1.7863450    -0.2498420
  H        0.6317380     1.9558270    -0.2386540
  H       -0.1534110     1.4166430     1.1149090
  H       -1.1128870    -1.8838160    -0.2761720
  H       -1.2094360    -0.9021000     1.1949220
  H       -2.1281500    -0.4352600    -0.2575270
  H        1.4683160    -1.6231340    -0.2733960
  H        1.3705130    -0.6385200     1.1952170
  H        2.1747220    -0.0011550    -0.2602410
units angstrom
no_reorient  #important for SAPT in psi4, default
symmetry c1  #important for SAPT in psi4, default
}

set PROPERTIES_ORIGIN ["COM"]
properties('MP2/aug-cc-pvtz', properties = ['dipole'])
--------------------------------------------------------------------------

    Molecular point group: c1
  Charge       = 1
  Multiplicity = 1
  Basis Set: AUG-CC-PVTZ
    Blend: AUG-CC-PVTZ
  Basis Set: (AUG-CC-PVTZ AUX)
    Blend: AUG-CC-PVTZ-JKFIT

    Orbital Energies [Eh]
    ---------------------

    Doubly Occupied:

       1A    -15.888634     2A    -11.480557     3A    -11.397570
       4A    -11.397238     5A     -1.507887     6A     -1.247662
       7A     -1.126715     8A     -1.019062     9A     -0.959606
      10A     -0.951233    11A     -0.850546    12A     -0.795374
      13A     -0.739301    14A     -0.716871    15A     -0.715014
      16A     -0.681115    17A     -0.673903

  @DF-RHF Final Energy:  -173.72830402924427

   => Energetics <=

    Nuclear Repulsion Energy =            143.9817493371488695
    One-Electron Energy =                -511.1235254743231167
    Two-Electron Energy =                 193.4134721079299766
    Total Energy =                       -173.7283040292442706
  Basis Set: (AUG-CC-PVTZ AUX)
    Blend: AUG-CC-PVTZ-RI
    Molecular point group: c1

    Geometry (in Angstrom), charge = 1, multiplicity = 1:

       Center              X                  Y                   Z               Mass
    ------------   -----------------  -----------------  -----------------  -----------------
         N           -0.138137192287     1.357999706768     0.101618159262    14.003074004430
         C            0.010185807713    -0.072312293232    -0.374425840738    12.000000000000
         C           -1.194535192287    -0.870181393232     0.090021659262    12.000000000000
         C            1.342435807713    -0.610382293232     0.115451159262    12.000000000000
         H           -0.012444692287    -0.012329693232    -1.464740040738     1.007825032230
         H           -1.010580192287     1.781767706768    -0.237030840738     1.007825032230
         H            0.634067807713     1.951249706768    -0.225842840738     1.007825032230
         H           -0.151081192287     1.412065706768     1.127720159262     1.007825032230
         H           -1.110557192287    -1.888393293232    -0.263360840738     1.007825032230
         H           -1.207106192287    -0.906677293232     1.207733159262     1.007825032230
         H           -2.125820192287    -0.439837293232    -0.244715840738     1.007825032230
         H            1.470645807713    -1.627711293232    -0.260584840738     1.007825032230
         H            1.372842807713    -0.643097293232     1.208028159262     1.007825032230
         H            2.177051807713    -0.005732293232    -0.247429840738     1.007825032230

  Basis Set: AUG-CC-PVTZ
    Blend: AUG-CC-PVTZ
  Basis Set: (AUG-CC-PVTZ AUX)
    Blend: AUG-CC-PVTZ-JKFIT
	 Reference Energy          =    -173.7283040292442706 [Eh]
	 Singles Energy            =      -0.0000000000000000 [Eh]
	 Same-Spin Energy          =      -0.1758370779480012 [Eh]
	 Opposite-Spin Energy      =      -0.6568954334416451 [Eh]
	 Correlation Energy        =      -0.8327325113896463 [Eh]
	 Total Energy              =    -174.5610365406339213 [Eh]

	 ================> DF-SCS-MP2 Energies <==================
	-----------------------------------------------------------
	 SCS Same-Spin Scale       =       0.3333333333333333 [-]
	 SCS Opposite-Spin Scale   =       1.2000000000000000 [-]
	 SCS Same-Spin Energy      =      -0.0586123593160004 [Eh]
	 SCS Opposite-Spin Energy  =      -0.7882745201299741 [Eh]
	 SCS Correlation Energy    =      -0.8468868794459745 [Eh]
	 SCS Total Energy          =    -174.5751909086902458 [Eh]
	-----------------------------------------------------------

  Dipole Moment: [D]
     X:    -0.4197      Y:     4.1105      Z:     0.2151     Total:     4.1375

*** Psi4 exiting successfully. Buy a developer a beer!
