                               Psi4 1.4a3.dev225

  ==> Input File <==

--------------------------------------------------------------------------
#psi4
#
memory 32 gb

molecule  {
1 1
  N        0.0000020     1.3752550     0.0881560
  C        0.0000000    -0.0769010    -0.3911070
  C       -1.2577208    -0.7266840     0.0967597
  C        1.2745180    -0.7353670     0.1032760
  H        0.0000000    -0.0031690    -1.4821840
  H       -0.8310820     1.8851260    -0.2406460
  H        0.8310870     1.8851240    -0.2406470
  H        0.0000020     1.4165200     1.1165880
  H       -1.3097880    -1.7608000    -0.2705820
  H       -1.2994510    -0.7789970     1.1965910
  H       -2.1709030    -0.2224960    -0.2574420
  H        1.3097830    -1.7608040    -0.2705810
  H        1.2994490    -0.7790000     1.1965910
  H        2.1709020    -0.2225020    -0.2574420
units angstrom
no_reorient  #important for SAPT in psi4, default
symmetry c1  #important for SAPT in psi4, default
}

set PROPERTIES_ORIGIN ["COM"]
properties('MP2/aug-cc-pvtz', properties = ['dipole'])
--------------------------------------------------------------------------

    Molecular point group: c1
  Charge       = 1
  Multiplicity = 1
  Basis Set: AUG-CC-PVTZ
    Blend: AUG-CC-PVTZ
  Basis Set: (AUG-CC-PVTZ AUX)
    Blend: AUG-CC-PVTZ-JKFIT

    Orbital Energies [Eh]
    ---------------------

    Doubly Occupied:

       1A    -15.886666     2A    -11.482462     3A    -11.398314
       4A    -11.397903     5A     -1.503264     6A     -1.250047
       7A     -1.126608     8A     -1.016690     9A     -0.956509
      10A     -0.949044    11A     -0.848214    12A     -0.796477
      13A     -0.741703    14A     -0.714191    15A     -0.709686
      16A     -0.683133    17A     -0.677061

  @DF-RHF Final Energy:  -173.72827674505930

   => Energetics <=

    Nuclear Repulsion Energy =            143.9687035591630888
    One-Electron Energy =                -511.1180179694520689
    Two-Electron Energy =                 193.4210376652296759
    Total Energy =                       -173.7282767450593042
  Basis Set: (AUG-CC-PVTZ AUX)
    Blend: AUG-CC-PVTZ-RI
    Molecular point group: c1

    Geometry (in Angstrom), charge = 1, multiplicity = 1:

       Center              X                  Y                   Z               Mass
    ------------   -----------------  -----------------  -----------------  -----------------
         N           -0.003353342123     1.367819957171     0.097548576206    14.003074004430
         C           -0.003355342123    -0.084336042829    -0.381714423794    12.000000000000
         C           -1.261076142123    -0.734119042829     0.106152276206    12.000000000000
         C            1.271162657877    -0.742802042829     0.112668576206    12.000000000000
         H           -0.003355342123    -0.010604042829    -1.472791423794     1.007825032230
         H           -0.834437342123     1.877690957171    -0.231253423794     1.007825032230
         H            0.827731657877     1.877688957171    -0.231254423794     1.007825032230
         H           -0.003353342123     1.409084957171     1.125980576206     1.007825032230
         H           -1.313143342123    -1.768235042829    -0.261189423794     1.007825032230
         H           -1.302806342123    -0.786432042829     1.205983576206     1.007825032230
         H           -2.174258342123    -0.229931042829    -0.248049423794     1.007825032230
         H            1.306427657877    -1.768239042829    -0.261188423794     1.007825032230
         H            1.296093657877    -0.786435042829     1.205983576206     1.007825032230
         H            2.167546657877    -0.229937042829    -0.248049423794     1.007825032230

  Basis Set: AUG-CC-PVTZ
    Blend: AUG-CC-PVTZ
  Basis Set: (AUG-CC-PVTZ AUX)
    Blend: AUG-CC-PVTZ-JKFIT
	 Reference Energy          =    -173.7282767450593042 [Eh]
	 Singles Energy            =      -0.0000000000000000 [Eh]
	 Same-Spin Energy          =      -0.1759795368699414 [Eh]
	 Opposite-Spin Energy      =      -0.6571705498679340 [Eh]
	 Correlation Energy        =      -0.8331500867378754 [Eh]
	 Total Energy              =    -174.5614268317971778 [Eh]

	 ================> DF-SCS-MP2 Energies <==================
	-----------------------------------------------------------
	 SCS Same-Spin Scale       =       0.3333333333333333 [-]
	 SCS Opposite-Spin Scale   =       1.2000000000000000 [-]
	 SCS Same-Spin Energy      =      -0.0586598456233138 [Eh]
	 SCS Opposite-Spin Energy  =      -0.7886046598415207 [Eh]
	 SCS Correlation Energy    =      -0.8472645054648346 [Eh]
	 SCS Total Energy          =    -174.5755412505241395 [Eh]
	-----------------------------------------------------------

  Dipole Moment: [D]
     X:    -0.0186      Y:     4.0507      Z:     0.2042     Total:     4.0559

*** Psi4 exiting successfully. Buy a developer a beer!
