                               Psi4 1.3.2 release

  ==> Input File <==

--------------------------------------------------------------------------
#psi4
#
memory 32 gb

molecule  {
1 1
  N       -0.1632770     1.3560803     0.1004859
  C        0.0078560    -0.0677350    -0.3872370
  C       -1.1985562    -0.8404808     0.1138546
  C        1.3401060    -0.6058050     0.1026400
  H        0.0013190     0.0024560    -1.4771570
  H       -1.0129100     1.7863450    -0.2498420
  H        0.6317380     1.9558270    -0.2386540
  H       -0.1534110     1.4166430     1.1149090
  H       -1.1128870    -1.8838160    -0.2761720
  H       -1.2094360    -0.9021000     1.1949220
  H       -2.1281500    -0.4352600    -0.2575270
  H        1.4683160    -1.6231340    -0.2733960
  H        1.3705130    -0.6385200     1.1952170
  H        2.1747220    -0.0011550    -0.2602410
units angstrom
no_reorient  #important for SAPT in psi4, default
symmetry c1  #important for SAPT in psi4, default
}

set PROPERTIES_ORIGIN ["COM"]
properties('MP2/aug-cc-pvtz', properties = ['dipole'])
--------------------------------------------------------------------------

    Molecular point group: c1
  Charge       = 1
  Multiplicity = 1
  Basis Set: AUG-CC-PVTZ
    Blend: AUG-CC-PVTZ
  Basis Set: (AUG-CC-PVTZ AUX)
    Blend: AUG-CC-PVTZ-JKFIT

    Orbital Energies [Eh]
    ---------------------

    Doubly Occupied:

       1A    -15.887265     2A    -11.481019     3A    -11.398052
       4A    -11.396406     5A     -1.507634     6A     -1.247354
       7A     -1.126821     8A     -1.020648     9A     -0.964344
      10A     -0.942513    11A     -0.851793    12A     -0.796504
      13A     -0.741868    14A     -0.716458    15A     -0.704063
      16A     -0.682709    17A     -0.679951

  @DF-RHF Final Energy:  -173.72720999793580

   => Energetics <=

    Nuclear Repulsion Energy =            144.1126543372350568
    One-Electron Energy =                -511.3889243440948462
    Two-Electron Energy =                 193.5490600089240161
    Total Energy =                       -173.7272099979358018
  Basis Set: (AUG-CC-PVTZ AUX)
    Blend: AUG-CC-PVTZ-RI
    Molecular point group: c1

    Geometry (in Angstrom), charge = 1, multiplicity = 1:

       Center              X                  Y                   Z               Mass
    ------------   -----------------  -----------------  -----------------  -----------------
         N           -0.155563071855     1.347828085939     0.103249561269    14.003074004430
         C            0.015569928145    -0.075987214061    -0.384473338731    12.000000000000
         C           -1.190842271855    -0.848733014061     0.116618261269    12.000000000000
         C            1.347819928145    -0.614057214061     0.105403661269    12.000000000000
         H            0.009032928145    -0.005796214061    -1.474393338731     1.007825032230
         H           -1.005196071855     1.778092785939    -0.247078338731     1.007825032230
         H            0.639451928145     1.947574785939    -0.235890338731     1.007825032230
         H           -0.145697071855     1.408390785939     1.117672661269     1.007825032230
         H           -1.105173071855    -1.892068214061    -0.273408338731     1.007825032230
         H           -1.201722071855    -0.910352214061     1.197685661269     1.007825032230
         H           -2.120436071855    -0.443512214061    -0.254763338731     1.007825032230
         H            1.476029928145    -1.631386214061    -0.270632338731     1.007825032230
         H            1.378226928145    -0.646772214061     1.197980661269     1.007825032230
         H            2.182435928145    -0.009407214061    -0.257477338731     1.007825032230

  Basis Set: AUG-CC-PVTZ
    Blend: AUG-CC-PVTZ
  Basis Set: (AUG-CC-PVTZ AUX)
    Blend: AUG-CC-PVTZ-JKFIT
	 Reference Energy          =    -173.7272099979358018 [Eh]
	 Singles Energy            =      -0.0000000000000000 [Eh]
	 Same-Spin Energy          =      -0.1759313337626212 [Eh]
	 Opposite-Spin Energy      =      -0.6570496982534051 [Eh]
	 Correlation Energy        =      -0.8329810320160264 [Eh]
	 Total Energy              =    -174.5601910299518238 [Eh]

	 ================> DF-SCS-MP2 Energies <==================
	-----------------------------------------------------------
	 SCS Same-Spin Scale       =       0.3333333333333333 [-]
	 SCS Opposite-Spin Scale   =       1.2000000000000000 [-]
	 SCS Same-Spin Energy      =      -0.0586437779208737 [Eh]
	 SCS Opposite-Spin Energy  =      -0.7884596379040861 [Eh]
	 SCS Correlation Energy    =      -0.8471034158249598 [Eh]
	 SCS Total Energy          =    -174.5743134137607626 [Eh]
	-----------------------------------------------------------

  Dipole Moment: [D]
     X:    -0.3631      Y:     4.0822      Z:     0.1672     Total:     4.1017

*** Psi4 exiting successfully. Buy a developer a beer!
