                               Psi4 1.3.2 release

  ==> Input File <==

--------------------------------------------------------------------------
#psi4
#
memory 32 gb

molecule  {
1 1
  N       -0.1377490     1.3358298     0.1634127
  C        0.0078560    -0.0677350    -0.3872370
  C       -1.1890530    -0.8623480     0.1023120
  C        1.3401060    -0.6058050     0.1026400
  H        0.0072016    -0.0543790    -1.4793525
  H       -1.0129100     1.7863450    -0.2498420
  H        0.6317380     1.9558270    -0.2386540
  H       -0.1534110     1.4166430     1.1149090
  H       -1.1128870    -1.8838160    -0.2761720
  H       -1.2094360    -0.9021000     1.1949220
  H       -2.1281500    -0.4352600    -0.2575270
  H        1.4683160    -1.6231340    -0.2733960
  H        1.3705130    -0.6385200     1.1952170
  H        2.1747220    -0.0011550    -0.2602410
units angstrom
no_reorient  #important for SAPT in psi4, default
symmetry c1  #important for SAPT in psi4, default
}

set PROPERTIES_ORIGIN ["COM"]
properties('MP2/aug-cc-pvtz', properties = ['dipole'])
--------------------------------------------------------------------------

    Molecular point group: c1
  Charge       = 1
  Multiplicity = 1
  Basis Set: AUG-CC-PVTZ
    Blend: AUG-CC-PVTZ
  Basis Set: (AUG-CC-PVTZ AUX)
    Blend: AUG-CC-PVTZ-JKFIT

    Orbital Energies [Eh]
    ---------------------

    Doubly Occupied:

       1A    -15.889347     2A    -11.480879     3A    -11.395794
       4A    -11.395744     5A     -1.509367     6A     -1.248315
       7A     -1.125325     8A     -1.027890     9A     -0.966459
      10A     -0.926800    11A     -0.866068    12A     -0.791901
      13A     -0.737794    14A     -0.714690    15A     -0.712054
      16A     -0.677052    17A     -0.676703

  @DF-RHF Final Energy:  -173.71841652525208

   => Energetics <=

    Nuclear Repulsion Energy =            144.2319795838893981
    One-Electron Energy =                -511.6164306190738671
    Two-Electron Energy =                 193.6660345099324161
    Total Energy =                       -173.7184165252520813
  Basis Set: (AUG-CC-PVTZ AUX)
    Blend: AUG-CC-PVTZ-RI
    Molecular point group: c1

    Geometry (in Angstrom), charge = 1, multiplicity = 1:

       Center              X                  Y                   Z               Mass
    ------------   -----------------  -----------------  -----------------  -----------------
         N           -0.137981592843     1.337618233222     0.153852319385    14.003074004430
         C            0.007623407157    -0.065946566778    -0.396797380615    12.000000000000
         C           -1.189285592843    -0.860559566778     0.092751619385    12.000000000000
         C            1.339873407157    -0.604016566778     0.093079619385    12.000000000000
         H            0.006969007157    -0.052590566778    -1.488912880615     1.007825032230
         H           -1.013142592843     1.788133433222    -0.259402380615     1.007825032230
         H            0.631505407157     1.957615433222    -0.248214380615     1.007825032230
         H           -0.153643592843     1.418431433222     1.105348619385     1.007825032230
         H           -1.113119592843    -1.882027566778    -0.285732380615     1.007825032230
         H           -1.209668592843    -0.900311566778     1.185361619385     1.007825032230
         H           -2.128382592843    -0.433471566778    -0.267087380615     1.007825032230
         H            1.468083407157    -1.621345566778    -0.282956380615     1.007825032230
         H            1.370280407157    -0.636731566778     1.185656619385     1.007825032230
         H            2.174489407157     0.000633433222    -0.269801380615     1.007825032230

  Basis Set: AUG-CC-PVTZ
    Blend: AUG-CC-PVTZ
  Basis Set: (AUG-CC-PVTZ AUX)
    Blend: AUG-CC-PVTZ-JKFIT
	 Reference Energy          =    -173.7184165252520813 [Eh]
	 Singles Energy            =      -0.0000000000000000 [Eh]
	 Same-Spin Energy          =      -0.1760680790982925 [Eh]
	 Opposite-Spin Energy      =      -0.6575048727953461 [Eh]
	 Correlation Energy        =      -0.8335729518936386 [Eh]
	 Total Energy              =    -174.5519894771457245 [Eh]

	 ================> DF-SCS-MP2 Energies <==================
	-----------------------------------------------------------
	 SCS Same-Spin Scale       =       0.3333333333333333 [-]
	 SCS Opposite-Spin Scale   =       1.2000000000000000 [-]
	 SCS Same-Spin Energy      =      -0.0586893596994308 [Eh]
	 SCS Opposite-Spin Energy  =      -0.7890058473544153 [Eh]
	 SCS Correlation Energy    =      -0.8476952070538460 [Eh]
	 SCS Total Energy          =    -174.5661117323059273 [Eh]
	-----------------------------------------------------------

  Dipole Moment: [D]
     X:    -0.4315      Y:     4.1684      Z:     0.0540     Total:     4.1911

*** Psi4 exiting successfully. Buy a developer a beer!
