                               Psi4 1.4a3.dev225

  ==> Input File <==

--------------------------------------------------------------------------
#psi4
#
memory 32 gb

molecule  {
1 1
  N        0.0000020     1.3752550     0.0881560
  C        0.0000000    -0.0769010    -0.3911070
  C       -1.2745200    -0.7353630     0.1032760
  C        1.2745180    -0.7353670     0.1032760
  H        0.0000000    -0.0045175    -1.4622295
  H       -0.8310820     1.8851260    -0.2406460
  H        0.8310870     1.8851240    -0.2406470
  H        0.0000020     1.4165200     1.1165880
  H       -1.3097880    -1.7608000    -0.2705820
  H       -1.2994510    -0.7789970     1.1965910
  H       -2.1709030    -0.2224960    -0.2574420
  H        1.3097830    -1.7608040    -0.2705810
  H        1.2994490    -0.7790000     1.1965910
  H        2.1709020    -0.2225020    -0.2574420
units angstrom
no_reorient  #important for SAPT in psi4, default
symmetry c1  #important for SAPT in psi4, default
}

set PROPERTIES_ORIGIN ["COM"]
properties('MP2/aug-cc-pvtz', properties = ['dipole'])
--------------------------------------------------------------------------

    Molecular point group: c1
  Charge       = 1
  Multiplicity = 1
  Basis Set: AUG-CC-PVTZ
    Blend: AUG-CC-PVTZ
  Basis Set: (AUG-CC-PVTZ AUX)
    Blend: AUG-CC-PVTZ-JKFIT

    Orbital Energies [Eh]
    ---------------------

    Doubly Occupied:

       1A    -15.886578     2A    -11.480721     3A    -11.397724
       4A    -11.397711     5A     -1.502887     6A     -1.247998
       7A     -1.126335     8A     -1.019298     9A     -0.956334
      10A     -0.949011    11A     -0.849030    12A     -0.795703
      13A     -0.740654    14A     -0.715310    15A     -0.711606
      16A     -0.681988    17A     -0.680147

  @DF-RHF Final Energy:  -173.72903270238919

   => Energetics <=

    Nuclear Repulsion Energy =            143.8011603640535725
    One-Electron Energy =                -510.7823127962661829
    Two-Electron Energy =                 193.2521197298234483
    Total Energy =                       -173.7290327023891905
  Basis Set: (AUG-CC-PVTZ AUX)
    Blend: AUG-CC-PVTZ-RI
    Molecular point group: c1

    Geometry (in Angstrom), charge = 1, multiplicity = 1:

       Center              X                  Y                   Z               Mass
    ------------   -----------------  -----------------  -----------------  -----------------
         N            0.000001950096     1.369576027850     0.095912356537    14.003074004430
         C           -0.000000049904    -0.082579972150    -0.383350643463    12.000000000000
         C           -1.274520049904    -0.741041972150     0.111032356537    12.000000000000
         C            1.274517950096    -0.741045972150     0.111032356537    12.000000000000
         H           -0.000000049904    -0.010196472150    -1.454473143463     1.007825032230
         H           -0.831082049904     1.879447027850    -0.232889643463     1.007825032230
         H            0.831086950096     1.879445027850    -0.232890643463     1.007825032230
         H            0.000001950096     1.410841027850     1.124344356537     1.007825032230
         H           -1.309788049904    -1.766478972150    -0.262825643463     1.007825032230
         H           -1.299451049904    -0.784675972150     1.204347356537     1.007825032230
         H           -2.170903049904    -0.228174972150    -0.249685643463     1.007825032230
         H            1.309782950096    -1.766482972150    -0.262824643463     1.007825032230
         H            1.299448950096    -0.784678972150     1.204347356537     1.007825032230
         H            2.170901950096    -0.228180972150    -0.249685643463     1.007825032230

  Basis Set: AUG-CC-PVTZ
    Blend: AUG-CC-PVTZ
  Basis Set: (AUG-CC-PVTZ AUX)
    Blend: AUG-CC-PVTZ-JKFIT
	 Reference Energy          =    -173.7290327023891905 [Eh]
	 Singles Energy            =      -0.0000000000000000 [Eh]
	 Same-Spin Energy          =      -0.1757625656805529 [Eh]
	 Opposite-Spin Energy      =      -0.6568591177329639 [Eh]
	 Correlation Energy        =      -0.8326216834135167 [Eh]
	 Total Energy              =    -174.5616543858027114 [Eh]

	 ================> DF-SCS-MP2 Energies <==================
	-----------------------------------------------------------
	 SCS Same-Spin Scale       =       0.3333333333333333 [-]
	 SCS Opposite-Spin Scale   =       1.2000000000000000 [-]
	 SCS Same-Spin Energy      =      -0.0585875218935176 [Eh]
	 SCS Opposite-Spin Energy  =      -0.7882309412795566 [Eh]
	 SCS Correlation Energy    =      -0.8468184631730742 [Eh]
	 SCS Total Energy          =    -174.5758511655622556 [Eh]
	-----------------------------------------------------------

  Dipole Moment: [D]
     X:     0.0000      Y:     4.0697      Z:     0.1975     Total:     4.0745

*** Psi4 exiting successfully. Buy a developer a beer!
