                               Psi4 1.3.2 release

  ==> Input File <==

--------------------------------------------------------------------------
#psi4
#
memory 32 gb

molecule  {
1 1
  N       -0.1176118     1.3686380     0.0769831
  C        0.0078560    -0.0677350    -0.3872370
  C       -1.1791852    -0.8839732     0.0906203
  C        1.3401060    -0.6058050     0.1026400
  H        0.0013190     0.0024560    -1.4771570
  H       -1.0129100     1.7863450    -0.2498420
  H        0.6317380     1.9558270    -0.2386540
  H       -0.1534110     1.4166430     1.1149090
  H       -1.1128870    -1.8838160    -0.2761720
  H       -1.2094360    -0.9021000     1.1949220
  H       -2.1281500    -0.4352600    -0.2575270
  H        1.4683160    -1.6231340    -0.2733960
  H        1.3705130    -0.6385200     1.1952170
  H        2.1747220    -0.0011550    -0.2602410
units angstrom
no_reorient  #important for SAPT in psi4, default
symmetry c1  #important for SAPT in psi4, default
}

set PROPERTIES_ORIGIN ["COM"]
properties('MP2/aug-cc-pvtz', properties = ['dipole'])
--------------------------------------------------------------------------

    Molecular point group: c1
  Charge       = 1
  Multiplicity = 1
  Basis Set: AUG-CC-PVTZ
    Blend: AUG-CC-PVTZ
  Basis Set: (AUG-CC-PVTZ AUX)
    Blend: AUG-CC-PVTZ-JKFIT

    Orbital Energies [Eh]
    ---------------------

    Doubly Occupied:

       1A    -15.888976     2A    -11.480538     3A    -11.398389
       4A    -11.396418     5A     -1.508094     6A     -1.248208
       7A     -1.125774     8A     -1.019314     9A     -0.964776
      10A     -0.948219    11A     -0.848517    12A     -0.792688
      13A     -0.740040    14A     -0.723902    15A     -0.714062
      16A     -0.677373    17A     -0.674057

  @DF-RHF Final Energy:  -173.72727368150655

   => Energetics <=

    Nuclear Repulsion Energy =            143.9737015841244556
    One-Electron Energy =                -511.1032621023554157
    Two-Electron Energy =                 193.4022868367244143
    Total Energy =                       -173.7272736815065457
  Basis Set: (AUG-CC-PVTZ AUX)
    Blend: AUG-CC-PVTZ-RI
    Molecular point group: c1

    Geometry (in Angstrom), charge = 1, multiplicity = 1:

       Center              X                  Y                   Z               Mass
    ------------   -----------------  -----------------  -----------------  -----------------
         N           -0.124409955016     1.366145685566     0.089865097616    14.003074004430
         C            0.001057844984    -0.070227314434    -0.374355002384    12.000000000000
         C           -1.185983355016    -0.886465514434     0.103502297616    12.000000000000
         C            1.333307844984    -0.608297314434     0.115521997616    12.000000000000
         H           -0.005479155016    -0.000036314434    -1.464275002384     1.007825032230
         H           -1.019708155016     1.783852685566    -0.236960002384     1.007825032230
         H            0.624939844984     1.953334685566    -0.225772002384     1.007825032230
         H           -0.160209155016     1.414150685566     1.127790997616     1.007825032230
         H           -1.119685155016    -1.886308314434    -0.263290002384     1.007825032230
         H           -1.216234155016    -0.904592314434     1.207803997616     1.007825032230
         H           -2.134948155016    -0.437752314434    -0.244645002384     1.007825032230
         H            1.461517844984    -1.625626314434    -0.260514002384     1.007825032230
         H            1.363714844984    -0.641012314434     1.208098997616     1.007825032230
         H            2.167923844984    -0.003647314434    -0.247359002384     1.007825032230

  Basis Set: AUG-CC-PVTZ
    Blend: AUG-CC-PVTZ
  Basis Set: (AUG-CC-PVTZ AUX)
    Blend: AUG-CC-PVTZ-JKFIT
	 Reference Energy          =    -173.7272736815065457 [Eh]
	 Singles Energy            =      -0.0000000000000000 [Eh]
	 Same-Spin Energy          =      -0.1758373034604669 [Eh]
	 Opposite-Spin Energy      =      -0.6569592335752810 [Eh]
	 Correlation Energy        =      -0.8327965370357480 [Eh]
	 Total Energy              =    -174.5600702185423074 [Eh]

	 ================> DF-SCS-MP2 Energies <==================
	-----------------------------------------------------------
	 SCS Same-Spin Scale       =       0.3333333333333333 [-]
	 SCS Opposite-Spin Scale   =       1.2000000000000000 [-]
	 SCS Same-Spin Energy      =      -0.0586124344868223 [Eh]
	 SCS Opposite-Spin Energy  =      -0.7883510802903372 [Eh]
	 SCS Correlation Energy    =      -0.8469635147771595 [Eh]
	 SCS Total Energy          =    -174.5742371962837183 [Eh]
	-----------------------------------------------------------

  Dipole Moment: [D]
     X:    -0.4859      Y:     4.1174      Z:     0.2327     Total:     4.1525

*** Psi4 exiting successfully. Buy a developer a beer!
