                               Psi4 1.3.2 release

  ==> Input File <==

--------------------------------------------------------------------------
#psi4
#
memory 32 gb

molecule  {
1 1
  N       -0.1427785     1.3854038     0.0128965
  C        0.0078560    -0.0677350    -0.3872370
  C       -1.1890530    -0.8623480     0.1023120
  C        1.3401060    -0.6058050     0.1026400
  H       -0.0045457     0.0590986    -1.4719741
  H       -1.0129100     1.7863450    -0.2498420
  H        0.6317380     1.9558270    -0.2386540
  H       -0.1534110     1.4166430     1.1149090
  H       -1.1128870    -1.8838160    -0.2761720
  H       -1.2094360    -0.9021000     1.1949220
  H       -2.1281500    -0.4352600    -0.2575270
  H        1.4683160    -1.6231340    -0.2733960
  H        1.3705130    -0.6385200     1.1952170
  H        2.1747220    -0.0011550    -0.2602410
units angstrom
no_reorient  #important for SAPT in psi4, default
symmetry c1  #important for SAPT in psi4, default
}

set PROPERTIES_ORIGIN ["COM"]
properties('MP2/aug-cc-pvtz', properties = ['dipole'])
--------------------------------------------------------------------------

    Molecular point group: c1
  Charge       = 1
  Multiplicity = 1
  Basis Set: AUG-CC-PVTZ
    Blend: AUG-CC-PVTZ
  Basis Set: (AUG-CC-PVTZ AUX)
    Blend: AUG-CC-PVTZ-JKFIT

    Orbital Energies [Eh]
    ---------------------

    Doubly Occupied:

       1A    -15.886927     2A    -11.481207     3A    -11.398828
       4A    -11.398799     5A     -1.507794     6A     -1.248231
       7A     -1.127388     8A     -1.020179     9A     -0.973922
      10A     -0.943009    11A     -0.835810    12A     -0.794012
      13A     -0.741825    14A     -0.717655    15A     -0.716378
      16A     -0.679628    17A     -0.679042

  @DF-RHF Final Energy:  -173.72029741760156

   => Energetics <=

    Nuclear Repulsion Energy =            143.8755014887649111
    One-Electron Energy =                -510.8903299716541824
    Two-Electron Energy =                 193.2945310652876856
    Total Energy =                       -173.7202974176015573
  Basis Set: (AUG-CC-PVTZ AUX)
    Blend: AUG-CC-PVTZ-RI
    Molecular point group: c1

    Geometry (in Angstrom), charge = 1, multiplicity = 1:

       Center              X                  Y                   Z               Mass
    ------------   -----------------  -----------------  -----------------  -----------------
         N           -0.141641820700     1.373734574529     0.038292961212    14.003074004430
         C            0.008992679300    -0.079404225471    -0.361840538788    12.000000000000
         C           -1.187916320700    -0.874017225471     0.127708461212    12.000000000000
         C            1.341242679300    -0.617474225471     0.128036461212    12.000000000000
         H           -0.003409020700     0.047429374529    -1.446577638788     1.007825032230
         H           -1.011773320700     1.774675774529    -0.224445538788     1.007825032230
         H            0.632874679300     1.944157774529    -0.213257538788     1.007825032230
         H           -0.152274320700     1.404973774529     1.140305461212     1.007825032230
         H           -1.111750320700    -1.895485225471    -0.250775538788     1.007825032230
         H           -1.208299320700    -0.913769225471     1.220318461212     1.007825032230
         H           -2.127013320700    -0.446929225471    -0.232130538788     1.007825032230
         H            1.469452679300    -1.634803225471    -0.247999538788     1.007825032230
         H            1.371649679300    -0.650189225471     1.220613461212     1.007825032230
         H            2.175858679300    -0.012824225471    -0.234844538788     1.007825032230

  Basis Set: AUG-CC-PVTZ
    Blend: AUG-CC-PVTZ
  Basis Set: (AUG-CC-PVTZ AUX)
    Blend: AUG-CC-PVTZ-JKFIT
	 Reference Energy          =    -173.7202974176015573 [Eh]
	 Singles Energy            =      -0.0000000000000000 [Eh]
	 Same-Spin Energy          =      -0.1760737784120784 [Eh]
	 Opposite-Spin Energy      =      -0.6574887803331350 [Eh]
	 Correlation Energy        =      -0.8335625587452133 [Eh]
	 Total Energy              =    -174.5538599763467573 [Eh]

	 ================> DF-SCS-MP2 Energies <==================
	-----------------------------------------------------------
	 SCS Same-Spin Scale       =       0.3333333333333333 [-]
	 SCS Opposite-Spin Scale   =       1.2000000000000000 [-]
	 SCS Same-Spin Energy      =      -0.0586912594706928 [Eh]
	 SCS Opposite-Spin Energy  =      -0.7889865363997619 [Eh]
	 SCS Correlation Energy    =      -0.8476777958704547 [Eh]
	 SCS Total Energy          =    -174.5679752134720104 [Eh]
	-----------------------------------------------------------

  Dipole Moment: [D]
     X:    -0.4167      Y:     4.0272      Z:     0.3337     Total:     4.0624

*** Psi4 exiting successfully. Buy a developer a beer!
