                               Psi4 1.3.2 release

  ==> Input File <==

--------------------------------------------------------------------------
#psi4
#
memory 32 gb

molecule  {
1 1
  N       -0.1404670     1.3625770     0.0888070
  C        0.0071770    -0.0592328    -0.4122600
  C       -1.1890530    -0.8623480     0.1023120
  C        1.3401060    -0.6058050     0.1026400
  H        0.0013190     0.0024560    -1.4771570
  H       -1.0129100     1.7863450    -0.2498420
  H        0.6317380     1.9558270    -0.2386540
  H       -0.1552066     1.4344527     1.1137912
  H       -1.1128870    -1.8838160    -0.2761720
  H       -1.2094360    -0.9021000     1.1949220
  H       -2.1281500    -0.4352600    -0.2575270
  H        1.4683160    -1.6231340    -0.2733960
  H        1.3705130    -0.6385200     1.1952170
  H        2.1747220    -0.0011550    -0.2602410
units angstrom
no_reorient  #important for SAPT in psi4, default
symmetry c1  #important for SAPT in psi4, default
}

set PROPERTIES_ORIGIN ["COM"]
properties('MP2/aug-cc-pvtz', properties = ['dipole'])
--------------------------------------------------------------------------

    Molecular point group: c1
  Charge       = 1
  Multiplicity = 1
  Basis Set: AUG-CC-PVTZ
    Blend: AUG-CC-PVTZ
  Basis Set: (AUG-CC-PVTZ AUX)
    Blend: AUG-CC-PVTZ-JKFIT

    Orbital Energies [Eh]
    ---------------------

    Doubly Occupied:

       1A    -15.888144     2A    -11.479830     3A    -11.397407
       4A    -11.397358     5A     -1.507538     6A     -1.245205
       7A     -1.123486     8A     -1.023978     9A     -0.956018
      10A     -0.950906    11A     -0.854918    12A     -0.791521
      13A     -0.738976    14A     -0.715141    15A     -0.713520
      16A     -0.685716    17A     -0.672212

  @DF-RHF Final Energy:  -173.72843963739626

   => Energetics <=

    Nuclear Repulsion Energy =            143.8451791144959770
    One-Electron Energy =                -510.8634876791822421
    Two-Electron Energy =                 193.2898689272900015
    Total Energy =                       -173.7284396373962636
  Basis Set: (AUG-CC-PVTZ AUX)
    Blend: AUG-CC-PVTZ-RI
    Molecular point group: c1

    Geometry (in Angstrom), charge = 1, multiplicity = 1:

       Center              X                  Y                   Z               Mass
    ------------   -----------------  -----------------  -----------------  -----------------
         N           -0.139801699231     1.355181244551     0.101614618431    14.003074004430
         C            0.007842300769    -0.066628555449    -0.399452381569    12.000000000000
         C           -1.188387699231    -0.869743755449     0.115119618431    12.000000000000
         C            1.340771300769    -0.613200755449     0.115447618431    12.000000000000
         H            0.001984300769    -0.004939755449    -1.464349381569     1.007825032230
         H           -1.012244699231     1.778949244551    -0.237034381569     1.007825032230
         H            0.632403300769     1.948431244551    -0.225846381569     1.007825032230
         H           -0.154541299231     1.427056944551     1.126598818431     1.007825032230
         H           -1.112221699231    -1.891211755449    -0.263364381569     1.007825032230
         H           -1.208770699231    -0.909495755449     1.207729618431     1.007825032230
         H           -2.127484699231    -0.442655755449    -0.244719381569     1.007825032230
         H            1.468981300769    -1.630529755449    -0.260588381569     1.007825032230
         H            1.371178300769    -0.645915755449     1.208024618431     1.007825032230
         H            2.175387300769    -0.008550755449    -0.247433381569     1.007825032230

  Basis Set: AUG-CC-PVTZ
    Blend: AUG-CC-PVTZ
  Basis Set: (AUG-CC-PVTZ AUX)
    Blend: AUG-CC-PVTZ-JKFIT
	 Reference Energy          =    -173.7284396373962636 [Eh]
	 Singles Energy            =      -0.0000000000000000 [Eh]
	 Same-Spin Energy          =      -0.1756456676924946 [Eh]
	 Opposite-Spin Energy      =      -0.6567291184349786 [Eh]
	 Correlation Energy        =      -0.8323747861274732 [Eh]
	 Total Energy              =    -174.5608144235237376 [Eh]

	 ================> DF-SCS-MP2 Energies <==================
	-----------------------------------------------------------
	 SCS Same-Spin Scale       =       0.3333333333333333 [-]
	 SCS Opposite-Spin Scale   =       1.2000000000000000 [-]
	 SCS Same-Spin Energy      =      -0.0585485558974982 [Eh]
	 SCS Opposite-Spin Energy  =      -0.7880749421219743 [Eh]
	 SCS Correlation Energy    =      -0.8466234980194725 [Eh]
	 SCS Total Energy          =    -174.5750631354157463 [Eh]
	-----------------------------------------------------------

  Dipole Moment: [D]
     X:    -0.4270      Y:     4.1255      Z:     0.2123     Total:     4.1529

*** Psi4 exiting successfully. Buy a developer a beer!
