                               Psi4 1.3.2 release

  ==> Input File <==

--------------------------------------------------------------------------
#psi4
#
memory 32 gb

molecule  {
0 1
  N       -0.1927630    -0.9977240    -0.0000150
  C        1.5548850     0.6585710    -0.0000200
  C        2.3952820    -0.3217336     0.7865343
  C        2.5204490    -0.2332040    -0.7472480
  C        0.1136930     0.3165400    -0.0000200
  C       -0.8720480     1.3127960    -0.0000140
  C       -2.2145020     0.9424750     0.0000090
  C       -1.4919940    -1.3393890    -0.0000040
  C       -2.5359710    -0.4146030     0.0000120
  H        1.7762130     1.7233350    -0.0000520
  H        2.0808840    -1.0925120     1.2420040
  H        3.3438860     0.2425840     1.2704470
  H        3.3439250     0.2425520    -1.2703830
  H        2.0809520    -1.0925710    -1.2419630
  H       -0.5837830     2.3612850    -0.0000220
  H       -2.9953690     1.6993840     0.0000210
  H       -1.6982570    -2.4088260    -0.0000060
  H       -3.5687280    -0.7512850     0.0000410
units angstrom
no_reorient  #important for SAPT in psi4, default
symmetry c1  #important for SAPT in psi4, default
}

set PROPERTIES_ORIGIN ["COM"]
properties('MP2/aug-cc-pvtz', properties = ['dipole'])
--------------------------------------------------------------------------

    Molecular point group: c1
  Charge       = 0
  Multiplicity = 1
  Basis Set: AUG-CC-PVTZ
    Blend: AUG-CC-PVTZ
  Basis Set: (AUG-CC-PVTZ AUX)
    Blend: AUG-CC-PVTZ-JKFIT

    Orbital Energies [Eh]
    ---------------------

    Doubly Occupied:

       1A    -15.558484     2A    -11.281657     3A    -11.275509
       4A    -11.258620     5A    -11.238573     6A    -11.235356
       7A    -11.234910     8A    -11.226696     9A    -11.226104
      10A     -1.255279    11A     -1.138470    12A     -1.082104
      13A     -1.027505    14A     -0.883894    15A     -0.854353
      16A     -0.831125    17A     -0.789275    18A     -0.710770
      19A     -0.669756    20A     -0.654857    21A     -0.623157
      22A     -0.616500    23A     -0.574656    24A     -0.549147
      25A     -0.542062    26A     -0.510791    27A     -0.504457
      28A     -0.440671    29A     -0.422790    30A     -0.401833
      31A     -0.377683    32A     -0.323681

  @DF-RHF Final Energy:  -362.69253089848075

   => Energetics <=

    Nuclear Repulsion Energy =            409.9234039459520886
    One-Electron Energy =               -1302.5904253424403123
    Two-Electron Energy =                 529.9744904980075262
    Total Energy =                       -362.6925308984807543
  Basis Set: (AUG-CC-PVTZ AUX)
    Blend: AUG-CC-PVTZ-RI
    Molecular point group: c1

    Geometry (in Angstrom), charge = 0, multiplicity = 1:

       Center              X                  Y                   Z               Mass
    ------------   -----------------  -----------------  -----------------  -----------------
         N           -0.148652033822    -0.981073793930    -0.003969441899    14.003074004430
         C            1.598995966178     0.675221206070    -0.003974441899    12.000000000000
         C            2.439392966178    -0.305083393930     0.782579858101    12.000000000000
         C            2.564559966178    -0.216553793930    -0.751202441899    12.000000000000
         C            0.157803966178     0.333190206070    -0.003974441899    12.000000000000
         C           -0.827937033822     1.329446206070    -0.003968441899    12.000000000000
         C           -2.170391033822     0.959125206070    -0.003945441899    12.000000000000
         C           -1.447883033822    -1.322738793930    -0.003958441899    12.000000000000
         C           -2.491860033822    -0.397952793930    -0.003942441899    12.000000000000
         H            1.820323966178     1.739985206070    -0.004006441899     1.007825032230
         H            2.124994966178    -1.075861793930     1.238049558101     1.007825032230
         H            3.387996966178     0.259234206070     1.266492558101     1.007825032230
         H            3.388035966178     0.259202206070    -1.274337441899     1.007825032230
         H            2.125062966178    -1.075920793930    -1.245917441899     1.007825032230
         H           -0.539672033822     2.377935206070    -0.003976441899     1.007825032230
         H           -2.951258033822     1.716034206070    -0.003933441899     1.007825032230
         H           -1.654146033822    -2.392175793930    -0.003960441899     1.007825032230
         H           -3.524617033822    -0.734634793930    -0.003913441899     1.007825032230

  Basis Set: AUG-CC-PVTZ
    Blend: AUG-CC-PVTZ
  Basis Set: (AUG-CC-PVTZ AUX)
    Blend: AUG-CC-PVTZ-JKFIT
	 Reference Energy          =    -362.6925308984807543 [Eh]
	 Singles Energy            =      -0.0000000000000000 [Eh]
	 Same-Spin Energy          =      -0.4018804664889190 [Eh]
	 Opposite-Spin Energy      =      -1.2766484051481937 [Eh]
	 Correlation Energy        =      -1.6785288716371127 [Eh]
	 Total Energy              =    -364.3710597701178813 [Eh]

	 ================> DF-SCS-MP2 Energies <==================
	-----------------------------------------------------------
	 SCS Same-Spin Scale       =       0.3333333333333333 [-]
	 SCS Opposite-Spin Scale   =       1.2000000000000000 [-]
	 SCS Same-Spin Energy      =      -0.1339601554963063 [Eh]
	 SCS Opposite-Spin Energy  =      -1.5319780861778323 [Eh]
	 SCS Correlation Energy    =      -1.6659382416741386 [Eh]
	 SCS Total Energy          =    -364.3584691401549094 [Eh]
	-----------------------------------------------------------

  Dipole Moment: [D]
     X:    -1.0485      Y:     1.4347      Z:    -0.0864     Total:     1.7791

*** Psi4 exiting successfully. Buy a developer a beer!
