                               Psi4 1.3.2 release

  ==> Input File <==

--------------------------------------------------------------------------
#psi4
#
memory 32 gb

molecule  {
0 1
  N       -0.3284622    -0.9584909    -0.0000153
  C        1.5548850     0.6585710    -0.0000200
  C        2.5204250    -0.2331670     0.7472870
  C        2.5204490    -0.2332040    -0.7472480
  C        0.1136930     0.3165400    -0.0000200
  C       -0.8720480     1.3127960    -0.0000140
  C       -2.2145020     0.9424750     0.0000090
  C       -1.4919940    -1.3393890    -0.0000040
  C       -2.5359710    -0.4146030     0.0000120
  H        1.7762130     1.7233350    -0.0000520
  H        2.0808840    -1.0925120     1.2420040
  H        3.3438860     0.2425840     1.2704470
  H        3.3439250     0.2425520    -1.2703830
  H        2.0809520    -1.0925710    -1.2419630
  H       -0.5837830     2.3612850    -0.0000220
  H       -2.9953690     1.6993840     0.0000210
  H       -1.6982570    -2.4088260    -0.0000060
  H       -3.5687280    -0.7512850     0.0000410
units angstrom
no_reorient  #important for SAPT in psi4, default
symmetry c1  #important for SAPT in psi4, default
}

set PROPERTIES_ORIGIN ["COM"]
properties('MP2/aug-cc-pvtz', properties = ['dipole'])
--------------------------------------------------------------------------

    Molecular point group: c1
  Charge       = 0
  Multiplicity = 1
  Basis Set: AUG-CC-PVTZ
    Blend: AUG-CC-PVTZ
  Basis Set: (AUG-CC-PVTZ AUX)
    Blend: AUG-CC-PVTZ-JKFIT

    Orbital Energies [Eh]
    ---------------------

    Doubly Occupied:

       1A    -15.540765     2A    -11.282675     3A    -11.258730
       4A    -11.251632     5A    -11.238733     6A    -11.232969
       7A    -11.229030     8A    -11.226812     9A    -11.226114
      10A     -1.283098    11A     -1.149009    12A     -1.080710
      13A     -1.033674    14A     -0.885773    15A     -0.852435
      16A     -0.819891    17A     -0.796563    18A     -0.713294
      19A     -0.672258    20A     -0.655772    21A     -0.635911
      22A     -0.608811    23A     -0.574396    24A     -0.560205
      25A     -0.543841    26A     -0.516256    27A     -0.512170
      28A     -0.440866    29A     -0.429334    30A     -0.385399
      31A     -0.385245    32A     -0.318000

  @DF-RHF Final Energy:  -362.71180662930050

   => Energetics <=

    Nuclear Repulsion Energy =            411.1652043264241456
    One-Electron Energy =               -1305.0732784453084605
    Two-Electron Energy =                 531.1962674895837608
    Total Energy =                       -362.7118066293005541
  Basis Set: (AUG-CC-PVTZ AUX)
    Blend: AUG-CC-PVTZ-RI
    Molecular point group: c1

    Geometry (in Angstrom), charge = 0, multiplicity = 1:

       Center              X                  Y                   Z               Mass
    ------------   -----------------  -----------------  -----------------  -----------------
         N           -0.281004645855    -0.955380089448    -0.000014438631    14.003074004430
         C            1.602342554145     0.661681810552    -0.000019138631    12.000000000000
         C            2.567882554145    -0.230056189448     0.747287861369    12.000000000000
         C            2.567906554145    -0.230093189448    -0.747247138631    12.000000000000
         C            0.161150554145     0.319650810552    -0.000019138631    12.000000000000
         C           -0.824590445855     1.315906810552    -0.000013138631    12.000000000000
         C           -2.167044445855     0.945585810552     0.000009861369    12.000000000000
         C           -1.444536445855    -1.336278189448    -0.000003138631    12.000000000000
         C           -2.488513445855    -0.411492189448     0.000012861369    12.000000000000
         H            1.823670554145     1.726445810552    -0.000051138631     1.007825032230
         H            2.128341554145    -1.089401189448     1.242004861369     1.007825032230
         H            3.391343554145     0.245694810552     1.270447861369     1.007825032230
         H            3.391382554145     0.245662810552    -1.270382138631     1.007825032230
         H            2.128409554145    -1.089460189448    -1.241962138631     1.007825032230
         H           -0.536325445855     2.364395810552    -0.000021138631     1.007825032230
         H           -2.947911445855     1.702494810552     0.000021861369     1.007825032230
         H           -1.650799445855    -2.405715189448    -0.000005138631     1.007825032230
         H           -3.521270445855    -0.748174189448     0.000041861369     1.007825032230

  Basis Set: AUG-CC-PVTZ
    Blend: AUG-CC-PVTZ
  Basis Set: (AUG-CC-PVTZ AUX)
    Blend: AUG-CC-PVTZ-JKFIT
	 Reference Energy          =    -362.7118066293004972 [Eh]
	 Singles Energy            =      -0.0000000000000000 [Eh]
	 Same-Spin Energy          =      -0.4006325624390475 [Eh]
	 Opposite-Spin Energy      =      -1.2717030937684264 [Eh]
	 Correlation Energy        =      -1.6723356562074740 [Eh]
	 Total Energy              =    -364.3841422855079486 [Eh]

	 ================> DF-SCS-MP2 Energies <==================
	-----------------------------------------------------------
	 SCS Same-Spin Scale       =       0.3333333333333333 [-]
	 SCS Opposite-Spin Scale   =       1.2000000000000000 [-]
	 SCS Same-Spin Energy      =      -0.1335441874796825 [Eh]
	 SCS Opposite-Spin Energy  =      -1.5260437125221116 [Eh]
	 SCS Correlation Energy    =      -1.6595879000017941 [Eh]
	 SCS Total Energy          =    -364.3713945293022789 [Eh]
	-----------------------------------------------------------

  Dipole Moment: [D]
     X:    -0.5743      Y:     1.3394      Z:     0.0000     Total:     1.4574

*** Psi4 exiting successfully. Buy a developer a beer!
