                               Psi4 1.3.2 release

  ==> Input File <==

--------------------------------------------------------------------------
#psi4
#
memory 32 gb

molecule  {
0 1
  N       -0.1927630    -0.9977240    -0.0000150
  C        1.5548850     0.6585710    -0.0000200
  C        2.5980566    -0.1686304     0.7165431
  C        2.5204490    -0.2332040    -0.7472480
  C        0.1136930     0.3165400    -0.0000200
  C       -0.8720480     1.3127960    -0.0000140
  C       -2.2145020     0.9424750     0.0000090
  C       -1.4919940    -1.3393890    -0.0000040
  C       -2.5359710    -0.4146030     0.0000120
  H        1.7762130     1.7233350    -0.0000520
  H        2.0808840    -1.0925120     1.2420040
  H        3.3438860     0.2425840     1.2704470
  H        3.3439250     0.2425520    -1.2703830
  H        2.0809520    -1.0925710    -1.2419630
  H       -0.5837830     2.3612850    -0.0000220
  H       -2.9953690     1.6993840     0.0000210
  H       -1.6982570    -2.4088260    -0.0000060
  H       -3.5687280    -0.7512850     0.0000410
units angstrom
no_reorient  #important for SAPT in psi4, default
symmetry c1  #important for SAPT in psi4, default
}

set PROPERTIES_ORIGIN ["COM"]
properties('MP2/aug-cc-pvtz', properties = ['dipole'])
--------------------------------------------------------------------------

    Molecular point group: c1
  Charge       = 0
  Multiplicity = 1
  Basis Set: AUG-CC-PVTZ
    Blend: AUG-CC-PVTZ
  Basis Set: (AUG-CC-PVTZ AUX)
    Blend: AUG-CC-PVTZ-JKFIT

    Orbital Energies [Eh]
    ---------------------

    Doubly Occupied:

       1A    -15.558849     2A    -11.282869     3A    -11.274864
       4A    -11.258382     5A    -11.236085     6A    -11.235193
       7A    -11.233140     8A    -11.225133     9A    -11.223846
      10A     -1.254393    11A     -1.146796    12A     -1.082265
      13A     -1.030725    14A     -0.885170    15A     -0.854555
      16A     -0.818394    17A     -0.787267    18A     -0.705785
      19A     -0.677096    20A     -0.647572    21A     -0.638474
      22A     -0.608971    23A     -0.574174    24A     -0.548487
      25A     -0.542553    26A     -0.505184    27A     -0.497046
      28A     -0.435686    29A     -0.429087    30A     -0.412556
      31A     -0.377786    32A     -0.322849

  @DF-RHF Final Energy:  -362.71145479228852

   => Energetics <=

    Nuclear Repulsion Energy =            408.8731678376269087
    One-Electron Energy =               -1300.5467845510977440
    Two-Electron Energy =                 528.9621619211824282
    Total Energy =                       -362.7114547922884640
  Basis Set: (AUG-CC-PVTZ AUX)
    Blend: AUG-CC-PVTZ-RI
    Molecular point group: c1

    Geometry (in Angstrom), charge = 0, multiplicity = 1:

       Center              X                  Y                   Z               Mass
    ------------   -----------------  -----------------  -----------------  -----------------
         N           -0.169087271003    -0.996503242219     0.003084137655    14.003074004430
         C            1.578560728997     0.659791757781     0.003079137655    12.000000000000
         C            2.621732328997    -0.167409642219     0.719642237655    12.000000000000
         C            2.544124728997    -0.231983242219    -0.744148862345    12.000000000000
         C            0.137368728997     0.317760757781     0.003079137655    12.000000000000
         C           -0.848372271003     1.314016757781     0.003085137655    12.000000000000
         C           -2.190826271003     0.943695757781     0.003108137655    12.000000000000
         C           -1.468318271003    -1.338168242219     0.003095137655    12.000000000000
         C           -2.512295271003    -0.413382242219     0.003111137655    12.000000000000
         H            1.799888728997     1.724555757781     0.003047137655     1.007825032230
         H            2.104559728997    -1.091291242219     1.245103137655     1.007825032230
         H            3.367561728997     0.243804757781     1.273546137655     1.007825032230
         H            3.367600728997     0.243772757781    -1.267283862345     1.007825032230
         H            2.104627728997    -1.091350242219    -1.238863862345     1.007825032230
         H           -0.560107271003     2.362505757781     0.003077137655     1.007825032230
         H           -2.971693271003     1.700604757781     0.003120137655     1.007825032230
         H           -1.674581271003    -2.407605242219     0.003093137655     1.007825032230
         H           -3.545052271003    -0.750064242219     0.003140137655     1.007825032230

  Basis Set: AUG-CC-PVTZ
    Blend: AUG-CC-PVTZ
  Basis Set: (AUG-CC-PVTZ AUX)
    Blend: AUG-CC-PVTZ-JKFIT
	 Reference Energy          =    -362.7114547922885208 [Eh]
	 Singles Energy            =      -0.0000000000000000 [Eh]
	 Same-Spin Energy          =      -0.4019900322983302 [Eh]
	 Opposite-Spin Energy      =      -1.2755588175166981 [Eh]
	 Correlation Energy        =      -1.6775488498150284 [Eh]
	 Total Energy              =    -364.3890036421035461 [Eh]

	 ================> DF-SCS-MP2 Energies <==================
	-----------------------------------------------------------
	 SCS Same-Spin Scale       =       0.3333333333333333 [-]
	 SCS Opposite-Spin Scale   =       1.2000000000000000 [-]
	 SCS Same-Spin Energy      =      -0.1339966774327767 [Eh]
	 SCS Opposite-Spin Energy  =      -1.5306705810200376 [Eh]
	 SCS Correlation Energy    =      -1.6646672584528144 [Eh]
	 SCS Total Energy          =    -364.3761220507413441 [Eh]
	-----------------------------------------------------------

  Dipole Moment: [D]
     X:    -0.9629      Y:     1.4427      Z:     0.0002     Total:     1.7345

*** Psi4 exiting successfully. Buy a developer a beer!
