                               Psi4 1.3.2 release

  ==> Input File <==

--------------------------------------------------------------------------
#psi4
#
memory 32 gb

molecule  {
0 1
  N       -0.2156534    -0.9921754    -0.0000150
  C        1.5548850     0.6585710    -0.0000200
  C        2.5204250    -0.2331670     0.7472870
  C        2.5204490    -0.2332040    -0.7472480
  C        0.1136930     0.3165400    -0.0000200
  C       -0.8720480     1.3127960    -0.0000140
  C       -2.2145020     0.9424750     0.0000090
  C       -1.4919940    -1.3393890    -0.0000040
  C       -2.5359710    -0.4146030     0.0000120
  H        1.7762130     1.7233350    -0.0000520
  H        2.0808840    -1.0925120     1.2420040
  H        3.3438860     0.2425840     1.2704470
  H        3.3439250     0.2425520    -1.2703830
  H        2.0809520    -1.0925710    -1.2419630
  H       -0.5837830     2.3612850    -0.0000220
  H       -2.9953690     1.6993840     0.0000210
  H       -1.6982570    -2.4088260    -0.0000060
  H       -3.5687280    -0.7512850     0.0000410
units angstrom
no_reorient  #important for SAPT in psi4, default
symmetry c1  #important for SAPT in psi4, default
}

set PROPERTIES_ORIGIN ["COM"]
properties('MP2/aug-cc-pvtz', properties = ['dipole'])
--------------------------------------------------------------------------

    Molecular point group: c1
  Charge       = 0
  Multiplicity = 1
  Basis Set: AUG-CC-PVTZ
    Blend: AUG-CC-PVTZ
  Basis Set: (AUG-CC-PVTZ AUX)
    Blend: AUG-CC-PVTZ-JKFIT

    Orbital Energies [Eh]
    ---------------------

    Doubly Occupied:

       1A    -15.555598     2A    -11.281992     3A    -11.272300
       4A    -11.257184     5A    -11.235042     6A    -11.234711
       7A    -11.233899     8A    -11.224492     9A    -11.223797
      10A     -1.258539    11A     -1.143741    12A     -1.081603
      13A     -1.030053    14A     -0.884135    15A     -0.853796
      16A     -0.817630    17A     -0.788600    18A     -0.708803
      19A     -0.672124    20A     -0.650308    21A     -0.632587
      22A     -0.608422    23A     -0.573729    24A     -0.549261
      25A     -0.543885    26A     -0.508727    27A     -0.506827
      28A     -0.436729    29A     -0.429856    30A     -0.407077
      31A     -0.378979    32A     -0.322250

  @DF-RHF Final Energy:  -362.72523282860914

   => Energetics <=

    Nuclear Repulsion Energy =            409.5237562068894022
    One-Electron Energy =               -1301.8846277406187255
    Two-Electron Energy =                 529.6356387051201864
    Total Energy =                       -362.7252328286091370
  Basis Set: (AUG-CC-PVTZ AUX)
    Blend: AUG-CC-PVTZ-RI
    Molecular point group: c1

    Geometry (in Angstrom), charge = 0, multiplicity = 1:

       Center              X                  Y                   Z               Mass
    ------------   -----------------  -----------------  -----------------  -----------------
         N           -0.181462189619    -0.985103283624    -0.000014173911    14.003074004430
         C            1.589076210381     0.665643116376    -0.000019173911    12.000000000000
         C            2.554616210381    -0.226094883624     0.747287826089    12.000000000000
         C            2.554640210381    -0.226131883624    -0.747247173911    12.000000000000
         C            0.147884210381     0.323612116376    -0.000019173911    12.000000000000
         C           -0.837856789619     1.319868116376    -0.000013173911    12.000000000000
         C           -2.180310789619     0.949547116376     0.000009826089    12.000000000000
         C           -1.457802789619    -1.332316883624    -0.000003173911    12.000000000000
         C           -2.501779789619    -0.407530883624     0.000012826089    12.000000000000
         H            1.810404210381     1.730407116376    -0.000051173911     1.007825032230
         H            2.115075210381    -1.085439883624     1.242004826089     1.007825032230
         H            3.378077210381     0.249656116376     1.270447826089     1.007825032230
         H            3.378116210381     0.249624116376    -1.270382173911     1.007825032230
         H            2.115143210381    -1.085498883624    -1.241962173911     1.007825032230
         H           -0.549591789619     2.368357116376    -0.000021173911     1.007825032230
         H           -2.961177789619     1.706456116376     0.000021826089     1.007825032230
         H           -1.664065789619    -2.401753883624    -0.000005173911     1.007825032230
         H           -3.534536789619    -0.744212883624     0.000041826089     1.007825032230

  Basis Set: AUG-CC-PVTZ
    Blend: AUG-CC-PVTZ
  Basis Set: (AUG-CC-PVTZ AUX)
    Blend: AUG-CC-PVTZ-JKFIT
	 Reference Energy          =    -362.7252328286091370 [Eh]
	 Singles Energy            =      -0.0000000000000000 [Eh]
	 Same-Spin Energy          =      -0.4014140975121300 [Eh]
	 Opposite-Spin Energy      =      -1.2742031157443927 [Eh]
	 Correlation Energy        =      -1.6756172132565226 [Eh]
	 Total Energy              =    -364.4008500418656809 [Eh]

	 ================> DF-SCS-MP2 Energies <==================
	-----------------------------------------------------------
	 SCS Same-Spin Scale       =       0.3333333333333333 [-]
	 SCS Opposite-Spin Scale   =       1.2000000000000000 [-]
	 SCS Same-Spin Energy      =      -0.1338046991707100 [Eh]
	 SCS Opposite-Spin Energy  =      -1.5290437388932712 [Eh]
	 SCS Correlation Energy    =      -1.6628484380639812 [Eh]
	 SCS Total Energy          =    -364.3880812666731117 [Eh]
	-----------------------------------------------------------

  Dipole Moment: [D]
     X:    -0.9156      Y:     1.4125      Z:     0.0000     Total:     1.6833

*** Psi4 exiting successfully. Buy a developer a beer!
