                               Psi4 1.3.2 release

  ==> Input File <==

--------------------------------------------------------------------------
#psi4
#
memory 32 gb

molecule  {
0 1
  N       -0.2384435    -0.9862282    -0.0000151
  C        1.5548850     0.6585710    -0.0000200
  C        2.5204250    -0.2331670     0.7472870
  C        2.5204490    -0.2332040    -0.7472480
  C        0.1136930     0.3165400    -0.0000200
  C       -0.8720480     1.3127960    -0.0000140
  C       -2.2145020     0.9424750     0.0000090
  C       -1.4919940    -1.3393890    -0.0000040
  C       -2.5359710    -0.4146030     0.0000120
  H        1.7762130     1.7233350    -0.0000520
  H        2.0808840    -1.0925120     1.2420040
  H        3.3438860     0.2425840     1.2704470
  H        3.3439250     0.2425520    -1.2703830
  H        2.0809520    -1.0925710    -1.2419630
  H       -0.5837830     2.3612850    -0.0000220
  H       -2.9953690     1.6993840     0.0000210
  H       -1.6982570    -2.4088260    -0.0000060
  H       -3.5687280    -0.7512850     0.0000410
units angstrom
no_reorient  #important for SAPT in psi4, default
symmetry c1  #important for SAPT in psi4, default
}

set PROPERTIES_ORIGIN ["COM"]
properties('MP2/aug-cc-pvtz', properties = ['dipole'])
--------------------------------------------------------------------------

    Molecular point group: c1
  Charge       = 0
  Multiplicity = 1
  Basis Set: AUG-CC-PVTZ
    Blend: AUG-CC-PVTZ
  Basis Set: (AUG-CC-PVTZ AUX)
    Blend: AUG-CC-PVTZ-JKFIT

    Orbital Energies [Eh]
    ---------------------

    Doubly Occupied:

       1A    -15.552725     2A    -11.282056     3A    -11.269666
       4A    -11.256107     5A    -11.235513     6A    -11.234575
       7A    -11.232936     8A    -11.224961     9A    -11.224266
      10A     -1.262973    11A     -1.144832    12A     -1.081292
      13A     -1.030881    14A     -0.884457    15A     -0.853494
      16A     -0.818073    17A     -0.790367    18A     -0.709551
      19A     -0.672138    20A     -0.651136    21A     -0.633506
      22A     -0.608442    23A     -0.573948    24A     -0.551098
      25A     -0.543964    26A     -0.509414    27A     -0.508966
      28A     -0.437416    29A     -0.429441    30A     -0.403376
      31A     -0.380347    32A     -0.321394

  @DF-RHF Final Energy:  -362.72501663241491

   => Energetics <=

    Nuclear Repulsion Energy =            409.8286007628140624
    One-Electron Energy =               -1302.4806094702730661
    Two-Electron Energy =                 529.9269920750441543
    Total Energy =                       -362.7250166324148495
  Basis Set: (AUG-CC-PVTZ AUX)
    Blend: AUG-CC-PVTZ-RI
    Molecular point group: c1

    Geometry (in Angstrom), charge = 0, multiplicity = 1:

       Center              X                  Y                   Z               Mass
    ------------   -----------------  -----------------  -----------------  -----------------
         N           -0.201572168024    -0.979855475866    -0.000014262151    14.003074004430
         C            1.591756331976     0.664943724134    -0.000019162151    12.000000000000
         C            2.557296331976    -0.226794275866     0.747287837849    12.000000000000
         C            2.557320331976    -0.226831275866    -0.747247162151    12.000000000000
         C            0.150564331976     0.322912724134    -0.000019162151    12.000000000000
         C           -0.835176668024     1.319168724134    -0.000013162151    12.000000000000
         C           -2.177630668024     0.948847724134     0.000009837849    12.000000000000
         C           -1.455122668024    -1.333016275866    -0.000003162151    12.000000000000
         C           -2.499099668024    -0.408230275866     0.000012837849    12.000000000000
         H            1.813084331976     1.729707724134    -0.000051162151     1.007825032230
         H            2.117755331976    -1.086139275866     1.242004837849     1.007825032230
         H            3.380757331976     0.248956724134     1.270447837849     1.007825032230
         H            3.380796331976     0.248924724134    -1.270382162151     1.007825032230
         H            2.117823331976    -1.086198275866    -1.241962162151     1.007825032230
         H           -0.546911668024     2.367657724134    -0.000021162151     1.007825032230
         H           -2.958497668024     1.705756724134     0.000021837849     1.007825032230
         H           -1.661385668024    -2.402453275866    -0.000005162151     1.007825032230
         H           -3.531856668024    -0.744912275866     0.000041837849     1.007825032230

  Basis Set: AUG-CC-PVTZ
    Blend: AUG-CC-PVTZ
  Basis Set: (AUG-CC-PVTZ AUX)
    Blend: AUG-CC-PVTZ-JKFIT
	 Reference Energy          =    -362.7250166324149063 [Eh]
	 Singles Energy            =      -0.0000000000000000 [Eh]
	 Same-Spin Energy          =      -0.4012189438363084 [Eh]
	 Opposite-Spin Energy      =      -1.2735565818956083 [Eh]
	 Correlation Energy        =      -1.6747755257319166 [Eh]
	 Total Energy              =    -364.3997921581467949 [Eh]

	 ================> DF-SCS-MP2 Energies <==================
	-----------------------------------------------------------
	 SCS Same-Spin Scale       =       0.3333333333333333 [-]
	 SCS Opposite-Spin Scale   =       1.2000000000000000 [-]
	 SCS Same-Spin Energy      =      -0.1337396479454361 [Eh]
	 SCS Opposite-Spin Energy  =      -1.5282678982747300 [Eh]
	 SCS Correlation Energy    =      -1.6620075462201660 [Eh]
	 SCS Total Energy          =    -364.3870241786350448 [Eh]
	-----------------------------------------------------------

  Dipole Moment: [D]
     X:    -0.8549      Y:     1.3982      Z:     0.0000     Total:     1.6389

*** Psi4 exiting successfully. Buy a developer a beer!
