                               Psi4 1.3.2 release

  ==> Input File <==

--------------------------------------------------------------------------
#psi4
#
memory 32 gb

molecule  {
0 1
  N       -0.1927630    -0.9977240    -0.0000150
  C        1.5548850     0.6585710    -0.0000200
  C        2.5204250    -0.2331670     0.7472870
  C        2.5204490    -0.2332040    -0.7472480
  C        0.1026342     0.3670452    -0.0000217
  C       -0.8720480     1.3127960    -0.0000140
  C       -2.2145020     0.9424750     0.0000090
  C       -1.4919940    -1.3393890    -0.0000040
  C       -2.5359710    -0.4146030     0.0000120
  H        1.7762130     1.7233350    -0.0000520
  H        2.0808840    -1.0925120     1.2420040
  H        3.3438860     0.2425840     1.2704470
  H        3.3439250     0.2425520    -1.2703830
  H        2.0809520    -1.0925710    -1.2419630
  H       -0.5837830     2.3612850    -0.0000220
  H       -2.9953690     1.6993840     0.0000210
  H       -1.6982570    -2.4088260    -0.0000060
  H       -3.5687280    -0.7512850     0.0000410
units angstrom
no_reorient  #important for SAPT in psi4, default
symmetry c1  #important for SAPT in psi4, default
}

set PROPERTIES_ORIGIN ["COM"]
properties('MP2/aug-cc-pvtz', properties = ['dipole'])
--------------------------------------------------------------------------

    Molecular point group: c1
  Charge       = 0
  Multiplicity = 1
  Basis Set: AUG-CC-PVTZ
    Blend: AUG-CC-PVTZ
  Basis Set: (AUG-CC-PVTZ AUX)
    Blend: AUG-CC-PVTZ-JKFIT

    Orbital Energies [Eh]
    ---------------------

    Doubly Occupied:

       1A    -15.561302     2A    -11.279640     3A    -11.275107
       4A    -11.259869     5A    -11.235575     6A    -11.233854
       7A    -11.231427     8A    -11.223787     9A    -11.223093
      10A     -1.244922    11A     -1.141437    12A     -1.082142
      13A     -1.033572    14A     -0.885423    15A     -0.851504
      16A     -0.816588    17A     -0.788154    18A     -0.706446
      19A     -0.674162    20A     -0.645290    21A     -0.630404
      22A     -0.612659    23A     -0.573985    24A     -0.544750
      25A     -0.542816    26A     -0.507621    27A     -0.498101
      28A     -0.436106    29A     -0.429709    30A     -0.414394
      31A     -0.375846    32A     -0.326041

  @DF-RHF Final Energy:  -362.71976809819228

   => Energetics <=

    Nuclear Repulsion Energy =            408.9710260838884892
    One-Electron Energy =               -1300.8101287951142240
    Two-Electron Energy =                 529.1193346130334021
    Total Energy =                       -362.7197680981922758
  Basis Set: (AUG-CC-PVTZ AUX)
    Blend: AUG-CC-PVTZ-RI
    Molecular point group: c1

    Geometry (in Angstrom), charge = 0, multiplicity = 1:

       Center              X                  Y                   Z               Mass
    ------------   -----------------  -----------------  -----------------  -----------------
         N           -0.160149221762    -0.995089184507    -0.000014002588    14.003074004430
         C            1.587498778238     0.661205815493    -0.000019002588    12.000000000000
         C            2.553038778238    -0.230532184507     0.747287997412    12.000000000000
         C            2.553062778238    -0.230569184507    -0.747247002588    12.000000000000
         C            0.135247978238     0.369680015493    -0.000020702588    12.000000000000
         C           -0.839434221762     1.315430815493    -0.000013002588    12.000000000000
         C           -2.181888221762     0.945109815493     0.000009997412    12.000000000000
         C           -1.459380221762    -1.336754184507    -0.000003002588    12.000000000000
         C           -2.503357221762    -0.411968184507     0.000012997412    12.000000000000
         H            1.808826778238     1.725969815493    -0.000051002588     1.007825032230
         H            2.113497778238    -1.089877184507     1.242004997412     1.007825032230
         H            3.376499778238     0.245218815493     1.270447997412     1.007825032230
         H            3.376538778238     0.245186815493    -1.270382002588     1.007825032230
         H            2.113565778238    -1.089936184507    -1.241962002588     1.007825032230
         H           -0.551169221762     2.363919815493    -0.000021002588     1.007825032230
         H           -2.962755221762     1.702018815493     0.000021997412     1.007825032230
         H           -1.665643221762    -2.406191184507    -0.000005002588     1.007825032230
         H           -3.536114221762    -0.748650184507     0.000041997412     1.007825032230

  Basis Set: AUG-CC-PVTZ
    Blend: AUG-CC-PVTZ
  Basis Set: (AUG-CC-PVTZ AUX)
    Blend: AUG-CC-PVTZ-JKFIT
	 Reference Energy          =    -362.7197680981922758 [Eh]
	 Singles Energy            =      -0.0000000000000000 [Eh]
	 Same-Spin Energy          =      -0.4018165651673158 [Eh]
	 Opposite-Spin Energy      =      -1.2759125389666377 [Eh]
	 Correlation Energy        =      -1.6777291041339535 [Eh]
	 Total Energy              =    -364.3974972023262353 [Eh]

	 ================> DF-SCS-MP2 Energies <==================
	-----------------------------------------------------------
	 SCS Same-Spin Scale       =       0.3333333333333333 [-]
	 SCS Opposite-Spin Scale   =       1.2000000000000000 [-]
	 SCS Same-Spin Energy      =      -0.1339388550557719 [Eh]
	 SCS Opposite-Spin Energy  =      -1.5310950467599651 [Eh]
	 SCS Correlation Energy    =      -1.6650339018157370 [Eh]
	 SCS Total Energy          =    -364.3848020000079941 [Eh]
	-----------------------------------------------------------

  Dipole Moment: [D]
     X:    -1.0161      Y:     1.4010      Z:     0.0000     Total:     1.7307

*** Psi4 exiting successfully. Buy a developer a beer!
