                               Psi4 1.3.2 release

  ==> Input File <==

--------------------------------------------------------------------------
#psi4
#
memory 32 gb

molecule  {
0 1
  N       -0.1927630    -0.9977240    -0.0000150
  C        1.5548850     0.6585710    -0.0000200
  C        2.5204250    -0.2331670     0.7472870
  C        2.5204490    -0.2332040    -0.7472480
  C        0.1079432     0.3417444    -0.0000208
  C       -0.8720480     1.3127960    -0.0000140
  C       -2.2145020     0.9424750     0.0000090
  C       -1.4919940    -1.3393890    -0.0000040
  C       -2.5359710    -0.4146030     0.0000120
  H        1.7762130     1.7233350    -0.0000520
  H        2.0808840    -1.0925120     1.2420040
  H        3.3438860     0.2425840     1.2704470
  H        3.3439250     0.2425520    -1.2703830
  H        2.0809520    -1.0925710    -1.2419630
  H       -0.5837830     2.3612850    -0.0000220
  H       -2.9953690     1.6993840     0.0000210
  H       -1.6982570    -2.4088260    -0.0000060
  H       -3.5687280    -0.7512850     0.0000410
units angstrom
no_reorient  #important for SAPT in psi4, default
symmetry c1  #important for SAPT in psi4, default
}

set PROPERTIES_ORIGIN ["COM"]
properties('MP2/aug-cc-pvtz', properties = ['dipole'])
--------------------------------------------------------------------------

    Molecular point group: c1
  Charge       = 0
  Multiplicity = 1
  Basis Set: AUG-CC-PVTZ
    Blend: AUG-CC-PVTZ
  Basis Set: (AUG-CC-PVTZ AUX)
    Blend: AUG-CC-PVTZ-JKFIT

    Orbital Energies [Eh]
    ---------------------

    Doubly Occupied:

       1A    -15.559921     2A    -11.280900     3A    -11.275006
       4A    -11.259092     5A    -11.235177     6A    -11.233867
       7A    -11.233533     8A    -11.223894     9A    -11.223200
      10A     -1.249469    11A     -1.142023    12A     -1.081930
      13A     -1.031442    14A     -0.884630    15A     -0.852700
      16A     -0.816880    17A     -0.787566    18A     -0.707279
      19A     -0.673122    20A     -0.647337    21A     -0.631055
      22A     -0.610615    23A     -0.573723    24A     -0.546060
      25A     -0.543299    26A     -0.507817    27A     -0.501364
      28A     -0.436080    29A     -0.430153    30A     -0.412591
      31A     -0.376556    32A     -0.324613

  @DF-RHF Final Energy:  -362.72283525707019

   => Energetics <=

    Nuclear Repulsion Energy =            409.0979005678013891
    One-Electron Energy =               -1301.0556866693748361
    Two-Electron Energy =                 529.2349508445032598
    Total Energy =                       -362.7228352570701873
  Basis Set: (AUG-CC-PVTZ AUX)
    Blend: AUG-CC-PVTZ-RI
    Molecular point group: c1

    Geometry (in Angstrom), charge = 0, multiplicity = 1:

       Center              X                  Y                   Z               Mass
    ------------   -----------------  -----------------  -----------------  -----------------
         N           -0.160684252649    -0.992539418171    -0.000014093288    14.003074004430
         C            1.586963747351     0.663755581829    -0.000019093288    12.000000000000
         C            2.552503747351    -0.227982418171     0.747287906712    12.000000000000
         C            2.552527747351    -0.228019418171    -0.747247093288    12.000000000000
         C            0.140021947351     0.346928981829    -0.000019893288    12.000000000000
         C           -0.839969252649     1.317980581829    -0.000013093288    12.000000000000
         C           -2.182423252649     0.947659581829     0.000009906712    12.000000000000
         C           -1.459915252649    -1.334204418171    -0.000003093288    12.000000000000
         C           -2.503892252649    -0.409418418171     0.000012906712    12.000000000000
         H            1.808291747351     1.728519581829    -0.000051093288     1.007825032230
         H            2.112962747351    -1.087327418171     1.242004906712     1.007825032230
         H            3.375964747351     0.247768581829     1.270447906712     1.007825032230
         H            3.376003747351     0.247736581829    -1.270382093288     1.007825032230
         H            2.113030747351    -1.087386418171    -1.241962093288     1.007825032230
         H           -0.551704252649     2.366469581829    -0.000021093288     1.007825032230
         H           -2.963290252649     1.704568581829     0.000021906712     1.007825032230
         H           -1.666178252649    -2.403641418171    -0.000005093288     1.007825032230
         H           -3.536649252649    -0.746100418171     0.000041906712     1.007825032230

  Basis Set: AUG-CC-PVTZ
    Blend: AUG-CC-PVTZ
  Basis Set: (AUG-CC-PVTZ AUX)
    Blend: AUG-CC-PVTZ-JKFIT
	 Reference Energy          =    -362.7228352570701873 [Eh]
	 Singles Energy            =      -0.0000000000000000 [Eh]
	 Same-Spin Energy          =      -0.4017442359468107 [Eh]
	 Opposite-Spin Energy      =      -1.2753842603259262 [Eh]
	 Correlation Energy        =      -1.6771284962727369 [Eh]
	 Total Energy              =    -364.3999637533429450 [Eh]

	 ================> DF-SCS-MP2 Energies <==================
	-----------------------------------------------------------
	 SCS Same-Spin Scale       =       0.3333333333333333 [-]
	 SCS Opposite-Spin Scale   =       1.2000000000000000 [-]
	 SCS Same-Spin Energy      =      -0.1339147453156035 [Eh]
	 SCS Opposite-Spin Energy  =      -1.5304611123911114 [Eh]
	 SCS Correlation Energy    =      -1.6643758577067149 [Eh]
	 SCS Total Energy          =    -364.3872111147769033 [Eh]
	-----------------------------------------------------------

  Dipole Moment: [D]
     X:    -0.9961      Y:     1.4150      Z:     0.0000     Total:     1.7304

*** Psi4 exiting successfully. Buy a developer a beer!
