                               Psi4 1.4a3.dev225

  ==> Input File <==

--------------------------------------------------------------------------
#psi4
#
memory 32 gb

molecule  {
0 1
  N       -0.1927630    -0.9977240    -0.0000150
  C        1.5548850     0.6585710    -0.0000200
  C        2.5204250    -0.2331670     0.7472870
  C        2.5204490    -0.2332040    -0.7472480
  C        0.0650443     0.3049944    -0.0000200
  C       -0.8720480     1.3127960    -0.0000140
  C       -2.2145020     0.9424750     0.0000090
  C       -1.4919940    -1.3393890    -0.0000040
  C       -2.5359710    -0.4146030     0.0000120
  H        1.7762130     1.7233350    -0.0000520
  H        2.0808840    -1.0925120     1.2420040
  H        3.3438860     0.2425840     1.2704470
  H        3.3439250     0.2425520    -1.2703830
  H        2.0809520    -1.0925710    -1.2419630
  H       -0.5837830     2.3612850    -0.0000220
  H       -2.9953690     1.6993840     0.0000210
  H       -1.6982570    -2.4088260    -0.0000060
  H       -3.5687280    -0.7512850     0.0000410
units angstrom
no_reorient  #important for SAPT in psi4, default
symmetry c1  #important for SAPT in psi4, default
}

set PROPERTIES_ORIGIN ["COM"]
properties('MP2/aug-cc-pvtz', properties = ['dipole'])
--------------------------------------------------------------------------

    Molecular point group: c1
  Charge       = 0
  Multiplicity = 1
  Basis Set: AUG-CC-PVTZ
    Blend: AUG-CC-PVTZ
  Basis Set: (AUG-CC-PVTZ AUX)
    Blend: AUG-CC-PVTZ-JKFIT

    Orbital Energies [Eh]
    ---------------------

    Doubly Occupied:

       1A    -15.559246     2A    -11.278957     3A    -11.276435
       4A    -11.259804     5A    -11.236256     6A    -11.234011
       7A    -11.233138     8A    -11.220830     9A    -11.220133
      10A     -1.262953    11A     -1.137239    12A     -1.086909
      13A     -1.031133    14A     -0.876999    15A     -0.858245
      16A     -0.814097    17A     -0.785914    18A     -0.708675
      19A     -0.671059    20A     -0.650739    21A     -0.631613
      22A     -0.608764    23A     -0.574696    24A     -0.551390
      25A     -0.544675    26A     -0.506060    27A     -0.495141
      28A     -0.431163    29A     -0.430996    30A     -0.411395
      31A     -0.380333    32A     -0.328673

  @DF-RHF Final Energy:  -362.72298941735937

   => Energetics <=

    Nuclear Repulsion Energy =            409.4720018903342975
    One-Electron Energy =               -1301.7946431818079418
    Two-Electron Energy =                 529.5996518741143291
    Total Energy =                       -362.7229894173593721
  Basis Set: (AUG-CC-PVTZ AUX)
    Blend: AUG-CC-PVTZ-RI
    Molecular point group: c1

    Geometry (in Angstrom), charge = 0, multiplicity = 1:

       Center              X                  Y                   Z               Mass
    ------------   -----------------  -----------------  -----------------  -----------------
         N           -0.156360983383    -0.988835823310    -0.000014173911    14.003074004430
         C            1.591287016617     0.667459176690    -0.000019173911    12.000000000000
         C            2.556827016617    -0.224278823310     0.747287826089    12.000000000000
         C            2.556851016617    -0.224315823310    -0.747247173911    12.000000000000
         C            0.101446316617     0.313882576690    -0.000019173911    12.000000000000
         C           -0.835645983383     1.321684176690    -0.000013173911    12.000000000000
         C           -2.178099983383     0.951363176690     0.000009826089    12.000000000000
         C           -1.455591983383    -1.330500823310    -0.000003173911    12.000000000000
         C           -2.499568983383    -0.405714823310     0.000012826089    12.000000000000
         H            1.812615016617     1.732223176690    -0.000051173911     1.007825032230
         H            2.117286016617    -1.083623823310     1.242004826089     1.007825032230
         H            3.380288016617     0.251472176690     1.270447826089     1.007825032230
         H            3.380327016617     0.251440176690    -1.270382173911     1.007825032230
         H            2.117354016617    -1.083682823310    -1.241962173911     1.007825032230
         H           -0.547380983383     2.370173176690    -0.000021173911     1.007825032230
         H           -2.958966983383     1.708272176690     0.000021826089     1.007825032230
         H           -1.661854983383    -2.399937823310    -0.000005173911     1.007825032230
         H           -3.532325983383    -0.742396823310     0.000041826089     1.007825032230

  Basis Set: AUG-CC-PVTZ
    Blend: AUG-CC-PVTZ
  Basis Set: (AUG-CC-PVTZ AUX)
    Blend: AUG-CC-PVTZ-JKFIT
	 Reference Energy          =    -362.7229894173593721 [Eh]
	 Singles Energy            =      -0.0000000000000000 [Eh]
	 Same-Spin Energy          =      -0.4010573546430019 [Eh]
	 Opposite-Spin Energy      =      -1.2741008965880762 [Eh]
	 Correlation Energy        =      -1.6751582512310781 [Eh]
	 Total Energy              =    -364.3981476685904681 [Eh]

	 ================> DF-SCS-MP2 Energies <==================
	-----------------------------------------------------------
	 SCS Same-Spin Scale       =       0.3333333333333333 [-]
	 SCS Opposite-Spin Scale   =       1.2000000000000000 [-]
	 SCS Same-Spin Energy      =      -0.1336857848810006 [Eh]
	 SCS Opposite-Spin Energy  =      -1.5289210759056915 [Eh]
	 SCS Correlation Energy    =      -1.6626068607866922 [Eh]
	 SCS Total Energy          =    -364.3855962781460676 [Eh]
	-----------------------------------------------------------

  Dipole Moment: [D]
     X:    -1.2134      Y:     1.4118      Z:     0.0000     Total:     1.8615

*** Psi4 exiting successfully. Buy a developer a beer!
