                               Psi4 1.4a3.dev225

  ==> Input File <==

--------------------------------------------------------------------------
#psi4
#
memory 32 gb

molecule  {
0 1
  N       -0.1927630    -0.9977240    -0.0000150
  C        1.5548850     0.6585710    -0.0000200
  C        2.5204250    -0.2331670     0.7472870
  C        2.5204490    -0.2332040    -0.7472480
  C        0.1331525     0.3211582    -0.0000200
  C       -0.8720480     1.3127960    -0.0000140
  C       -2.2145020     0.9424750     0.0000090
  C       -1.4919940    -1.3393890    -0.0000040
  C       -2.5359710    -0.4146030     0.0000120
  H        1.7762130     1.7233350    -0.0000520
  H        2.0808840    -1.0925120     1.2420040
  H        3.3438860     0.2425840     1.2704470
  H        3.3439250     0.2425520    -1.2703830
  H        2.0809520    -1.0925710    -1.2419630
  H       -0.5837830     2.3612850    -0.0000220
  H       -2.9953690     1.6993840     0.0000210
  H       -1.6982570    -2.4088260    -0.0000060
  H       -3.5687280    -0.7512850     0.0000410
units angstrom
no_reorient  #important for SAPT in psi4, default
symmetry c1  #important for SAPT in psi4, default
}

set PROPERTIES_ORIGIN ["COM"]
properties('MP2/aug-cc-pvtz', properties = ['dipole'])
--------------------------------------------------------------------------

    Molecular point group: c1
  Charge       = 0
  Multiplicity = 1
  Basis Set: AUG-CC-PVTZ
    Blend: AUG-CC-PVTZ
  Basis Set: (AUG-CC-PVTZ AUX)
    Blend: AUG-CC-PVTZ-JKFIT

    Orbital Energies [Eh]
    ---------------------

    Doubly Occupied:

       1A    -15.558060     2A    -11.283275     3A    -11.274246
       4A    -11.257616     5A    -11.236166     6A    -11.234224
       7A    -11.234097     8A    -11.225391     9A    -11.224699
      10A     -1.251093    11A     -1.144933    12A     -1.080073
      13A     -1.028461    14A     -0.887061    15A     -0.852219
      16A     -0.818508    17A     -0.786961    18A     -0.708116
      19A     -0.672631    20A     -0.649500    21A     -0.631384
      22A     -0.607841    23A     -0.572961    24A     -0.546318
      25A     -0.543564    26A     -0.508825    27A     -0.508049
      28A     -0.438243    29A     -0.431011    30A     -0.408703
      31A     -0.376501    32A     -0.320743

  @DF-RHF Final Energy:  -362.72306141351578

   => Energetics <=

    Nuclear Repulsion Energy =            409.1454266518518352
    One-Electron Energy =               -1301.1340275789930274
    Two-Electron Energy =                 529.2655395136254128
    Total Energy =                       -362.7230614135157793
  Basis Set: (AUG-CC-PVTZ AUX)
    Blend: AUG-CC-PVTZ-RI
    Molecular point group: c1

    Geometry (in Angstrom), charge = 0, multiplicity = 1:

       Center              X                  Y                   Z               Mass
    ------------   -----------------  -----------------  -----------------  -----------------
         N           -0.163224797790    -0.990464780225    -0.000014173911    14.003074004430
         C            1.584423202210     0.665830219775    -0.000019173911    12.000000000000
         C            2.549963202210    -0.225907780225     0.747287826089    12.000000000000
         C            2.549987202210    -0.225944780225    -0.747247173911    12.000000000000
         C            0.162690702210     0.328417419775    -0.000019173911    12.000000000000
         C           -0.842509797790     1.320055219775    -0.000013173911    12.000000000000
         C           -2.184963797790     0.949734219775     0.000009826089    12.000000000000
         C           -1.462455797790    -1.332129780225    -0.000003173911    12.000000000000
         C           -2.506432797790    -0.407343780225     0.000012826089    12.000000000000
         H            1.805751202210     1.730594219775    -0.000051173911     1.007825032230
         H            2.110422202210    -1.085252780225     1.242004826089     1.007825032230
         H            3.373424202210     0.249843219775     1.270447826089     1.007825032230
         H            3.373463202210     0.249811219775    -1.270382173911     1.007825032230
         H            2.110490202210    -1.085311780225    -1.241962173911     1.007825032230
         H           -0.554244797790     2.368544219775    -0.000021173911     1.007825032230
         H           -2.965830797790     1.706643219775     0.000021826089     1.007825032230
         H           -1.668718797790    -2.401566780225    -0.000005173911     1.007825032230
         H           -3.539189797790    -0.744025780225     0.000041826089     1.007825032230

  Basis Set: AUG-CC-PVTZ
    Blend: AUG-CC-PVTZ
  Basis Set: (AUG-CC-PVTZ AUX)
    Blend: AUG-CC-PVTZ-JKFIT
	 Reference Energy          =    -362.7230614135157793 [Eh]
	 Singles Energy            =      -0.0000000000000000 [Eh]
	 Same-Spin Energy          =      -0.4019387995035224 [Eh]
	 Opposite-Spin Energy      =      -1.2753986052213153 [Eh]
	 Correlation Energy        =      -1.6773374047248377 [Eh]
	 Total Energy              =    -364.4003988182406033 [Eh]

	 ================> DF-SCS-MP2 Energies <==================
	-----------------------------------------------------------
	 SCS Same-Spin Scale       =       0.3333333333333333 [-]
	 SCS Opposite-Spin Scale   =       1.2000000000000000 [-]
	 SCS Same-Spin Energy      =      -0.1339795998345075 [Eh]
	 SCS Opposite-Spin Energy  =      -1.5304783262655783 [Eh]
	 SCS Correlation Energy    =      -1.6644579261000858 [Eh]
	 SCS Total Energy          =    -364.3875193396158920 [Eh]
	-----------------------------------------------------------

  Dipole Moment: [D]
     X:    -0.8730      Y:     1.4316      Z:     0.0000     Total:     1.6768

*** Psi4 exiting successfully. Buy a developer a beer!
