                               Psi4 1.3.2 release

  ==> Input File <==

--------------------------------------------------------------------------
#psi4
#
memory 32 gb

molecule  {
0 1
  N       -0.1927630    -0.9977240    -0.0000150
  C        1.5548850     0.6585710    -0.0000200
  C        2.5204250    -0.2331670     0.7472870
  C        2.5204490    -0.2332040    -0.7472480
  C        0.1410625     0.2168407    -0.0000166
  C       -0.8720480     1.3127960    -0.0000140
  C       -2.2145020     0.9424750     0.0000090
  C       -1.4919940    -1.3393890    -0.0000040
  C       -2.5359710    -0.4146030     0.0000120
  H        1.7762130     1.7233350    -0.0000520
  H        2.0808840    -1.0925120     1.2420040
  H        3.3438860     0.2425840     1.2704470
  H        3.3439250     0.2425520    -1.2703830
  H        2.0809520    -1.0925710    -1.2419630
  H       -0.5837830     2.3612850    -0.0000220
  H       -2.9953690     1.6993840     0.0000210
  H       -1.6982570    -2.4088260    -0.0000060
  H       -3.5687280    -0.7512850     0.0000410
units angstrom
no_reorient  #important for SAPT in psi4, default
symmetry c1  #important for SAPT in psi4, default
}

set PROPERTIES_ORIGIN ["COM"]
properties('MP2/aug-cc-pvtz', properties = ['dipole'])
--------------------------------------------------------------------------

    Molecular point group: c1
  Charge       = 0
  Multiplicity = 1
  Basis Set: AUG-CC-PVTZ
    Blend: AUG-CC-PVTZ
  Basis Set: (AUG-CC-PVTZ AUX)
    Blend: AUG-CC-PVTZ-JKFIT

    Orbital Energies [Eh]
    ---------------------

    Doubly Occupied:

       1A    -15.551327     2A    -11.284018     3A    -11.274076
       4A    -11.254180     5A    -11.241818     6A    -11.234430
       7A    -11.234397     8A    -11.224659     9A    -11.223963
      10A     -1.277350    11A     -1.145367    12A     -1.083688
      13A     -1.019876    14A     -0.880753    15A     -0.860749
      16A     -0.818610    17A     -0.782172    18A     -0.711595
      19A     -0.669047    20A     -0.659260    21A     -0.632268
      22A     -0.599124    23A     -0.572918    24A     -0.556064
      25A     -0.545291    26A     -0.515819    27A     -0.509209
      28A     -0.436775    29A     -0.431510    30A     -0.396851
      31A     -0.384253    32A     -0.316813

  @DF-RHF Final Energy:  -362.71443396295626

   => Energetics <=

    Nuclear Repulsion Energy =            409.8310951615961244
    One-Electron Energy =               -1302.4345998043449981
    Two-Electron Energy =                 529.8890706797926669
    Total Energy =                       -362.7144339629562637
  Basis Set: (AUG-CC-PVTZ AUX)
    Blend: AUG-CC-PVTZ-RI
    Molecular point group: c1

    Geometry (in Angstrom), charge = 0, multiplicity = 1:

       Center              X                  Y                   Z               Mass
    ------------   -----------------  -----------------  -----------------  -----------------
         N           -0.164021952493    -0.979951861671    -0.000014516556    14.003074004430
         C            1.583626047507     0.676343138329    -0.000019516556    12.000000000000
         C            2.549166047507    -0.215394861671     0.747287483444    12.000000000000
         C            2.549190047507    -0.215431861671    -0.747247516556    12.000000000000
         C            0.169803547507     0.234612838329    -0.000016116556    12.000000000000
         C           -0.843306952493     1.330568138329    -0.000013516556    12.000000000000
         C           -2.185760952493     0.960247138329     0.000009483444    12.000000000000
         C           -1.463252952493    -1.321616861671    -0.000003516556    12.000000000000
         C           -2.507229952493    -0.396830861671     0.000012483444    12.000000000000
         H            1.804954047507     1.741107138329    -0.000051516556     1.007825032230
         H            2.109625047507    -1.074739861671     1.242004483444     1.007825032230
         H            3.372627047507     0.260356138329     1.270447483444     1.007825032230
         H            3.372666047507     0.260324138329    -1.270382516556     1.007825032230
         H            2.109693047507    -1.074798861671    -1.241962516556     1.007825032230
         H           -0.555041952493     2.379057138329    -0.000021516556     1.007825032230
         H           -2.966627952493     1.717156138329     0.000021483444     1.007825032230
         H           -1.669515952493    -2.391053861671    -0.000005516556     1.007825032230
         H           -3.539986952493    -0.733512861671     0.000041483444     1.007825032230

  Basis Set: AUG-CC-PVTZ
    Blend: AUG-CC-PVTZ
  Basis Set: (AUG-CC-PVTZ AUX)
    Blend: AUG-CC-PVTZ-JKFIT
	 Reference Energy          =    -362.7144339629562637 [Eh]
	 Singles Energy            =      -0.0000000000000000 [Eh]
	 Same-Spin Energy          =      -0.4007558024353082 [Eh]
	 Opposite-Spin Energy      =      -1.2738177861428650 [Eh]
	 Correlation Energy        =      -1.6745735885781732 [Eh]
	 Total Energy              =    -364.3890075515344620 [Eh]

	 ================> DF-SCS-MP2 Energies <==================
	-----------------------------------------------------------
	 SCS Same-Spin Scale       =       0.3333333333333333 [-]
	 SCS Opposite-Spin Scale   =       1.2000000000000000 [-]
	 SCS Same-Spin Energy      =      -0.1335852674784361 [Eh]
	 SCS Opposite-Spin Energy  =      -1.5285813433714379 [Eh]
	 SCS Correlation Energy    =      -1.6621666108498740 [Eh]
	 SCS Total Energy          =    -364.3766005738061153 [Eh]
	-----------------------------------------------------------

  Dipole Moment: [D]
     X:    -0.8451      Y:     1.4286      Z:     0.0000     Total:     1.6598

*** Psi4 exiting successfully. Buy a developer a beer!
