                               Psi4 1.3.2 release

  ==> Input File <==

--------------------------------------------------------------------------
#psi4
#
memory 32 gb

molecule  {
0 1
  N       -0.1927630    -0.9977240    -0.0000150
  C        1.5548850     0.6585710    -0.0000200
  C        2.5204250    -0.2331670     0.7472870
  C        2.5204490    -0.2332040    -0.7472480
  C       -0.0809020     0.2703577    -0.0000200
  C       -0.8720480     1.3127960    -0.0000140
  C       -2.2145020     0.9424750     0.0000090
  C       -1.4919940    -1.3393890    -0.0000040
  C       -2.5359710    -0.4146030     0.0000120
  H        1.7762130     1.7233350    -0.0000520
  H        2.0808840    -1.0925120     1.2420040
  H        3.3438860     0.2425840     1.2704470
  H        3.3439250     0.2425520    -1.2703830
  H        2.0809520    -1.0925710    -1.2419630
  H       -0.5837830     2.3612850    -0.0000220
  H       -2.9953690     1.6993840     0.0000210
  H       -1.6982570    -2.4088260    -0.0000060
  H       -3.5687280    -0.7512850     0.0000410
units angstrom
no_reorient  #important for SAPT in psi4, default
symmetry c1  #important for SAPT in psi4, default
}

set PROPERTIES_ORIGIN ["COM"]
properties('MP2/aug-cc-pvtz', properties = ['dipole'])
--------------------------------------------------------------------------

    Molecular point group: c1
  Charge       = 0
  Multiplicity = 1
  Basis Set: AUG-CC-PVTZ
    Blend: AUG-CC-PVTZ
  Basis Set: (AUG-CC-PVTZ AUX)
    Blend: AUG-CC-PVTZ-JKFIT

    Orbital Energies [Eh]
    ---------------------

    Doubly Occupied:

       1A    -15.562937     2A    -11.281917     3A    -11.274112
       4A    -11.264960     5A    -11.239796     6A    -11.231428
       7A    -11.227254     8A    -11.212424     9A    -11.211729
      10A     -1.291141    11A     -1.123356    12A     -1.105103
      13A     -1.037006    14A     -0.876618    15A     -0.856765
      16A     -0.805730    17A     -0.780820    18A     -0.713839
      19A     -0.673174    20A     -0.654449    21A     -0.630949
      22A     -0.603463    23A     -0.577834    24A     -0.567158
      25A     -0.548512    26A     -0.499898    27A     -0.476442
      28A     -0.433061    29A     -0.417268    30A     -0.393815
      31A     -0.388968    32A     -0.343139

  @DF-RHF Final Energy:  -362.68408248523235

   => Energetics <=

    Nuclear Repulsion Energy =            410.3616230766694457
    One-Electron Energy =               -1303.4812761655621216
    Two-Electron Energy =                 530.4355706036602669
    Total Energy =                       -362.6840824852323522
  Basis Set: (AUG-CC-PVTZ AUX)
    Blend: AUG-CC-PVTZ-RI
    Molecular point group: c1

    Geometry (in Angstrom), charge = 0, multiplicity = 1:

       Center              X                  Y                   Z               Mass
    ------------   -----------------  -----------------  -----------------  -----------------
         N           -0.141652793816    -0.985345202791    -0.000014173911    14.003074004430
         C            1.605995206184     0.670949797209    -0.000019173911    12.000000000000
         C            2.571535206184    -0.220788202791     0.747287826089    12.000000000000
         C            2.571559206184    -0.220825202791    -0.747247173911    12.000000000000
         C           -0.029791793816     0.282736497209    -0.000019173911    12.000000000000
         C           -0.820937793816     1.325174797209    -0.000013173911    12.000000000000
         C           -2.163391793816     0.954853797209     0.000009826089    12.000000000000
         C           -1.440883793816    -1.327010202791    -0.000003173911    12.000000000000
         C           -2.484860793816    -0.402224202791     0.000012826089    12.000000000000
         H            1.827323206184     1.735713797209    -0.000051173911     1.007825032230
         H            2.131994206184    -1.080133202791     1.242004826089     1.007825032230
         H            3.394996206184     0.254962797209     1.270447826089     1.007825032230
         H            3.395035206184     0.254930797209    -1.270382173911     1.007825032230
         H            2.132062206184    -1.080192202791    -1.241962173911     1.007825032230
         H           -0.532672793816     2.373663797209    -0.000021173911     1.007825032230
         H           -2.944258793816     1.711762797209     0.000021826089     1.007825032230
         H           -1.647146793816    -2.396447202791    -0.000005173911     1.007825032230
         H           -3.517617793816    -0.738906202791     0.000041826089     1.007825032230

  Basis Set: AUG-CC-PVTZ
    Blend: AUG-CC-PVTZ
  Basis Set: (AUG-CC-PVTZ AUX)
    Blend: AUG-CC-PVTZ-JKFIT
	 Reference Energy          =    -362.6840824852323522 [Eh]
	 Singles Energy            =      -0.0000000000000000 [Eh]
	 Same-Spin Energy          =      -0.4011040766172497 [Eh]
	 Opposite-Spin Energy      =      -1.2746489717979934 [Eh]
	 Correlation Energy        =      -1.6757530484152432 [Eh]
	 Total Energy              =    -364.3598355336475834 [Eh]

	 ================> DF-SCS-MP2 Energies <==================
	-----------------------------------------------------------
	 SCS Same-Spin Scale       =       0.3333333333333333 [-]
	 SCS Opposite-Spin Scale   =       1.2000000000000000 [-]
	 SCS Same-Spin Energy      =      -0.1337013588724165 [Eh]
	 SCS Opposite-Spin Energy  =      -1.5295787661575921 [Eh]
	 SCS Correlation Energy    =      -1.6632801250300087 [Eh]
	 SCS Total Energy          =    -364.3473626102623371 [Eh]
	-----------------------------------------------------------

  Dipole Moment: [D]
     X:    -1.8962      Y:     1.3555      Z:     0.0000     Total:     2.3309

*** Psi4 exiting successfully. Buy a developer a beer!
