                               Psi4 1.3.2 release

  ==> Input File <==

--------------------------------------------------------------------------
#psi4
#
memory 32 gb

molecule  {
0 1
  N       -0.2836949    -0.9731452    -0.0000152
  C        1.5548850     0.6585710    -0.0000200
  C        2.5204250    -0.2331670     0.7472870
  C        2.5204490    -0.2332040    -0.7472480
  C        0.1136930     0.3165400    -0.0000200
  C       -0.8720480     1.3127960    -0.0000140
  C       -2.2145020     0.9424750     0.0000090
  C       -1.4919940    -1.3393890    -0.0000040
  C       -2.5359710    -0.4146030     0.0000120
  H        1.7762130     1.7233350    -0.0000520
  H        2.0808840    -1.0925120     1.2420040
  H        3.3438860     0.2425840     1.2704470
  H        3.3439250     0.2425520    -1.2703830
  H        2.0809520    -1.0925710    -1.2419630
  H       -0.5837830     2.3612850    -0.0000220
  H       -2.9953690     1.6993840     0.0000210
  H       -1.6982570    -2.4088260    -0.0000060
  H       -3.5687280    -0.7512850     0.0000410
units angstrom
no_reorient  #important for SAPT in psi4, default
symmetry c1  #important for SAPT in psi4, default
}

set PROPERTIES_ORIGIN ["COM"]
properties('MP2/aug-cc-pvtz', properties = ['dipole'])
--------------------------------------------------------------------------

    Molecular point group: c1
  Charge       = 0
  Multiplicity = 1
  Basis Set: AUG-CC-PVTZ
    Blend: AUG-CC-PVTZ
  Basis Set: (AUG-CC-PVTZ AUX)
    Blend: AUG-CC-PVTZ-JKFIT

    Orbital Energies [Eh]
    ---------------------

    Doubly Occupied:

       1A    -15.546814     2A    -11.282291     3A    -11.264245
       4A    -11.253903     5A    -11.237121     6A    -11.233714
       7A    -11.230990     8A    -11.225890     9A    -11.225194
      10A     -1.272590    11A     -1.146964    12A     -1.080846
      13A     -1.032401    14A     -0.885131    15A     -0.852904
      16A     -0.818973    17A     -0.793672    18A     -0.711264
      19A     -0.672174    20A     -0.653202    21A     -0.634967
      22A     -0.608572    23A     -0.574271    24A     -0.555285
      25A     -0.543979    26A     -0.512864    27A     -0.510793
      28A     -0.439003    29A     -0.429168    30A     -0.394849
      31A     -0.382977    32A     -0.319681

  @DF-RHF Final Energy:  -362.72101656412849

   => Energetics <=

    Nuclear Repulsion Energy =            410.4742079189815627
    One-Electron Energy =               -1303.7370637512362919
    Two-Electron Energy =                 530.5418392681261821
    Total Energy =                       -362.7210165641284902
  Basis Set: (AUG-CC-PVTZ AUX)
    Blend: AUG-CC-PVTZ-RI
    Molecular point group: c1

    Geometry (in Angstrom), charge = 0, multiplicity = 1:

       Center              X                  Y                   Z               Mass
    ------------   -----------------  -----------------  -----------------  -----------------
         N           -0.241501991797    -0.968311040016    -0.000014350391    14.003074004430
         C            1.597077908203     0.663405159984    -0.000019150391    12.000000000000
         C            2.562617908203    -0.228332840016     0.747287849609    12.000000000000
         C            2.562641908203    -0.228369840016    -0.747247150391    12.000000000000
         C            0.155885908203     0.321374159984    -0.000019150391    12.000000000000
         C           -0.829855091797     1.317630159984    -0.000013150391    12.000000000000
         C           -2.172309091797     0.947309159984     0.000009849609    12.000000000000
         C           -1.449801091797    -1.334554840016    -0.000003150391    12.000000000000
         C           -2.493778091797    -0.409768840016     0.000012849609    12.000000000000
         H            1.818405908203     1.728169159984    -0.000051150391     1.007825032230
         H            2.123076908203    -1.087677840016     1.242004849609     1.007825032230
         H            3.386078908203     0.247418159984     1.270447849609     1.007825032230
         H            3.386117908203     0.247386159984    -1.270382150391     1.007825032230
         H            2.123144908203    -1.087736840016    -1.241962150391     1.007825032230
         H           -0.541590091797     2.366119159984    -0.000021150391     1.007825032230
         H           -2.953176091797     1.704218159984     0.000021849609     1.007825032230
         H           -1.656064091797    -2.403991840016    -0.000005150391     1.007825032230
         H           -3.526535091797    -0.746450840016     0.000041849609     1.007825032230

  Basis Set: AUG-CC-PVTZ
    Blend: AUG-CC-PVTZ
  Basis Set: (AUG-CC-PVTZ AUX)
    Blend: AUG-CC-PVTZ-JKFIT
	 Reference Energy          =    -362.7210165641284902 [Eh]
	 Singles Energy            =      -0.0000000000000000 [Eh]
	 Same-Spin Energy          =      -0.4008851755461214 [Eh]
	 Opposite-Spin Energy      =      -1.2724823787306696 [Eh]
	 Correlation Energy        =      -1.6733675542767910 [Eh]
	 Total Energy              =    -364.3943841184052985 [Eh]

	 ================> DF-SCS-MP2 Energies <==================
	-----------------------------------------------------------
	 SCS Same-Spin Scale       =       0.3333333333333333 [-]
	 SCS Opposite-Spin Scale   =       1.2000000000000000 [-]
	 SCS Same-Spin Energy      =      -0.1336283918487071 [Eh]
	 SCS Opposite-Spin Energy  =      -1.5269788544768035 [Eh]
	 SCS Correlation Energy    =      -1.6606072463255106 [Eh]
	 SCS Total Energy          =    -364.3816238104540162 [Eh]
	-----------------------------------------------------------

  Dipole Moment: [D]
     X:    -0.7226      Y:     1.3688      Z:     0.0000     Total:     1.5478

*** Psi4 exiting successfully. Buy a developer a beer!
