                               Psi4 1.3.2 release

  ==> Input File <==

--------------------------------------------------------------------------
#psi4
#
memory 32 gb

molecule  {
0 1
  N       -0.1927630    -0.9977240    -0.0000150
  C        1.5548850     0.6585710    -0.0000200
  C        2.5002668    -0.2486342     0.7544096
  C        2.5204490    -0.2332040    -0.7472480
  C        0.1136930     0.3165400    -0.0000200
  C       -0.8720480     1.3127960    -0.0000140
  C       -2.2145020     0.9424750     0.0000090
  C       -1.4919940    -1.3393890    -0.0000040
  C       -2.5359710    -0.4146030     0.0000120
  H        1.7762130     1.7233350    -0.0000520
  H        2.0808840    -1.0925120     1.2420040
  H        3.3438860     0.2425840     1.2704470
  H        3.3439250     0.2425520    -1.2703830
  H        2.0809520    -1.0925710    -1.2419630
  H       -0.5837830     2.3612850    -0.0000220
  H       -2.9953690     1.6993840     0.0000210
  H       -1.6982570    -2.4088260    -0.0000060
  H       -3.5687280    -0.7512850     0.0000410
units angstrom
no_reorient  #important for SAPT in psi4, default
symmetry c1  #important for SAPT in psi4, default
}

set PROPERTIES_ORIGIN ["COM"]
properties('MP2/aug-cc-pvtz', properties = ['dipole'])
--------------------------------------------------------------------------

    Molecular point group: c1
  Charge       = 0
  Multiplicity = 1
  Basis Set: AUG-CC-PVTZ
    Blend: AUG-CC-PVTZ
  Basis Set: (AUG-CC-PVTZ AUX)
    Blend: AUG-CC-PVTZ-JKFIT

    Orbital Energies [Eh]
    ---------------------

    Doubly Occupied:

       1A    -15.558348     2A    -11.281816     3A    -11.274914
       4A    -11.258254     5A    -11.235440     6A    -11.234813
       7A    -11.234390     8A    -11.224150     9A    -11.223465
      10A     -1.254435    11A     -1.141767    12A     -1.081924
      13A     -1.028856    14A     -0.883649    15A     -0.854037
      16A     -0.818127    17A     -0.786991    18A     -0.708696
      19A     -0.671160    20A     -0.650436    21A     -0.629801
      22A     -0.609083    23A     -0.573508    24A     -0.547276
      25A     -0.544220    26A     -0.509546    27A     -0.504663
      28A     -0.437339    29A     -0.428995    30A     -0.409442
      31A     -0.377575    32A     -0.323180

  @DF-RHF Final Energy:  -362.72355059969971

   => Energetics <=

    Nuclear Repulsion Energy =            409.3326148304664116
    One-Electron Energy =               -1301.5117367394127541
    Two-Electron Energy =                 529.4555713092466931
    Total Energy =                       -362.7235505996997063
  Basis Set: (AUG-CC-PVTZ AUX)
    Blend: AUG-CC-PVTZ-RI
    Molecular point group: c1

    Geometry (in Angstrom), charge = 0, multiplicity = 1:

       Center              X                  Y                   Z               Mass
    ------------   -----------------  -----------------  -----------------  -----------------
         N           -0.159232201597    -0.988440611947    -0.000731975945    14.003074004430
         C            1.588415798403     0.667854388053    -0.000736975945    12.000000000000
         C            2.533797598403    -0.239350811947     0.753692624055    12.000000000000
         C            2.553979798403    -0.223920611947    -0.747964975945    12.000000000000
         C            0.147223798403     0.325823388053    -0.000736975945    12.000000000000
         C           -0.838517201597     1.322079388053    -0.000730975945    12.000000000000
         C           -2.180971201597     0.951758388053    -0.000707975945    12.000000000000
         C           -1.458463201597    -1.330105611947    -0.000720975945    12.000000000000
         C           -2.502440201597    -0.405319611947    -0.000704975945    12.000000000000
         H            1.809743798403     1.732618388053    -0.000768975945     1.007825032230
         H            2.114414798403    -1.083228611947     1.241287024055     1.007825032230
         H            3.377416798403     0.251867388053     1.269730024055     1.007825032230
         H            3.377455798403     0.251835388053    -1.271099975945     1.007825032230
         H            2.114482798403    -1.083287611947    -1.242679975945     1.007825032230
         H           -0.550252201597     2.370568388053    -0.000738975945     1.007825032230
         H           -2.961838201597     1.708667388053    -0.000695975945     1.007825032230
         H           -1.664726201597    -2.399542611947    -0.000722975945     1.007825032230
         H           -3.535197201597    -0.742001611947    -0.000675975945     1.007825032230

  Basis Set: AUG-CC-PVTZ
    Blend: AUG-CC-PVTZ
  Basis Set: (AUG-CC-PVTZ AUX)
    Blend: AUG-CC-PVTZ-JKFIT
	 Reference Energy          =    -362.7235505996997063 [Eh]
	 Singles Energy            =      -0.0000000000000000 [Eh]
	 Same-Spin Energy          =      -0.4016015307614180 [Eh]
	 Opposite-Spin Energy      =      -1.2749810576715641 [Eh]
	 Correlation Energy        =      -1.6765825884329821 [Eh]
	 Total Energy              =    -364.4001331881327133 [Eh]

	 ================> DF-SCS-MP2 Energies <==================
	-----------------------------------------------------------
	 SCS Same-Spin Scale       =       0.3333333333333333 [-]
	 SCS Opposite-Spin Scale   =       1.2000000000000000 [-]
	 SCS Same-Spin Energy      =      -0.1338671769204727 [Eh]
	 SCS Opposite-Spin Energy  =      -1.5299772692058768 [Eh]
	 SCS Correlation Energy    =      -1.6638444461263495 [Eh]
	 SCS Total Energy          =    -364.3873950458260538 [Eh]
	-----------------------------------------------------------

  Dipole Moment: [D]
     X:    -0.9800      Y:     1.4249      Z:    -0.0071     Total:     1.7294

*** Psi4 exiting successfully. Buy a developer a beer!
