                               Psi4 1.3.2 release

  ==> Input File <==

--------------------------------------------------------------------------
#psi4
#
memory 32 gb

molecule  {
0 1
  N       -0.1927630    -0.9977240    -0.0000150
  C        1.5548850     0.6585710    -0.0000200
  C        2.5204250    -0.2331670     0.7472870
  C        2.5204490    -0.2332040    -0.7472480
  C        0.0163955     0.2934489    -0.0000200
  C       -0.8720480     1.3127960    -0.0000140
  C       -2.2145020     0.9424750     0.0000090
  C       -1.4919940    -1.3393890    -0.0000040
  C       -2.5359710    -0.4146030     0.0000120
  H        1.7762130     1.7233350    -0.0000520
  H        2.0808840    -1.0925120     1.2420040
  H        3.3438860     0.2425840     1.2704470
  H        3.3439250     0.2425520    -1.2703830
  H        2.0809520    -1.0925710    -1.2419630
  H       -0.5837830     2.3612850    -0.0000220
  H       -2.9953690     1.6993840     0.0000210
  H       -1.6982570    -2.4088260    -0.0000060
  H       -3.5687280    -0.7512850     0.0000410
units angstrom
no_reorient  #important for SAPT in psi4, default
symmetry c1  #important for SAPT in psi4, default
}

set PROPERTIES_ORIGIN ["COM"]
properties('MP2/aug-cc-pvtz', properties = ['dipole'])
--------------------------------------------------------------------------

    Molecular point group: c1
  Charge       = 0
  Multiplicity = 1
  Basis Set: AUG-CC-PVTZ
    Blend: AUG-CC-PVTZ
  Basis Set: (AUG-CC-PVTZ AUX)
    Blend: AUG-CC-PVTZ-JKFIT

    Orbital Energies [Eh]
    ---------------------

    Doubly Occupied:

       1A    -15.560190     2A    -11.278087     3A    -11.276512
       4A    -11.261403     5A    -11.237489     6A    -11.232735
       7A    -11.231832     8A    -11.217895     9A    -11.217197
      10A     -1.271989    11A     -1.132279    12A     -1.092337
      13A     -1.033120    14A     -0.873007    15A     -0.860633
      16A     -0.811208    17A     -0.784547    18A     -0.709891
      19A     -0.670709    20A     -0.652353    21A     -0.631467
      22A     -0.607724    23A     -0.575810    24A     -0.555986
      25A     -0.545898    26A     -0.504049    27A     -0.486006
      28A     -0.433358    29A     -0.426163    30A     -0.408516
      31A     -0.383120    32A     -0.333840

  @DF-RHF Final Energy:  -362.71547949296382

   => Energetics <=

    Nuclear Repulsion Energy =            409.7448598549439680
    One-Electron Energy =               -1302.3259729118897212
    Two-Electron Energy =                 529.8656335639818735
    Total Energy =                       -362.7154794929638228
  Basis Set: (AUG-CC-PVTZ AUX)
    Blend: AUG-CC-PVTZ-RI
    Molecular point group: c1

    Geometry (in Angstrom), charge = 0, multiplicity = 1:

       Center              X                  Y                   Z               Mass
    ------------   -----------------  -----------------  -----------------  -----------------
         N           -0.151458250168    -0.987672289856    -0.000014173911    14.003074004430
         C            1.596189749832     0.668622710144    -0.000019173911    12.000000000000
         C            2.561729749832    -0.223115289856     0.747287826089    12.000000000000
         C            2.561753749832    -0.223152289856    -0.747247173911    12.000000000000
         C            0.057700249832     0.303500610144    -0.000019173911    12.000000000000
         C           -0.830743250168     1.322847710144    -0.000013173911    12.000000000000
         C           -2.173197250168     0.952526710144     0.000009826089    12.000000000000
         C           -1.450689250168    -1.329337289856    -0.000003173911    12.000000000000
         C           -2.494666250168    -0.404551289856     0.000012826089    12.000000000000
         H            1.817517749832     1.733386710144    -0.000051173911     1.007825032230
         H            2.122188749832    -1.082460289856     1.242004826089     1.007825032230
         H            3.385190749832     0.252635710144     1.270447826089     1.007825032230
         H            3.385229749832     0.252603710144    -1.270382173911     1.007825032230
         H            2.122256749832    -1.082519289856    -1.241962173911     1.007825032230
         H           -0.542478250168     2.371336710144    -0.000021173911     1.007825032230
         H           -2.954064250168     1.709435710144     0.000021826089     1.007825032230
         H           -1.656952250168    -2.398774289856    -0.000005173911     1.007825032230
         H           -3.527423250168    -0.741233289856     0.000041826089     1.007825032230

  Basis Set: AUG-CC-PVTZ
    Blend: AUG-CC-PVTZ
  Basis Set: (AUG-CC-PVTZ AUX)
    Blend: AUG-CC-PVTZ-JKFIT
	 Reference Energy          =    -362.7154794929638228 [Eh]
	 Singles Energy            =      -0.0000000000000000 [Eh]
	 Same-Spin Energy          =      -0.4007837248245317 [Eh]
	 Opposite-Spin Energy      =      -1.2737965507483833 [Eh]
	 Correlation Energy        =      -1.6745802755729149 [Eh]
	 Total Energy              =    -364.3900597685367302 [Eh]

	 ================> DF-SCS-MP2 Energies <==================
	-----------------------------------------------------------
	 SCS Same-Spin Scale       =       0.3333333333333333 [-]
	 SCS Opposite-Spin Scale   =       1.2000000000000000 [-]
	 SCS Same-Spin Energy      =      -0.1335945749415106 [Eh]
	 SCS Opposite-Spin Energy  =      -1.5285558608980598 [Eh]
	 SCS Correlation Energy    =      -1.6621504358395705 [Eh]
	 SCS Total Energy          =    -364.3776299288034011 [Eh]
	-----------------------------------------------------------

  Dipole Moment: [D]
     X:    -1.4441      Y:     1.3958      Z:     0.0000     Total:     2.0084

*** Psi4 exiting successfully. Buy a developer a beer!
