                               Psi4 1.3.2 release

  ==> Input File <==

--------------------------------------------------------------------------
#psi4
#
memory 32 gb

molecule  {
0 1
  N       -0.1927630    -0.9977240    -0.0000150
  C        1.5548850     0.6585710    -0.0000200
  C        2.5204250    -0.2331670     0.7472870
  C        2.5204490    -0.2332040    -0.7472480
  C        0.1573400     0.1677681    -0.0000150
  C       -0.8720480     1.3127960    -0.0000140
  C       -2.2145020     0.9424750     0.0000090
  C       -1.4919940    -1.3393890    -0.0000040
  C       -2.5359710    -0.4146030     0.0000120
  H        1.7762130     1.7233350    -0.0000520
  H        2.0808840    -1.0925120     1.2420040
  H        3.3438860     0.2425840     1.2704470
  H        3.3439250     0.2425520    -1.2703830
  H        2.0809520    -1.0925710    -1.2419630
  H       -0.5837830     2.3612850    -0.0000220
  H       -2.9953690     1.6993840     0.0000210
  H       -1.6982570    -2.4088260    -0.0000060
  H       -3.5687280    -0.7512850     0.0000410
units angstrom
no_reorient  #important for SAPT in psi4, default
symmetry c1  #important for SAPT in psi4, default
}

set PROPERTIES_ORIGIN ["COM"]
properties('MP2/aug-cc-pvtz', properties = ['dipole'])
--------------------------------------------------------------------------

    Molecular point group: c1
  Charge       = 0
  Multiplicity = 1
  Basis Set: AUG-CC-PVTZ
    Blend: AUG-CC-PVTZ
  Basis Set: (AUG-CC-PVTZ AUX)
    Blend: AUG-CC-PVTZ-JKFIT

    Orbital Energies [Eh]
    ---------------------

    Doubly Occupied:

       1A    -15.547536     2A    -11.283903     3A    -11.273619
       4A    -11.251737     5A    -11.243580     6A    -11.234871
       7A    -11.234781     8A    -11.225069     9A    -11.224373
      10A     -1.290632    11A     -1.146923    12A     -1.085092
      13A     -1.015492    14A     -0.879326    15A     -0.864231
      16A     -0.819442    17A     -0.779388    18A     -0.713495
      19A     -0.670077    20A     -0.661876    21A     -0.632069
      22A     -0.594592    23A     -0.572969    24A     -0.561954
      25A     -0.545895    26A     -0.520213    27A     -0.509973
      28A     -0.437363    29A     -0.431753    30A     -0.388479
      31A     -0.387785    32A     -0.313818

  @DF-RHF Final Energy:  -362.69938367250114

   => Energetics <=

    Nuclear Repulsion Energy =            410.1690417428573028
    One-Electron Energy =               -1303.0522405857466310
    Two-Electron Energy =                 530.1838151703882431
    Total Energy =                       -362.6993836725010851
  Basis Set: (AUG-CC-PVTZ AUX)
    Blend: AUG-CC-PVTZ-RI
    Molecular point group: c1

    Geometry (in Angstrom), charge = 0, multiplicity = 1:

       Center              X                  Y                   Z               Mass
    ------------   -----------------  -----------------  -----------------  -----------------
         N           -0.165662367877    -0.975006418701    -0.000014677801    14.003074004430
         C            1.581985632123     0.681288581299    -0.000019677801    12.000000000000
         C            2.547525632123    -0.210449418701     0.747287322199    12.000000000000
         C            2.547549632123    -0.210486418701    -0.747247677801    12.000000000000
         C            0.184440632123     0.190485681299    -0.000014677801    12.000000000000
         C           -0.844947367877     1.335513581299    -0.000013677801    12.000000000000
         C           -2.187401367877     0.965192581299     0.000009322199    12.000000000000
         C           -1.464893367877    -1.316671418701    -0.000003677801    12.000000000000
         C           -2.508870367877    -0.391885418701     0.000012322199    12.000000000000
         H            1.803313632123     1.746052581299    -0.000051677801     1.007825032230
         H            2.107984632123    -1.069794418701     1.242004322199     1.007825032230
         H            3.370986632123     0.265301581299     1.270447322199     1.007825032230
         H            3.371025632123     0.265269581299    -1.270382677801     1.007825032230
         H            2.108052632123    -1.069853418701    -1.241962677801     1.007825032230
         H           -0.556682367877     2.384002581299    -0.000021677801     1.007825032230
         H           -2.968268367877     1.722101581299     0.000021322199     1.007825032230
         H           -1.671156367877    -2.386108418701    -0.000005677801     1.007825032230
         H           -3.541627367877    -0.728567418701     0.000041322199     1.007825032230

  Basis Set: AUG-CC-PVTZ
    Blend: AUG-CC-PVTZ
  Basis Set: (AUG-CC-PVTZ AUX)
    Blend: AUG-CC-PVTZ-JKFIT
	 Reference Energy          =    -362.6993836725011420 [Eh]
	 Singles Energy            =      -0.0000000000000000 [Eh]
	 Same-Spin Energy          =      -0.4002071225285784 [Eh]
	 Opposite-Spin Energy      =      -1.2737663901877123 [Eh]
	 Correlation Energy        =      -1.6739735127162907 [Eh]
	 Total Energy              =    -364.3733571852174578 [Eh]

	 ================> DF-SCS-MP2 Energies <==================
	-----------------------------------------------------------
	 SCS Same-Spin Scale       =       0.3333333333333333 [-]
	 SCS Opposite-Spin Scale   =       1.2000000000000000 [-]
	 SCS Same-Spin Energy      =      -0.1334023741761928 [Eh]
	 SCS Opposite-Spin Energy  =      -1.5285196682252546 [Eh]
	 SCS Correlation Energy    =      -1.6619220424014474 [Eh]
	 SCS Total Energy          =    -364.3613057149025849 [Eh]
	-----------------------------------------------------------

  Dipole Moment: [D]
     X:    -0.7582      Y:     1.3947      Z:     0.0000     Total:     1.5874

*** Psi4 exiting successfully. Buy a developer a beer!
