                               Psi4 1.3.2 release

  ==> Input File <==

--------------------------------------------------------------------------
#psi4
#
memory 32 gb

molecule  {
0 1
  N       -0.1927630    -0.9977240    -0.0000150
  C        1.5548850     0.6585710    -0.0000200
  C        2.4798206    -0.2638250     0.7613023
  C        2.5204490    -0.2332040    -0.7472480
  C        0.1136930     0.3165400    -0.0000200
  C       -0.8720480     1.3127960    -0.0000140
  C       -2.2145020     0.9424750     0.0000090
  C       -1.4919940    -1.3393890    -0.0000040
  C       -2.5359710    -0.4146030     0.0000120
  H        1.7762130     1.7233350    -0.0000520
  H        2.0808840    -1.0925120     1.2420040
  H        3.3438860     0.2425840     1.2704470
  H        3.3439250     0.2425520    -1.2703830
  H        2.0809520    -1.0925710    -1.2419630
  H       -0.5837830     2.3612850    -0.0000220
  H       -2.9953690     1.6993840     0.0000210
  H       -1.6982570    -2.4088260    -0.0000060
  H       -3.5687280    -0.7512850     0.0000410
units angstrom
no_reorient  #important for SAPT in psi4, default
symmetry c1  #important for SAPT in psi4, default
}

set PROPERTIES_ORIGIN ["COM"]
properties('MP2/aug-cc-pvtz', properties = ['dipole'])
--------------------------------------------------------------------------

    Molecular point group: c1
  Charge       = 0
  Multiplicity = 1
  Basis Set: AUG-CC-PVTZ
    Blend: AUG-CC-PVTZ
  Basis Set: (AUG-CC-PVTZ AUX)
    Blend: AUG-CC-PVTZ-JKFIT

    Orbital Energies [Eh]
    ---------------------

    Doubly Occupied:

       1A    -15.558320     2A    -11.281707     3A    -11.274985
       4A    -11.258284     5A    -11.235375     6A    -11.234984
       7A    -11.234791     8A    -11.224412     9A    -11.223731
      10A     -1.254534    11A     -1.140965    12A     -1.081914
      13A     -1.028539    14A     -0.883525    15A     -0.854024
      16A     -0.819610    17A     -0.787313    18A     -0.709229
      19A     -0.670386    20A     -0.651324    21A     -0.628133
      22A     -0.610094    23A     -0.573626    24A     -0.547096
      25A     -0.544482    26A     -0.510545    27A     -0.504766
      28A     -0.438386    29A     -0.427470    30A     -0.408414
      31A     -0.377571    32A     -0.323269

  @DF-RHF Final Energy:  -362.72100972971799

   => Energetics <=

    Nuclear Repulsion Energy =            409.4392839536787960
    One-Electron Energy =               -1301.7169800548929288
    Two-Electron Energy =                 529.5566863714961983
    Total Energy =                       -362.7210097297179345
  Basis Set: (AUG-CC-PVTZ AUX)
    Blend: AUG-CC-PVTZ-RI
    Molecular point group: c1

    Geometry (in Angstrom), charge = 0, multiplicity = 1:

       Center              X                  Y                   Z               Mass
    ------------   -----------------  -----------------  -----------------  -----------------
         N           -0.157171672583    -0.986909712116    -0.001426609096    14.003074004430
         C            1.590476327417     0.669385287884    -0.001431609096    12.000000000000
         C            2.515411927417    -0.253010712116     0.759890690904    12.000000000000
         C            2.556040327417    -0.222389712116    -0.748659609096    12.000000000000
         C            0.149284327417     0.327354287884    -0.001431609096    12.000000000000
         C           -0.836456672583     1.323610287884    -0.001425609096    12.000000000000
         C           -2.178910672583     0.953289287884    -0.001402609096    12.000000000000
         C           -1.456402672583    -1.328574712116    -0.001415609096    12.000000000000
         C           -2.500379672583    -0.403788712116    -0.001399609096    12.000000000000
         H            1.811804327417     1.734149287884    -0.001463609096     1.007825032230
         H            2.116475327417    -1.081697712116     1.240592390904     1.007825032230
         H            3.379477327417     0.253398287884     1.269035390904     1.007825032230
         H            3.379516327417     0.253366287884    -1.271794609096     1.007825032230
         H            2.116543327417    -1.081756712116    -1.243374609096     1.007825032230
         H           -0.548191672583     2.372099287884    -0.001433609096     1.007825032230
         H           -2.959777672583     1.710198287884    -0.001390609096     1.007825032230
         H           -1.662665672583    -2.398011712116    -0.001417609096     1.007825032230
         H           -3.533136672583    -0.740470712116    -0.001370609096     1.007825032230

  Basis Set: AUG-CC-PVTZ
    Blend: AUG-CC-PVTZ
  Basis Set: (AUG-CC-PVTZ AUX)
    Blend: AUG-CC-PVTZ-JKFIT
	 Reference Energy          =    -362.7210097297179914 [Eh]
	 Singles Energy            =      -0.0000000000000000 [Eh]
	 Same-Spin Energy          =      -0.4016026762614257 [Eh]
	 Opposite-Spin Energy      =      -1.2751325747843461 [Eh]
	 Correlation Energy        =      -1.6767352510457716 [Eh]
	 Total Energy              =    -364.3977449807637754 [Eh]

	 ================> DF-SCS-MP2 Energies <==================
	-----------------------------------------------------------
	 SCS Same-Spin Scale       =       0.3333333333333333 [-]
	 SCS Opposite-Spin Scale   =       1.2000000000000000 [-]
	 SCS Same-Spin Energy      =      -0.1338675587538085 [Eh]
	 SCS Opposite-Spin Energy  =      -1.5301590897412152 [Eh]
	 SCS Correlation Energy    =      -1.6640266484950237 [Eh]
	 SCS Total Energy          =    -364.3850363782129875 [Eh]
	-----------------------------------------------------------

  Dipole Moment: [D]
     X:    -0.9891      Y:     1.4248      Z:    -0.0172     Total:     1.7346

*** Psi4 exiting successfully. Buy a developer a beer!
