                               Psi4 1.3.2 release

  ==> Input File <==

--------------------------------------------------------------------------
#psi4
#
memory 32 gb

molecule  {
0 1
  N       -0.1927630    -0.9977240    -0.0000150
  C        1.5548850     0.6585710    -0.0000200
  C        2.5204250    -0.2331670     0.7472870
  C        2.5204490    -0.2332040    -0.7472480
  C        0.2109905     0.3396311    -0.0000200
  C       -0.8720480     1.3127960    -0.0000140
  C       -2.2145020     0.9424750     0.0000090
  C       -1.4919940    -1.3393890    -0.0000040
  C       -2.5359710    -0.4146030     0.0000120
  H        1.7762130     1.7233350    -0.0000520
  H        2.0808840    -1.0925120     1.2420040
  H        3.3438860     0.2425840     1.2704470
  H        3.3439250     0.2425520    -1.2703830
  H        2.0809520    -1.0925710    -1.2419630
  H       -0.5837830     2.3612850    -0.0000220
  H       -2.9953690     1.6993840     0.0000210
  H       -1.6982570    -2.4088260    -0.0000060
  H       -3.5687280    -0.7512850     0.0000410
units angstrom
no_reorient  #important for SAPT in psi4, default
symmetry c1  #important for SAPT in psi4, default
}

set PROPERTIES_ORIGIN ["COM"]
properties('MP2/aug-cc-pvtz', properties = ['dipole'])
--------------------------------------------------------------------------

    Molecular point group: c1
  Charge       = 0
  Multiplicity = 1
  Basis Set: AUG-CC-PVTZ
    Blend: AUG-CC-PVTZ
  Basis Set: (AUG-CC-PVTZ AUX)
    Blend: AUG-CC-PVTZ-JKFIT

    Orbital Energies [Eh]
    ---------------------

    Doubly Occupied:

       1A    -15.556428     2A    -11.288820     3A    -11.271717
       4A    -11.254998     5A    -11.238683     6A    -11.234312
       7A    -11.231562     8A    -11.231141     9A    -11.230923
      10A     -1.239306    11A     -1.154786    12A     -1.072889
      13A     -1.026134    14A     -0.901658    15A     -0.844297
      16A     -0.824365    17A     -0.786571    18A     -0.709560
      19A     -0.674846    20A     -0.651581    21A     -0.629335
      22A     -0.602851    23A     -0.570635    24A     -0.545206
      25A     -0.543096    26A     -0.518022    27A     -0.511899
      28A     -0.447126    29A     -0.435387    30A     -0.398338
      31A     -0.372111    32A     -0.310551

  @DF-RHF Final Energy:  -362.70640631442154

   => Energetics <=

    Nuclear Repulsion Energy =            408.8721456232034370
    One-Electron Energy =               -1300.5388362207356749
    Two-Electron Energy =                 528.9602842831106955
    Total Energy =                       -362.7064063144215424
  Basis Set: (AUG-CC-PVTZ AUX)
    Blend: AUG-CC-PVTZ-RI
    Molecular point group: c1

    Geometry (in Angstrom), charge = 0, multiplicity = 1:

       Center              X                  Y                   Z               Mass
    ------------   -----------------  -----------------  -----------------  -----------------
         N           -0.171069162871    -0.992326443830    -0.000014173911    14.003074004430
         C            1.576578837129     0.663968556170    -0.000019173911    12.000000000000
         C            2.542118837129    -0.227769443830     0.747287826089    12.000000000000
         C            2.542142837129    -0.227806443830    -0.747247173911    12.000000000000
         C            0.232684337129     0.345028656170    -0.000019173911    12.000000000000
         C           -0.850354162871     1.318193556170    -0.000013173911    12.000000000000
         C           -2.192808162871     0.947872556170     0.000009826089    12.000000000000
         C           -1.470300162871    -1.333991443830    -0.000003173911    12.000000000000
         C           -2.514277162871    -0.409205443830     0.000012826089    12.000000000000
         H            1.797906837129     1.728732556170    -0.000051173911     1.007825032230
         H            2.102577837129    -1.087114443830     1.242004826089     1.007825032230
         H            3.365579837129     0.247981556170     1.270447826089     1.007825032230
         H            3.365618837129     0.247949556170    -1.270382173911     1.007825032230
         H            2.102645837129    -1.087173443830    -1.241962173911     1.007825032230
         H           -0.562089162871     2.366682556170    -0.000021173911     1.007825032230
         H           -2.973675162871     1.704781556170     0.000021826089     1.007825032230
         H           -1.676563162871    -2.403428443830    -0.000005173911     1.007825032230
         H           -3.547034162871    -0.745887443830     0.000041826089     1.007825032230

  Basis Set: AUG-CC-PVTZ
    Blend: AUG-CC-PVTZ
  Basis Set: (AUG-CC-PVTZ AUX)
    Blend: AUG-CC-PVTZ-JKFIT
	 Reference Energy          =    -362.7064063144215424 [Eh]
	 Singles Energy            =      -0.0000000000000000 [Eh]
	 Same-Spin Energy          =      -0.4036632728771478 [Eh]
	 Opposite-Spin Energy      =      -1.2781754788518831 [Eh]
	 Correlation Energy        =      -1.6818387517290310 [Eh]
	 Total Energy              =    -364.3882450661505459 [Eh]

	 ================> DF-SCS-MP2 Energies <==================
	-----------------------------------------------------------
	 SCS Same-Spin Scale       =       0.3333333333333333 [-]
	 SCS Opposite-Spin Scale   =       1.2000000000000000 [-]
	 SCS Same-Spin Energy      =      -0.1345544242923826 [Eh]
	 SCS Opposite-Spin Energy  =      -1.5338105746222597 [Eh]
	 SCS Correlation Energy    =      -1.6683649989146423 [Eh]
	 SCS Total Energy          =    -364.3747713133361685 [Eh]
	-----------------------------------------------------------

  Dipole Moment: [D]
     X:    -0.4451      Y:     1.4530      Z:     0.0000     Total:     1.5196

*** Psi4 exiting successfully. Buy a developer a beer!
