                               Psi4 1.4a3.dev225

  ==> Input File <==

--------------------------------------------------------------------------
#psi4
#
memory 32 gb

molecule  {
0 1
  N       -0.1927630    -0.9977240    -0.0000150
  C        1.5548850     0.6585710    -0.0000200
  C        2.5204250    -0.2331670     0.7472870
  C        2.5204490    -0.2332040    -0.7472480
  C        0.0942335     0.3119218    -0.0000200
  C       -0.8720480     1.3127960    -0.0000140
  C       -2.2145020     0.9424750     0.0000090
  C       -1.4919940    -1.3393890    -0.0000040
  C       -2.5359710    -0.4146030     0.0000120
  H        1.7762130     1.7233350    -0.0000520
  H        2.0808840    -1.0925120     1.2420040
  H        3.3438860     0.2425840     1.2704470
  H        3.3439250     0.2425520    -1.2703830
  H        2.0809520    -1.0925710    -1.2419630
  H       -0.5837830     2.3612850    -0.0000220
  H       -2.9953690     1.6993840     0.0000210
  H       -1.6982570    -2.4088260    -0.0000060
  H       -3.5687280    -0.7512850     0.0000410
units angstrom
no_reorient  #important for SAPT in psi4, default
symmetry c1  #important for SAPT in psi4, default
}

set PROPERTIES_ORIGIN ["COM"]
properties('MP2/aug-cc-pvtz', properties = ['dipole'])
--------------------------------------------------------------------------

    Molecular point group: c1
  Charge       = 0
  Multiplicity = 1
  Basis Set: AUG-CC-PVTZ
    Blend: AUG-CC-PVTZ
  Basis Set: (AUG-CC-PVTZ AUX)
    Blend: AUG-CC-PVTZ-JKFIT

    Orbital Energies [Eh]
    ---------------------

    Doubly Occupied:

       1A    -15.558737     2A    -11.280706     3A    -11.275487
       4A    -11.258867     5A    -11.235442     6A    -11.234900
       7A    -11.233661     8A    -11.222707     9A    -11.222011
      10A     -1.257741    11A     -1.140422    12A     -1.083889
      13A     -1.029957    14A     -0.880868    15A     -0.855855
      16A     -0.815924    17A     -0.786502    18A     -0.708254
      19A     -0.671627    20A     -0.649947    21A     -0.631627
      22A     -0.608755    23A     -0.573982    24A     -0.549002
      25A     -0.544062    26A     -0.507252    27A     -0.500867
      28A     -0.434032    29A     -0.430484    30A     -0.411252
      31A     -0.378685    32A     -0.325380

  @DF-RHF Final Energy:  -362.72457988119322

   => Energetics <=

    Nuclear Repulsion Energy =            409.3233000029853770
    One-Electron Energy =               -1301.4979925917623405
    Two-Electron Energy =                 529.4501127075836848
    Total Energy =                       -362.7245798811932218
  Basis Set: (AUG-CC-PVTZ AUX)
    Blend: AUG-CC-PVTZ-RI
    Molecular point group: c1

    Geometry (in Angstrom), charge = 0, multiplicity = 1:

       Center              X                  Y                   Z               Mass
    ------------   -----------------  -----------------  -----------------  -----------------
         N           -0.159302615249    -0.989533953461    -0.000014173911    14.003074004430
         C            1.588345384751     0.666761046539    -0.000019173911    12.000000000000
         C            2.553885384751    -0.224976953461     0.747287826089    12.000000000000
         C            2.553909384751    -0.225013953461    -0.747247173911    12.000000000000
         C            0.127693884751     0.320111846539    -0.000019173911    12.000000000000
         C           -0.838587615249     1.320986046539    -0.000013173911    12.000000000000
         C           -2.181041615249     0.950665046539     0.000009826089    12.000000000000
         C           -1.458533615249    -1.331198953461    -0.000003173911    12.000000000000
         C           -2.502510615249    -0.406412953461     0.000012826089    12.000000000000
         H            1.809673384751     1.731525046539    -0.000051173911     1.007825032230
         H            2.114344384751    -1.084321953461     1.242004826089     1.007825032230
         H            3.377346384751     0.250774046539     1.270447826089     1.007825032230
         H            3.377385384751     0.250742046539    -1.270382173911     1.007825032230
         H            2.114412384751    -1.084380953461    -1.241962173911     1.007825032230
         H           -0.550322615249     2.369475046539    -0.000021173911     1.007825032230
         H           -2.961908615249     1.707574046539     0.000021826089     1.007825032230
         H           -1.664796615249    -2.400635953461    -0.000005173911     1.007825032230
         H           -3.535267615249    -0.743094953461     0.000041826089     1.007825032230

  Basis Set: AUG-CC-PVTZ
    Blend: AUG-CC-PVTZ
  Basis Set: (AUG-CC-PVTZ AUX)
    Blend: AUG-CC-PVTZ-JKFIT
	 Reference Energy          =    -362.7245798811932218 [Eh]
	 Singles Energy            =      -0.0000000000000000 [Eh]
	 Same-Spin Energy          =      -0.4013634709145210 [Eh]
	 Opposite-Spin Energy      =      -1.2745299547718232 [Eh]
	 Correlation Energy        =      -1.6758934256863443 [Eh]
	 Total Energy              =    -364.4004733068795758 [Eh]

	 ================> DF-SCS-MP2 Energies <==================
	-----------------------------------------------------------
	 SCS Same-Spin Scale       =       0.3333333333333333 [-]
	 SCS Opposite-Spin Scale   =       1.2000000000000000 [-]
	 SCS Same-Spin Energy      =      -0.1337878236381737 [Eh]
	 SCS Opposite-Spin Energy  =      -1.5294359457261877 [Eh]
	 SCS Correlation Energy    =      -1.6632237693643612 [Eh]
	 SCS Total Energy          =    -364.3878036505576006 [Eh]
	-----------------------------------------------------------

  Dipole Moment: [D]
     X:    -1.0706      Y:     1.4205      Z:     0.0000     Total:     1.7788

*** Psi4 exiting successfully. Buy a developer a beer!
