                               Psi4 1.3.2 release

  ==> Input File <==

--------------------------------------------------------------------------
#psi4
#
memory 32 gb

molecule  {
0 1
  N       -0.1927630    -0.9977240    -0.0000150
  C        1.5548850     0.6585710    -0.0000200
  C        2.5204250    -0.2331670     0.7472870
  C        2.5204490    -0.2332040    -0.7472480
  C        0.3082880     0.3627223    -0.0000200
  C       -0.8720480     1.3127960    -0.0000140
  C       -2.2145020     0.9424750     0.0000090
  C       -1.4919940    -1.3393890    -0.0000040
  C       -2.5359710    -0.4146030     0.0000120
  H        1.7762130     1.7233350    -0.0000520
  H        2.0808840    -1.0925120     1.2420040
  H        3.3438860     0.2425840     1.2704470
  H        3.3439250     0.2425520    -1.2703830
  H        2.0809520    -1.0925710    -1.2419630
  H       -0.5837830     2.3612850    -0.0000220
  H       -2.9953690     1.6993840     0.0000210
  H       -1.6982570    -2.4088260    -0.0000060
  H       -3.5687280    -0.7512850     0.0000410
units angstrom
no_reorient  #important for SAPT in psi4, default
symmetry c1  #important for SAPT in psi4, default
}

set PROPERTIES_ORIGIN ["COM"]
properties('MP2/aug-cc-pvtz', properties = ['dipole'])
--------------------------------------------------------------------------

    Molecular point group: c1
  Charge       = 0
  Multiplicity = 1
  Basis Set: AUG-CC-PVTZ
    Blend: AUG-CC-PVTZ
  Basis Set: (AUG-CC-PVTZ AUX)
    Blend: AUG-CC-PVTZ-JKFIT

    Orbital Energies [Eh]
    ---------------------

    Doubly Occupied:

       1A    -15.553097     2A    -11.295399     3A    -11.268149
       4A    -11.251218     5A    -11.241731     6A    -11.241012
       7A    -11.240977     8A    -11.233675     9A    -11.225460
      10A     -1.230473    11A     -1.166644    12A     -1.064016
      13A     -1.026534    14A     -0.920251    15A     -0.834036
      16A     -0.833543    17A     -0.783304    18A     -0.714909
      19A     -0.677484    20A     -0.657563    21A     -0.624597
      22A     -0.591942    23A     -0.567384    24A     -0.554131
      25A     -0.544594    26A     -0.518501    27A     -0.516146
      28A     -0.458080    29A     -0.443410    30A     -0.380754
      31A     -0.366397    32A     -0.296007

  @DF-RHF Final Energy:  -362.65605955367823

   => Energetics <=

    Nuclear Repulsion Energy =            408.7207289355007447
    One-Electron Energy =               -1300.1107404659371696
    Two-Electron Energy =                 528.7339519767581351
    Total Energy =                       -362.6560595536782330
  Basis Set: (AUG-CC-PVTZ AUX)
    Blend: AUG-CC-PVTZ-RI
    Molecular point group: c1

    Geometry (in Angstrom), charge = 0, multiplicity = 1:

       Center              X                  Y                   Z               Mass
    ------------   -----------------  -----------------  -----------------  -----------------
         N           -0.180874619223    -0.994653530895    -0.000014173911    14.003074004430
         C            1.566773380777     0.661641469105    -0.000019173911    12.000000000000
         C            2.532313380777    -0.230096530895     0.747287826089    12.000000000000
         C            2.532337380777    -0.230133530895    -0.747247173911    12.000000000000
         C            0.320176380777     0.365792769105    -0.000019173911    12.000000000000
         C           -0.860159619223     1.315866469105    -0.000013173911    12.000000000000
         C           -2.202613619223     0.945545469105     0.000009826089    12.000000000000
         C           -1.480105619223    -1.336318530895    -0.000003173911    12.000000000000
         C           -2.524082619223    -0.411532530895     0.000012826089    12.000000000000
         H            1.788101380777     1.726405469105    -0.000051173911     1.007825032230
         H            2.092772380777    -1.089441530895     1.242004826089     1.007825032230
         H            3.355774380777     0.245654469105     1.270447826089     1.007825032230
         H            3.355813380777     0.245622469105    -1.270382173911     1.007825032230
         H            2.092840380777    -1.089500530895    -1.241962173911     1.007825032230
         H           -0.571894619223     2.364355469105    -0.000021173911     1.007825032230
         H           -2.983480619223     1.702454469105     0.000021826089     1.007825032230
         H           -1.686368619223    -2.405755530895    -0.000005173911     1.007825032230
         H           -3.556839619223    -0.748214530895     0.000041826089     1.007825032230

  Basis Set: AUG-CC-PVTZ
    Blend: AUG-CC-PVTZ
  Basis Set: (AUG-CC-PVTZ AUX)
    Blend: AUG-CC-PVTZ-JKFIT
	 Reference Energy          =    -362.6560595536782330 [Eh]
	 Singles Energy            =      -0.0000000000000000 [Eh]
	 Same-Spin Energy          =      -0.4068591069640407 [Eh]
	 Opposite-Spin Energy      =      -1.2835308464186459 [Eh]
	 Correlation Energy        =      -1.6903899533826865 [Eh]
	 Total Energy              =    -364.3464495070609246 [Eh]

	 ================> DF-SCS-MP2 Energies <==================
	-----------------------------------------------------------
	 SCS Same-Spin Scale       =       0.3333333333333333 [-]
	 SCS Opposite-Spin Scale   =       1.2000000000000000 [-]
	 SCS Same-Spin Energy      =      -0.1356197023213469 [Eh]
	 SCS Opposite-Spin Energy  =      -1.5402370157023750 [Eh]
	 SCS Correlation Energy    =      -1.6758567180237218 [Eh]
	 SCS Total Energy          =    -364.3319162717019708 [Eh]
	-----------------------------------------------------------

  Dipole Moment: [D]
     X:     0.1603      Y:     1.4812      Z:     0.0000     Total:     1.4899

*** Psi4 exiting successfully. Buy a developer a beer!
