                               Psi4 1.3.2 release

  ==> Input File <==

--------------------------------------------------------------------------
#psi4
#
memory 32 gb

molecule  {
0 1
  N       -0.1927630    -0.9977240    -0.0000150
  C        1.5548850     0.6585710    -0.0000200
  C        2.5204250    -0.2331670     0.7472870
  C        2.5204490    -0.2332040    -0.7472480
  C        0.0933448     0.4179056    -0.0000234
  C       -0.8720480     1.3127960    -0.0000140
  C       -2.2145020     0.9424750     0.0000090
  C       -1.4919940    -1.3393890    -0.0000040
  C       -2.5359710    -0.4146030     0.0000120
  H        1.7762130     1.7233350    -0.0000520
  H        2.0808840    -1.0925120     1.2420040
  H        3.3438860     0.2425840     1.2704470
  H        3.3439250     0.2425520    -1.2703830
  H        2.0809520    -1.0925710    -1.2419630
  H       -0.5837830     2.3612850    -0.0000220
  H       -2.9953690     1.6993840     0.0000210
  H       -1.6982570    -2.4088260    -0.0000060
  H       -3.5687280    -0.7512850     0.0000410
units angstrom
no_reorient  #important for SAPT in psi4, default
symmetry c1  #important for SAPT in psi4, default
}

set PROPERTIES_ORIGIN ["COM"]
properties('MP2/aug-cc-pvtz', properties = ['dipole'])
--------------------------------------------------------------------------

    Molecular point group: c1
  Charge       = 0
  Multiplicity = 1
  Basis Set: AUG-CC-PVTZ
    Blend: AUG-CC-PVTZ
  Basis Set: (AUG-CC-PVTZ AUX)
    Blend: AUG-CC-PVTZ-JKFIT

    Orbital Energies [Eh]
    ---------------------

    Doubly Occupied:

       1A    -15.563593     2A    -11.276638     3A    -11.275151
       4A    -11.261191     5A    -11.236557     6A    -11.233964
       7A    -11.226988     8A    -11.223652     9A    -11.222958
      10A     -1.236879    11A     -1.140371    12A     -1.083404
      13A     -1.037311    14A     -0.887010    15A     -0.849783
      16A     -0.816082    17A     -0.788679    18A     -0.704828
      19A     -0.676236    20A     -0.642085    21A     -0.628861
      22A     -0.616032    23A     -0.574535    24A     -0.542736
      25A     -0.541750    26A     -0.507333    27A     -0.491663
      28A     -0.436370    29A     -0.428913    30A     -0.416067
      31A     -0.375489    32A     -0.328499

  @DF-RHF Final Energy:  -362.70905928380398

   => Energetics <=

    Nuclear Repulsion Energy =            408.7358041709451300
    One-Electron Energy =               -1300.3465113429122084
    Two-Electron Energy =                 528.9016478881630974
    Total Energy =                       -362.7090592838039811
  Basis Set: (AUG-CC-PVTZ AUX)
    Blend: AUG-CC-PVTZ-RI
    Molecular point group: c1

    Geometry (in Angstrom), charge = 0, multiplicity = 1:

       Center              X                  Y                   Z               Mass
    ------------   -----------------  -----------------  -----------------  -----------------
         N           -0.159213053759    -1.000214798549    -0.000013831265    14.003074004430
         C            1.588434946241     0.656080201451    -0.000018831265    12.000000000000
         C            2.553974946241    -0.235657798549     0.747288168735    12.000000000000
         C            2.553998946241    -0.235694798549    -0.747246831265    12.000000000000
         C            0.126894746241     0.415414801451    -0.000022231265    12.000000000000
         C           -0.838498053759     1.310305201451    -0.000012831265    12.000000000000
         C           -2.180952053759     0.939984201451     0.000010168735    12.000000000000
         C           -1.458444053759    -1.341879798549    -0.000002831265    12.000000000000
         C           -2.502421053759    -0.417093798549     0.000013168735    12.000000000000
         H            1.809762946241     1.720844201451    -0.000050831265     1.007825032230
         H            2.114433946241    -1.095002798549     1.242005168735     1.007825032230
         H            3.377435946241     0.240093201451     1.270448168735     1.007825032230
         H            3.377474946241     0.240061201451    -1.270381831265     1.007825032230
         H            2.114501946241    -1.095061798549    -1.241961831265     1.007825032230
         H           -0.550233053759     2.358794201451    -0.000020831265     1.007825032230
         H           -2.961819053759     1.696893201451     0.000022168735     1.007825032230
         H           -1.664707053759    -2.411316798549    -0.000004831265     1.007825032230
         H           -3.535178053759    -0.753775798549     0.000042168735     1.007825032230

  Basis Set: AUG-CC-PVTZ
    Blend: AUG-CC-PVTZ
  Basis Set: (AUG-CC-PVTZ AUX)
    Blend: AUG-CC-PVTZ-JKFIT
	 Reference Energy          =    -362.7090592838039811 [Eh]
	 Singles Energy            =      -0.0000000000000000 [Eh]
	 Same-Spin Energy          =      -0.4018504445165211 [Eh]
	 Opposite-Spin Energy      =      -1.2771501504544478 [Eh]
	 Correlation Energy        =      -1.6790005949709688 [Eh]
	 Total Energy              =    -364.3880598787749250 [Eh]

	 ================> DF-SCS-MP2 Energies <==================
	-----------------------------------------------------------
	 SCS Same-Spin Scale       =       0.3333333333333333 [-]
	 SCS Opposite-Spin Scale   =       1.2000000000000000 [-]
	 SCS Same-Spin Energy      =      -0.1339501481721737 [Eh]
	 SCS Opposite-Spin Energy  =      -1.5325801805453374 [Eh]
	 SCS Correlation Energy    =      -1.6665303287175111 [Eh]
	 SCS Total Energy          =    -364.3755896125214804 [Eh]
	-----------------------------------------------------------

  Dipole Moment: [D]
     X:    -1.0477      Y:     1.3678      Z:     0.0000     Total:     1.7230

*** Psi4 exiting successfully. Buy a developer a beer!
