                               Psi4 1.3.2 release

  ==> Input File <==

--------------------------------------------------------------------------
#psi4
#
memory 32 gb

molecule  {
0 1
  N       -0.1927630    -0.9977240    -0.0000150
  C        1.5548850     0.6585710    -0.0000200
  C        2.4380894    -0.2933592     0.7743901
  C        2.5204490    -0.2332040    -0.7472480
  C        0.1136930     0.3165400    -0.0000200
  C       -0.8720480     1.3127960    -0.0000140
  C       -2.2145020     0.9424750     0.0000090
  C       -1.4919940    -1.3393890    -0.0000040
  C       -2.5359710    -0.4146030     0.0000120
  H        1.7762130     1.7233350    -0.0000520
  H        2.0808840    -1.0925120     1.2420040
  H        3.3438860     0.2425840     1.2704470
  H        3.3439250     0.2425520    -1.2703830
  H        2.0809520    -1.0925710    -1.2419630
  H       -0.5837830     2.3612850    -0.0000220
  H       -2.9953690     1.6993840     0.0000210
  H       -1.6982570    -2.4088260    -0.0000060
  H       -3.5687280    -0.7512850     0.0000410
units angstrom
no_reorient  #important for SAPT in psi4, default
symmetry c1  #important for SAPT in psi4, default
}

set PROPERTIES_ORIGIN ["COM"]
properties('MP2/aug-cc-pvtz', properties = ['dipole'])
--------------------------------------------------------------------------

    Molecular point group: c1
  Charge       = 0
  Multiplicity = 1
  Basis Set: AUG-CC-PVTZ
    Blend: AUG-CC-PVTZ
  Basis Set: (AUG-CC-PVTZ AUX)
    Blend: AUG-CC-PVTZ-JKFIT

    Orbital Energies [Eh]
    ---------------------

    Doubly Occupied:

       1A    -15.558344     2A    -11.281600     3A    -11.275196
       4A    -11.258406     5A    -11.236533     6A    -11.235316
       7A    -11.234808     8A    -11.225299     9A    -11.224665
      10A     -1.254832    11A     -1.139573    12A     -1.081961
      13A     -1.027972    14A     -0.883510    15A     -0.854105
      16A     -0.824276    17A     -0.788199    18A     -0.710125
      19A     -0.669484    20A     -0.653182    21A     -0.625195
      22A     -0.613046    23A     -0.574073    24A     -0.547759
      25A     -0.543698    26A     -0.511184    27A     -0.504897
      28A     -0.439942    29A     -0.424759    30A     -0.405657
      31A     -0.377603    32A     -0.323466

  @DF-RHF Final Energy:  -362.71051499449680

   => Energetics <=

    Nuclear Repulsion Energy =            409.6695215092487956
    One-Electron Energy =               -1302.1427445734348112
    Two-Electron Energy =                 529.7627080696890971
    Total Energy =                       -362.7105149944968616
  Basis Set: (AUG-CC-PVTZ AUX)
    Blend: AUG-CC-PVTZ-RI
    Molecular point group: c1

    Geometry (in Angstrom), charge = 0, multiplicity = 1:

       Center              X                  Y                   Z               Mass
    ------------   -----------------  -----------------  -----------------  -----------------
         N           -0.152966081894    -0.983933311807    -0.002745572601    14.003074004430
         C            1.594681918106     0.672361688193    -0.002750572601    12.000000000000
         C            2.477886318106    -0.279568511807     0.771659527399    12.000000000000
         C            2.560245918106    -0.219413311807    -0.749978572601    12.000000000000
         C            0.153489918106     0.330330688193    -0.002750572601    12.000000000000
         C           -0.832251081894     1.326586688193    -0.002744572601    12.000000000000
         C           -2.174705081894     0.956265688193    -0.002721572601    12.000000000000
         C           -1.452197081894    -1.325598311807    -0.002734572601    12.000000000000
         C           -2.496174081894    -0.400812311807    -0.002718572601    12.000000000000
         H            1.816009918106     1.737125688193    -0.002782572601     1.007825032230
         H            2.120680918106    -1.078721311807     1.239273427399     1.007825032230
         H            3.383682918106     0.256374688193     1.267716427399     1.007825032230
         H            3.383721918106     0.256342688193    -1.273113572601     1.007825032230
         H            2.120748918106    -1.078780311807    -1.244693572601     1.007825032230
         H           -0.543986081894     2.375075688193    -0.002752572601     1.007825032230
         H           -2.955572081894     1.713174688193    -0.002709572601     1.007825032230
         H           -1.658460081894    -2.395035311807    -0.002736572601     1.007825032230
         H           -3.528931081894    -0.737494311807    -0.002689572601     1.007825032230

  Basis Set: AUG-CC-PVTZ
    Blend: AUG-CC-PVTZ
  Basis Set: (AUG-CC-PVTZ AUX)
    Blend: AUG-CC-PVTZ-JKFIT
	 Reference Energy          =    -362.7105149944968048 [Eh]
	 Singles Energy            =      -0.0000000000000000 [Eh]
	 Same-Spin Energy          =      -0.4016865155183882 [Eh]
	 Opposite-Spin Energy      =      -1.2757114198734594 [Eh]
	 Correlation Energy        =      -1.6773979353918476 [Eh]
	 Total Energy              =    -364.3879129298886710 [Eh]

	 ================> DF-SCS-MP2 Energies <==================
	-----------------------------------------------------------
	 SCS Same-Spin Scale       =       0.3333333333333333 [-]
	 SCS Opposite-Spin Scale   =       1.2000000000000000 [-]
	 SCS Same-Spin Energy      =      -0.1338955051727961 [Eh]
	 SCS Opposite-Spin Energy  =      -1.5308537038481511 [Eh]
	 SCS Correlation Energy    =      -1.6647492090209473 [Eh]
	 SCS Total Energy          =    -364.3752642035177587 [Eh]
	-----------------------------------------------------------

  Dipole Moment: [D]
     X:    -1.0140      Y:     1.4279      Z:    -0.0461     Total:     1.7519

*** Psi4 exiting successfully. Buy a developer a beer!
