                               Psi4 1.3.2 release

  ==> Input File <==

--------------------------------------------------------------------------
#psi4
#
memory 32 gb

molecule  {
0 1
  N       -0.1697793    -1.0028722    -0.0000150
  C        1.5548850     0.6585710    -0.0000200
  C        2.5204250    -0.2331670     0.7472870
  C        2.5204490    -0.2332040    -0.7472480
  C        0.1136930     0.3165400    -0.0000200
  C       -0.8720480     1.3127960    -0.0000140
  C       -2.2145020     0.9424750     0.0000090
  C       -1.4919940    -1.3393890    -0.0000040
  C       -2.5359710    -0.4146030     0.0000120
  H        1.7762130     1.7233350    -0.0000520
  H        2.0808840    -1.0925120     1.2420040
  H        3.3438860     0.2425840     1.2704470
  H        3.3439250     0.2425520    -1.2703830
  H        2.0809520    -1.0925710    -1.2419630
  H       -0.5837830     2.3612850    -0.0000220
  H       -2.9953690     1.6993840     0.0000210
  H       -1.6982570    -2.4088260    -0.0000060
  H       -3.5687280    -0.7512850     0.0000410
units angstrom
no_reorient  #important for SAPT in psi4, default
symmetry c1  #important for SAPT in psi4, default
}

set PROPERTIES_ORIGIN ["COM"]
properties('MP2/aug-cc-pvtz', properties = ['dipole'])
--------------------------------------------------------------------------

    Molecular point group: c1
  Charge       = 0
  Multiplicity = 1
  Basis Set: AUG-CC-PVTZ
    Blend: AUG-CC-PVTZ
  Basis Set: (AUG-CC-PVTZ AUX)
    Blend: AUG-CC-PVTZ-JKFIT

    Orbital Energies [Eh]
    ---------------------

    Doubly Occupied:

       1A    -15.561132     2A    -11.281966     3A    -11.277348
       4A    -11.259285     5A    -11.236028     6A    -11.235795
       7A    -11.233119     8A    -11.223546     9A    -11.222853
      10A     -1.250471    11A     -1.141532    12A     -1.082336
      13A     -1.028314    14A     -0.883583    15A     -0.854337
      16A     -0.816760    17A     -0.784925    18A     -0.707503
      19A     -0.672073    20A     -0.649049    21A     -0.630430
      22A     -0.608471    23A     -0.573218    24A     -0.546059
      25A     -0.543565    26A     -0.507361    27A     -0.502179
      28A     -0.435571    29A     -0.431576    30A     -0.412925
      31A     -0.376197    32A     -0.323932

  @DF-RHF Final Energy:  -362.72245631584121

   => Energetics <=

    Nuclear Repulsion Energy =            408.9514026933763944
    One-Electron Energy =               -1300.7608423877684345
    Two-Electron Energy =                 529.0869833785508263
    Total Energy =                       -362.7224563158412138
  Basis Set: (AUG-CC-PVTZ AUX)
    Blend: AUG-CC-PVTZ-RI
    Molecular point group: c1

    Geometry (in Angstrom), charge = 0, multiplicity = 1:

       Center              X                  Y                   Z               Mass
    ------------   -----------------  -----------------  -----------------  -----------------
         N           -0.140982895524    -0.994542137205    -0.000014173911    14.003074004430
         C            1.583681404476     0.666901062795    -0.000019173911    12.000000000000
         C            2.549221404476    -0.224836937205     0.747287826089    12.000000000000
         C            2.549245404476    -0.224873937205    -0.747247173911    12.000000000000
         C            0.142489404476     0.324870062795    -0.000019173911    12.000000000000
         C           -0.843251595524     1.321126062795    -0.000013173911    12.000000000000
         C           -2.185705595524     0.950805062795     0.000009826089    12.000000000000
         C           -1.463197595524    -1.331058937205    -0.000003173911    12.000000000000
         C           -2.507174595524    -0.406272937205     0.000012826089    12.000000000000
         H            1.805009404476     1.731665062795    -0.000051173911     1.007825032230
         H            2.109680404476    -1.084181937205     1.242004826089     1.007825032230
         H            3.372682404476     0.250914062795     1.270447826089     1.007825032230
         H            3.372721404476     0.250882062795    -1.270382173911     1.007825032230
         H            2.109748404476    -1.084240937205    -1.241962173911     1.007825032230
         H           -0.554986595524     2.369615062795    -0.000021173911     1.007825032230
         H           -2.966572595524     1.707714062795     0.000021826089     1.007825032230
         H           -1.669460595524    -2.400495937205    -0.000005173911     1.007825032230
         H           -3.539931595524    -0.742954937205     0.000041826089     1.007825032230

  Basis Set: AUG-CC-PVTZ
    Blend: AUG-CC-PVTZ
  Basis Set: (AUG-CC-PVTZ AUX)
    Blend: AUG-CC-PVTZ-JKFIT
	 Reference Energy          =    -362.7224563158412138 [Eh]
	 Singles Energy            =      -0.0000000000000000 [Eh]
	 Same-Spin Energy          =      -0.4018577646392524 [Eh]
	 Opposite-Spin Energy      =      -1.2757104602744374 [Eh]
	 Correlation Energy        =      -1.6775682249136898 [Eh]
	 Total Energy              =    -364.4000245407548846 [Eh]

	 ================> DF-SCS-MP2 Energies <==================
	-----------------------------------------------------------
	 SCS Same-Spin Scale       =       0.3333333333333333 [-]
	 SCS Opposite-Spin Scale   =       1.2000000000000000 [-]
	 SCS Same-Spin Energy      =      -0.1339525882130841 [Eh]
	 SCS Opposite-Spin Energy  =      -1.5308525523293248 [Eh]
	 SCS Correlation Energy    =      -1.6648051405424089 [Eh]
	 SCS Total Energy          =    -364.3872614563836123 [Eh]
	-----------------------------------------------------------

  Dipole Moment: [D]
     X:    -1.0271      Y:     1.4391      Z:     0.0000     Total:     1.7680

*** Psi4 exiting successfully. Buy a developer a beer!
