                               Psi4 1.3.2 release

  ==> Input File <==

--------------------------------------------------------------------------
#psi4
#
memory 32 gb

molecule  {
0 1
  N       -0.1927630    -0.9977240    -0.0000150
  C        1.5548850     0.6585710    -0.0000200
  C        2.5204250    -0.2331670     0.7472870
  C        2.5204490    -0.2332040    -0.7472480
  C        0.1198818     0.2914398    -0.0000192
  C       -0.8720480     1.3127960    -0.0000140
  C       -2.2145020     0.9424750     0.0000090
  C       -1.4919940    -1.3393890    -0.0000040
  C       -2.5359710    -0.4146030     0.0000120
  H        1.7762130     1.7233350    -0.0000520
  H        2.0808840    -1.0925120     1.2420040
  H        3.3438860     0.2425840     1.2704470
  H        3.3439250     0.2425520    -1.2703830
  H        2.0809520    -1.0925710    -1.2419630
  H       -0.5837830     2.3612850    -0.0000220
  H       -2.9953690     1.6993840     0.0000210
  H       -1.6982570    -2.4088260    -0.0000060
  H       -3.5687280    -0.7512850     0.0000410
units angstrom
no_reorient  #important for SAPT in psi4, default
symmetry c1  #important for SAPT in psi4, default
}

set PROPERTIES_ORIGIN ["COM"]
properties('MP2/aug-cc-pvtz', properties = ['dipole'])
--------------------------------------------------------------------------

    Molecular point group: c1
  Charge       = 0
  Multiplicity = 1
  Basis Set: AUG-CC-PVTZ
    Blend: AUG-CC-PVTZ
  Basis Set: (AUG-CC-PVTZ AUX)
    Blend: AUG-CC-PVTZ-JKFIT

    Orbital Energies [Eh]
    ---------------------

    Doubly Occupied:

       1A    -15.556763     2A    -11.282806     3A    -11.274694
       4A    -11.257326     5A    -11.237377     6A    -11.234612
       7A    -11.233990     8A    -11.224162     9A    -11.223467
      10A     -1.259618    11A     -1.143281    12A     -1.082178
      13A     -1.026874    14A     -0.883054    15A     -0.855615
      16A     -0.817523    17A     -0.785820    18A     -0.708970
      19A     -0.671132    20A     -0.652050    21A     -0.631912
      22A     -0.606157    23A     -0.573273    24A     -0.549332
      25A     -0.544176    26A     -0.508294    27A     -0.507642
      28A     -0.436207    29A     -0.430873    30A     -0.407541
      31A     -0.378921    32A     -0.321532

  @DF-RHF Final Energy:  -362.72430559494103

   => Energetics <=

    Nuclear Repulsion Energy =            409.3712887544765522
    One-Electron Energy =               -1301.5768409453946788
    Two-Electron Energy =                 529.4812465959770407
    Total Energy =                       -362.7243055949410291
  Basis Set: (AUG-CC-PVTZ AUX)
    Blend: AUG-CC-PVTZ-RI
    Molecular point group: c1

    Geometry (in Angstrom), charge = 0, multiplicity = 1:

       Center              X                  Y                   Z               Mass
    ------------   -----------------  -----------------  -----------------  -----------------
         N           -0.161887401972    -0.987469816592    -0.000014254533    14.003074004430
         C            1.585760598028     0.668825183408    -0.000019254533    12.000000000000
         C            2.551300598028    -0.222912816592     0.747287745467    12.000000000000
         C            2.551324598028    -0.222949816592    -0.747247254533    12.000000000000
         C            0.150757398028     0.301693983408    -0.000018454533    12.000000000000
         C           -0.841172401972     1.323050183408    -0.000013254533    12.000000000000
         C           -2.183626401972     0.952729183408     0.000009745467    12.000000000000
         C           -1.461118401972    -1.329134816592    -0.000003254533    12.000000000000
         C           -2.505095401972    -0.404348816592     0.000012745467    12.000000000000
         H            1.807088598028     1.733589183408    -0.000051254533     1.007825032230
         H            2.111759598028    -1.082257816592     1.242004745467     1.007825032230
         H            3.374761598028     0.252838183408     1.270447745467     1.007825032230
         H            3.374800598028     0.252806183408    -1.270382254533     1.007825032230
         H            2.111827598028    -1.082316816592    -1.241962254533     1.007825032230
         H           -0.552907401972     2.371539183408    -0.000021254533     1.007825032230
         H           -2.964493401972     1.709638183408     0.000021745467     1.007825032230
         H           -1.667381401972    -2.398571816592    -0.000005254533     1.007825032230
         H           -3.537852401972    -0.741030816592     0.000041745467     1.007825032230

  Basis Set: AUG-CC-PVTZ
    Blend: AUG-CC-PVTZ
  Basis Set: (AUG-CC-PVTZ AUX)
    Blend: AUG-CC-PVTZ-JKFIT
	 Reference Energy          =    -362.7243055949410291 [Eh]
	 Singles Energy            =      -0.0000000000000000 [Eh]
	 Same-Spin Energy          =      -0.4014645278199494 [Eh]
	 Opposite-Spin Energy      =      -1.2745287569084258 [Eh]
	 Correlation Energy        =      -1.6759932847283752 [Eh]
	 Total Energy              =    -364.4002988796693785 [Eh]

	 ================> DF-SCS-MP2 Energies <==================
	-----------------------------------------------------------
	 SCS Same-Spin Scale       =       0.3333333333333333 [-]
	 SCS Opposite-Spin Scale   =       1.2000000000000000 [-]
	 SCS Same-Spin Energy      =      -0.1338215092733165 [Eh]
	 SCS Opposite-Spin Energy  =      -1.5294345082901109 [Eh]
	 SCS Correlation Energy    =      -1.6632560175634272 [Eh]
	 SCS Total Energy          =    -364.3875616125044417 [Eh]
	-----------------------------------------------------------

  Dipole Moment: [D]
     X:    -0.9464      Y:     1.4338      Z:     0.0000     Total:     1.7180

*** Psi4 exiting successfully. Buy a developer a beer!
