                               Psi4 1.3.2 release

  ==> Input File <==

--------------------------------------------------------------------------
#psi4
#
memory 32 gb

molecule  {
0 1
  N       -0.1927630    -0.9977240    -0.0000150
  C        1.5548850     0.6585710    -0.0000200
  C        2.5402891    -0.2174282     0.7399368
  C        2.5204490    -0.2332040    -0.7472480
  C        0.1136930     0.3165400    -0.0000200
  C       -0.8720480     1.3127960    -0.0000140
  C       -2.2145020     0.9424750     0.0000090
  C       -1.4919940    -1.3393890    -0.0000040
  C       -2.5359710    -0.4146030     0.0000120
  H        1.7762130     1.7233350    -0.0000520
  H        2.0808840    -1.0925120     1.2420040
  H        3.3438860     0.2425840     1.2704470
  H        3.3439250     0.2425520    -1.2703830
  H        2.0809520    -1.0925710    -1.2419630
  H       -0.5837830     2.3612850    -0.0000220
  H       -2.9953690     1.6993840     0.0000210
  H       -1.6982570    -2.4088260    -0.0000060
  H       -3.5687280    -0.7512850     0.0000410
units angstrom
no_reorient  #important for SAPT in psi4, default
symmetry c1  #important for SAPT in psi4, default
}

set PROPERTIES_ORIGIN ["COM"]
properties('MP2/aug-cc-pvtz', properties = ['dipole'])
--------------------------------------------------------------------------

    Molecular point group: c1
  Charge       = 0
  Multiplicity = 1
  Basis Set: AUG-CC-PVTZ
    Blend: AUG-CC-PVTZ
  Basis Set: (AUG-CC-PVTZ AUX)
    Blend: AUG-CC-PVTZ-JKFIT

    Orbital Energies [Eh]
    ---------------------

    Doubly Occupied:

       1A    -15.558480     2A    -11.282141     3A    -11.274837
       4A    -11.258252     5A    -11.235635     6A    -11.234912
       7A    -11.233552     8A    -11.224040     9A    -11.223303
      10A     -1.254333    11A     -1.143578    12A     -1.082005
      13A     -1.029551    14A     -0.884092    15A     -0.854157
      16A     -0.816782    17A     -0.786698    18A     -0.707520
      19A     -0.673193    20A     -0.648882    21A     -0.633363
      22A     -0.608134    23A     -0.573549    24A     -0.547874
      25A     -0.543276    26A     -0.506156    27A     -0.504359
      28A     -0.434706    29A     -0.432053    30A     -0.410992
      31A     -0.377622    32A     -0.323024

  @DF-RHF Final Energy:  -362.72348184752616

   => Energetics <=

    Nuclear Repulsion Energy =            409.1349914400813077
    One-Electron Energy =               -1301.1148456484618237
    Two-Electron Energy =                 529.2563723608543569
    Total Energy =                       -362.7234818475261591
  Basis Set: (AUG-CC-PVTZ AUX)
    Blend: AUG-CC-PVTZ-RI
    Molecular point group: c1

    Geometry (in Angstrom), charge = 0, multiplicity = 1:

       Center              X                  Y                   Z               Mass
    ------------   -----------------  -----------------  -----------------  -----------------
         N           -0.163265572606    -0.991585493069     0.000726565217    14.003074004430
         C            1.584382427394     0.664709506931     0.000721565217    12.000000000000
         C            2.569786527394    -0.211289693069     0.740678365217    12.000000000000
         C            2.549946427394    -0.227065493069    -0.746506434783    12.000000000000
         C            0.143190427394     0.322678506931     0.000721565217    12.000000000000
         C           -0.842550572606     1.318934506931     0.000727565217    12.000000000000
         C           -2.185004572606     0.948613506931     0.000750565217    12.000000000000
         C           -1.462496572606    -1.333250493069     0.000737565217    12.000000000000
         C           -2.506473572606    -0.408464493069     0.000753565217    12.000000000000
         H            1.805710427394     1.729473506931     0.000689565217     1.007825032230
         H            2.110381427394    -1.086373493069     1.242745565217     1.007825032230
         H            3.373383427394     0.248722506931     1.271188565217     1.007825032230
         H            3.373422427394     0.248690506931    -1.269641434783     1.007825032230
         H            2.110449427394    -1.086432493069    -1.241221434783     1.007825032230
         H           -0.554285572606     2.367423506931     0.000719565217     1.007825032230
         H           -2.965871572606     1.705522506931     0.000762565217     1.007825032230
         H           -1.668759572606    -2.402687493069     0.000735565217     1.007825032230
         H           -3.539230572606    -0.745146493069     0.000782565217     1.007825032230

  Basis Set: AUG-CC-PVTZ
    Blend: AUG-CC-PVTZ
  Basis Set: (AUG-CC-PVTZ AUX)
    Blend: AUG-CC-PVTZ-JKFIT
	 Reference Energy          =    -362.7234818475261591 [Eh]
	 Singles Energy            =      -0.0000000000000000 [Eh]
	 Same-Spin Energy          =      -0.4016792960281229 [Eh]
	 Opposite-Spin Energy      =      -1.2749522635795776 [Eh]
	 Correlation Energy        =      -1.6766315596077006 [Eh]
	 Total Energy              =    -364.4001134071338583 [Eh]

	 ================> DF-SCS-MP2 Energies <==================
	-----------------------------------------------------------
	 SCS Same-Spin Scale       =       0.3333333333333333 [-]
	 SCS Opposite-Spin Scale   =       1.2000000000000000 [-]
	 SCS Same-Spin Energy      =      -0.1338930986760410 [Eh]
	 SCS Opposite-Spin Energy  =      -1.5299427162954931 [Eh]
	 SCS Correlation Energy    =      -1.6638358149715340 [Eh]
	 SCS Total Energy          =    -364.3873176624977077 [Eh]
	-----------------------------------------------------------

  Dipole Moment: [D]
     X:    -0.9678      Y:     1.4285      Z:     0.0043     Total:     1.7255

*** Psi4 exiting successfully. Buy a developer a beer!
