                               Psi4 1.3.2 release

  ==> Input File <==

--------------------------------------------------------------------------
#psi4
#
memory 32 gb

molecule  {
0 1
  N       -0.1927630    -0.9977240    -0.0000150
  C        1.5548850     0.6585710    -0.0000200
  C        2.5598530    -0.2014226     0.7323612
  C        2.5204490    -0.2332040    -0.7472480
  C        0.1136930     0.3165400    -0.0000200
  C       -0.8720480     1.3127960    -0.0000140
  C       -2.2145020     0.9424750     0.0000090
  C       -1.4919940    -1.3393890    -0.0000040
  C       -2.5359710    -0.4146030     0.0000120
  H        1.7762130     1.7233350    -0.0000520
  H        2.0808840    -1.0925120     1.2420040
  H        3.3438860     0.2425840     1.2704470
  H        3.3439250     0.2425520    -1.2703830
  H        2.0809520    -1.0925710    -1.2419630
  H       -0.5837830     2.3612850    -0.0000220
  H       -2.9953690     1.6993840     0.0000210
  H       -1.6982570    -2.4088260    -0.0000060
  H       -3.5687280    -0.7512850     0.0000410
units angstrom
no_reorient  #important for SAPT in psi4, default
symmetry c1  #important for SAPT in psi4, default
}

set PROPERTIES_ORIGIN ["COM"]
properties('MP2/aug-cc-pvtz', properties = ['dipole'])
--------------------------------------------------------------------------

    Molecular point group: c1
  Charge       = 0
  Multiplicity = 1
  Basis Set: AUG-CC-PVTZ
    Blend: AUG-CC-PVTZ
  Basis Set: (AUG-CC-PVTZ AUX)
    Blend: AUG-CC-PVTZ-JKFIT

    Orbital Energies [Eh]
    ---------------------

    Doubly Occupied:

       1A    -15.558581     2A    -11.282353     3A    -11.274828
       4A    -11.258279     5A    -11.235765     6A    -11.234989
       7A    -11.233304     8A    -11.224225     9A    -11.223385
      10A     -1.254326    11A     -1.144585    12A     -1.082074
      13A     -1.029926    14A     -0.884400    15A     -0.854262
      16A     -0.816865    17A     -0.786753    18A     -0.706913
      19A     -0.674405    20A     -0.648266    21A     -0.635170
      22A     -0.608156    23A     -0.573698    24A     -0.548113
      25A     -0.542890    26A     -0.505054    27A     -0.502953
      28A     -0.433465    29A     -0.433075    30A     -0.411587
      31A     -0.377665    32A     -0.322958

  @DF-RHF Final Energy:  -362.72099372238398

   => Energetics <=

    Nuclear Repulsion Energy =            409.0434470778741911
    One-Electron Energy =               -1300.9223490390993447
    Two-Electron Energy =                 529.1579082388411734
    Total Energy =                       -362.7209937223840370
  Basis Set: (AUG-CC-PVTZ AUX)
    Blend: AUG-CC-PVTZ-RI
    Molecular point group: c1

    Geometry (in Angstrom), charge = 0, multiplicity = 1:

       Center              X                  Y                   Z               Mass
    ------------   -----------------  -----------------  -----------------  -----------------
         N           -0.165237185109    -0.993198506889     0.001490019726    14.003074004430
         C            1.582410814891     0.663096493111     0.001485019726    12.000000000000
         C            2.587378814891    -0.196897106889     0.733866219726    12.000000000000
         C            2.547974814891    -0.228678506889    -0.745742980274    12.000000000000
         C            0.141218814891     0.321065493111     0.001485019726    12.000000000000
         C           -0.844522185109     1.317321493111     0.001491019726    12.000000000000
         C           -2.186976185109     0.947000493111     0.001514019726    12.000000000000
         C           -1.464468185109    -1.334863506889     0.001501019726    12.000000000000
         C           -2.508445185109    -0.410077506889     0.001517019726    12.000000000000
         H            1.803738814891     1.727860493111     0.001453019726     1.007825032230
         H            2.108409814891    -1.087986506889     1.243509019726     1.007825032230
         H            3.371411814891     0.247109493111     1.271952019726     1.007825032230
         H            3.371450814891     0.247077493111    -1.268877980274     1.007825032230
         H            2.108477814891    -1.088045506889    -1.240457980274     1.007825032230
         H           -0.556257185109     2.365810493111     0.001483019726     1.007825032230
         H           -2.967843185109     1.703909493111     0.001526019726     1.007825032230
         H           -1.670731185109    -2.404300506889     0.001499019726     1.007825032230
         H           -3.541202185109    -0.746759506889     0.001546019726     1.007825032230

  Basis Set: AUG-CC-PVTZ
    Blend: AUG-CC-PVTZ
  Basis Set: (AUG-CC-PVTZ AUX)
    Blend: AUG-CC-PVTZ-JKFIT
	 Reference Energy          =    -362.7209937223839802 [Eh]
	 Singles Energy            =      -0.0000000000000000 [Eh]
	 Same-Spin Energy          =      -0.4017574208187868 [Eh]
	 Opposite-Spin Energy      =      -1.2750710235814720 [Eh]
	 Correlation Energy        =      -1.6768284444002588 [Eh]
	 Total Energy              =    -364.3978221667842377 [Eh]

	 ================> DF-SCS-MP2 Energies <==================
	-----------------------------------------------------------
	 SCS Same-Spin Scale       =       0.3333333333333333 [-]
	 SCS Opposite-Spin Scale   =       1.2000000000000000 [-]
	 SCS Same-Spin Energy      =      -0.1339191402729289 [Eh]
	 SCS Opposite-Spin Energy  =      -1.5300852282977664 [Eh]
	 SCS Correlation Energy    =      -1.6640043685706953 [Eh]
	 SCS Total Energy          =    -364.3849980909546957 [Eh]
	-----------------------------------------------------------

  Dipole Moment: [D]
     X:    -0.9645      Y:     1.4321      Z:     0.0057     Total:     1.7266

*** Psi4 exiting successfully. Buy a developer a beer!
