                               Psi4 1.3.2 release

  ==> Input File <==

--------------------------------------------------------------------------
#psi4
#
memory 32 gb

molecule  {
0 1
  N       -0.1927630    -0.9977240    -0.0000150
  C        1.5548850     0.6585710    -0.0000200
  C        2.5204250    -0.2331670     0.7472870
  C        2.5204490    -0.2332040    -0.7472480
  C        0.1265076     0.2664515    -0.0000183
  C       -0.8720480     1.3127960    -0.0000140
  C       -2.2145020     0.9424750     0.0000090
  C       -1.4919940    -1.3393890    -0.0000040
  C       -2.5359710    -0.4146030     0.0000120
  H        1.7762130     1.7233350    -0.0000520
  H        2.0808840    -1.0925120     1.2420040
  H        3.3438860     0.2425840     1.2704470
  H        3.3439250     0.2425520    -1.2703830
  H        2.0809520    -1.0925710    -1.2419630
  H       -0.5837830     2.3612850    -0.0000220
  H       -2.9953690     1.6993840     0.0000210
  H       -1.6982570    -2.4088260    -0.0000060
  H       -3.5687280    -0.7512850     0.0000410
units angstrom
no_reorient  #important for SAPT in psi4, default
symmetry c1  #important for SAPT in psi4, default
}

set PROPERTIES_ORIGIN ["COM"]
properties('MP2/aug-cc-pvtz', properties = ['dipole'])
--------------------------------------------------------------------------

    Molecular point group: c1
  Charge       = 0
  Multiplicity = 1
  Basis Set: AUG-CC-PVTZ
    Blend: AUG-CC-PVTZ
  Basis Set: (AUG-CC-PVTZ AUX)
    Blend: AUG-CC-PVTZ-JKFIT

    Orbital Energies [Eh]
    ---------------------

    Doubly Occupied:

       1A    -15.555022     2A    -11.283425     3A    -11.274502
       4A    -11.256342     5A    -11.239060     6A    -11.234459
       7A    -11.234095     8A    -11.224316     9A    -11.223621
      10A     -1.265208    11A     -1.143949    12A     -1.082563
      13A     -1.024523    14A     -0.882275    15A     -0.857263
      16A     -0.817869    17A     -0.784713    18A     -0.709828
      19A     -0.670244    20A     -0.654554    21A     -0.632137
      22A     -0.603826    23A     -0.573105    24A     -0.551318
      25A     -0.544574    26A     -0.510562    27A     -0.508572
      28A     -0.436351    29A     -0.431137    30A     -0.404376
      31A     -0.380504    32A     -0.319947

  @DF-RHF Final Energy:  -362.72265822202019

   => Energetics <=

    Nuclear Repulsion Energy =            409.5179784954986530
    One-Electron Energy =               -1301.8527968106784556
    Two-Electron Energy =                 529.6121600931595594
    Total Energy =                       -362.7226582220201863
  Basis Set: (AUG-CC-PVTZ AUX)
    Blend: AUG-CC-PVTZ-RI
    Molecular point group: c1

    Geometry (in Angstrom), charge = 0, multiplicity = 1:

       Center              X                  Y                   Z               Mass
    ------------   -----------------  -----------------  -----------------  -----------------
         N           -0.162555137450    -0.984951543410    -0.000014345234    14.003074004430
         C            1.585092862550     0.671343456590    -0.000019345234    12.000000000000
         C            2.550632862550    -0.220394543410     0.747287654766    12.000000000000
         C            2.550656862550    -0.220431543410    -0.747247345234    12.000000000000
         C            0.156715462550     0.279223956590    -0.000017645234    12.000000000000
         C           -0.841840137450     1.325568456590    -0.000013345234    12.000000000000
         C           -2.184294137450     0.955247456590     0.000009654766    12.000000000000
         C           -1.461786137450    -1.326616543410    -0.000003345234    12.000000000000
         C           -2.505763137450    -0.401830543410     0.000012654766    12.000000000000
         H            1.806420862550     1.736107456590    -0.000051345234     1.007825032230
         H            2.111091862550    -1.079739543410     1.242004654766     1.007825032230
         H            3.374093862550     0.255356456590     1.270447654766     1.007825032230
         H            3.374132862550     0.255324456590    -1.270382345234     1.007825032230
         H            2.111159862550    -1.079798543410    -1.241962345234     1.007825032230
         H           -0.553575137450     2.374057456590    -0.000021345234     1.007825032230
         H           -2.965161137450     1.712156456590     0.000021654766     1.007825032230
         H           -1.668049137450    -2.396053543410    -0.000005345234     1.007825032230
         H           -3.538520137450    -0.738512543410     0.000041654766     1.007825032230

  Basis Set: AUG-CC-PVTZ
    Blend: AUG-CC-PVTZ
  Basis Set: (AUG-CC-PVTZ AUX)
    Blend: AUG-CC-PVTZ-JKFIT
	 Reference Energy          =    -362.7226582220201863 [Eh]
	 Singles Energy            =      -0.0000000000000000 [Eh]
	 Same-Spin Energy          =      -0.4012596162406846 [Eh]
	 Opposite-Spin Energy      =      -1.2742110478541895 [Eh]
	 Correlation Energy        =      -1.6754706640948740 [Eh]
	 Total Energy              =    -364.3981288861150460 [Eh]

	 ================> DF-SCS-MP2 Energies <==================
	-----------------------------------------------------------
	 SCS Same-Spin Scale       =       0.3333333333333333 [-]
	 SCS Opposite-Spin Scale   =       1.2000000000000000 [-]
	 SCS Same-Spin Energy      =      -0.1337532054135615 [Eh]
	 SCS Opposite-Spin Energy  =      -1.5290532574250273 [Eh]
	 SCS Correlation Energy    =      -1.6628064628385888 [Eh]
	 SCS Total Energy          =    -364.3854646848587890 [Eh]
	-----------------------------------------------------------

  Dipole Moment: [D]
     X:    -0.9164      Y:     1.4372      Z:     0.0000     Total:     1.7045

*** Psi4 exiting successfully. Buy a developer a beer!
