                               Psi4 1.3.2 release

  ==> Input File <==

--------------------------------------------------------------------------
#psi4
#
memory 32 gb

molecule  {
0 1
  N       -0.1927630    -0.9977240    -0.0000150
  C        1.5548850     0.6585710    -0.0000200
  C        2.6349893    -0.1348304     0.6998520
  C        2.5204490    -0.2332040    -0.7472480
  C        0.1136930     0.3165400    -0.0000200
  C       -0.8720480     1.3127960    -0.0000140
  C       -2.2145020     0.9424750     0.0000090
  C       -1.4919940    -1.3393890    -0.0000040
  C       -2.5359710    -0.4146030     0.0000120
  H        1.7762130     1.7233350    -0.0000520
  H        2.0808840    -1.0925120     1.2420040
  H        3.3438860     0.2425840     1.2704470
  H        3.3439250     0.2425520    -1.2703830
  H        2.0809520    -1.0925710    -1.2419630
  H       -0.5837830     2.3612850    -0.0000220
  H       -2.9953690     1.6993840     0.0000210
  H       -1.6982570    -2.4088260    -0.0000060
  H       -3.5687280    -0.7512850     0.0000410
units angstrom
no_reorient  #important for SAPT in psi4, default
symmetry c1  #important for SAPT in psi4, default
}

set PROPERTIES_ORIGIN ["COM"]
properties('MP2/aug-cc-pvtz', properties = ['dipole'])
--------------------------------------------------------------------------

    Molecular point group: c1
  Charge       = 0
  Multiplicity = 1
  Basis Set: AUG-CC-PVTZ
    Blend: AUG-CC-PVTZ
  Basis Set: (AUG-CC-PVTZ AUX)
    Blend: AUG-CC-PVTZ-JKFIT

    Orbital Energies [Eh]
    ---------------------

    Doubly Occupied:

       1A    -15.559196     2A    -11.283496     3A    -11.274965
       4A    -11.258545     5A    -11.236480     6A    -11.235459
       7A    -11.233404     8A    -11.226784     9A    -11.224721
      10A     -1.254557    11A     -1.149262    12A     -1.082520
      13A     -1.031580    14A     -0.886126    15A     -0.854958
      16A     -0.821526    17A     -0.788241    18A     -0.704981
      19A     -0.679930    20A     -0.648180    21A     -0.640579
      22A     -0.610492    23A     -0.574779    24A     -0.548867
      25A     -0.542817    26A     -0.505829    27A     -0.490715
      28A     -0.436888    29A     -0.423708    30A     -0.413345
      31A     -0.377946    32A     -0.322768

  @DF-RHF Final Energy:  -362.69636477876065

   => Energetics <=

    Nuclear Repulsion Energy =            408.7173090805084144
    One-Electron Energy =               -1300.1800617491767298
    Two-Electron Energy =                 528.7663878899077190
    Total Energy =                       -362.6963647787606533
  Basis Set: (AUG-CC-PVTZ AUX)
    Blend: AUG-CC-PVTZ-RI
    Molecular point group: c1

    Geometry (in Angstrom), charge = 0, multiplicity = 1:

       Center              X                  Y                   Z               Mass
    ------------   -----------------  -----------------  -----------------  -----------------
         N           -0.172809278021    -0.999909541710     0.004766234857    14.003074004430
         C            1.574838721979     0.656385458290     0.004761234857    12.000000000000
         C            2.654943021979    -0.137015941710     0.704633234857    12.000000000000
         C            2.540402721979    -0.235389541710    -0.742466765143    12.000000000000
         C            0.133646721979     0.314354458290     0.004761234857    12.000000000000
         C           -0.852094278021     1.310610458290     0.004767234857    12.000000000000
         C           -2.194548278021     0.940289458290     0.004790234857    12.000000000000
         C           -1.472040278021    -1.341574541710     0.004777234857    12.000000000000
         C           -2.516017278021    -0.416788541710     0.004793234857    12.000000000000
         H            1.796166721979     1.721149458290     0.004729234857     1.007825032230
         H            2.100837721979    -1.094697541710     1.246785234857     1.007825032230
         H            3.363839721979     0.240398458290     1.275228234857     1.007825032230
         H            3.363878721979     0.240366458290    -1.265601765143     1.007825032230
         H            2.100905721979    -1.094756541710    -1.237181765143     1.007825032230
         H           -0.563829278021     2.359099458290     0.004759234857     1.007825032230
         H           -2.975415278021     1.697198458290     0.004802234857     1.007825032230
         H           -1.678303278021    -2.411011541710     0.004775234857     1.007825032230
         H           -3.548774278021    -0.753470541710     0.004822234857     1.007825032230

  Basis Set: AUG-CC-PVTZ
    Blend: AUG-CC-PVTZ
  Basis Set: (AUG-CC-PVTZ AUX)
    Blend: AUG-CC-PVTZ-JKFIT
	 Reference Energy          =    -362.6963647787606533 [Eh]
	 Singles Energy            =      -0.0000000000000000 [Eh]
	 Same-Spin Energy          =      -0.4023219850875066 [Eh]
	 Opposite-Spin Energy      =      -1.2763550901774185 [Eh]
	 Correlation Energy        =      -1.6786770752649252 [Eh]
	 Total Energy              =    -364.3750418540255964 [Eh]

	 ================> DF-SCS-MP2 Energies <==================
	-----------------------------------------------------------
	 SCS Same-Spin Scale       =       0.3333333333333333 [-]
	 SCS Opposite-Spin Scale   =       1.2000000000000000 [-]
	 SCS Same-Spin Energy      =      -0.1341073283625022 [Eh]
	 SCS Opposite-Spin Energy  =      -1.5316261082129021 [Eh]
	 SCS Correlation Energy    =      -1.6657334365754044 [Eh]
	 SCS Total Energy          =    -364.3620982153360615 [Eh]
	-----------------------------------------------------------

  Dipole Moment: [D]
     X:    -0.9670      Y:     1.4578      Z:    -0.0156     Total:     1.7495

*** Psi4 exiting successfully. Buy a developer a beer!
