                               Psi4 1.3.2 release

  ==> Input File <==

--------------------------------------------------------------------------
#psi4
#
memory 32 gb

molecule  {
0 1
  N       -0.0537062    -1.0225577    -0.0000148
  C        1.5548850     0.6585710    -0.0000200
  C        2.5204250    -0.2331670     0.7472870
  C        2.5204490    -0.2332040    -0.7472480
  C        0.1136930     0.3165400    -0.0000200
  C       -0.8720480     1.3127960    -0.0000140
  C       -2.2145020     0.9424750     0.0000090
  C       -1.4919940    -1.3393890    -0.0000040
  C       -2.5359710    -0.4146030     0.0000120
  H        1.7762130     1.7233350    -0.0000520
  H        2.0808840    -1.0925120     1.2420040
  H        3.3438860     0.2425840     1.2704470
  H        3.3439250     0.2425520    -1.2703830
  H        2.0809520    -1.0925710    -1.2419630
  H       -0.5837830     2.3612850    -0.0000220
  H       -2.9953690     1.6993840     0.0000210
  H       -1.6982570    -2.4088260    -0.0000060
  H       -3.5687280    -0.7512850     0.0000410
units angstrom
no_reorient  #important for SAPT in psi4, default
symmetry c1  #important for SAPT in psi4, default
}

set PROPERTIES_ORIGIN ["COM"]
properties('MP2/aug-cc-pvtz', properties = ['dipole'])
--------------------------------------------------------------------------

    Molecular point group: c1
  Charge       = 0
  Multiplicity = 1
  Basis Set: AUG-CC-PVTZ
    Blend: AUG-CC-PVTZ
  Basis Set: (AUG-CC-PVTZ AUX)
    Blend: AUG-CC-PVTZ-JKFIT

    Orbital Energies [Eh]
    ---------------------

    Doubly Occupied:

       1A    -15.573557     2A    -11.288192     3A    -11.282479
       4A    -11.264224     5A    -11.240248     6A    -11.238647
       7A    -11.229278     8A    -11.221162     9A    -11.220472
      10A     -1.235121    11A     -1.136216    12A     -1.084276
      13A     -1.023900    14A     -0.883242    15A     -0.854719
      16A     -0.814720    17A     -0.775704    18A     -0.705254
      19A     -0.671576    20A     -0.647782    21A     -0.624078
      22A     -0.608966    23A     -0.571967    24A     -0.541944
      25A     -0.540428    26A     -0.504094    27A     -0.489142
      28A     -0.440001    29A     -0.433834    30A     -0.418187
      31A     -0.369518    32A     -0.327689

  @DF-RHF Final Energy:  -362.70006828726252

   => Energetics <=

    Nuclear Repulsion Energy =            407.7467610324492284
    One-Electron Energy =               -1298.3724228410176238
    Two-Electron Energy =                 527.9255935213058137
    Total Energy =                       -362.7000682872625248
  Basis Set: (AUG-CC-PVTZ AUX)
    Blend: AUG-CC-PVTZ-RI
    Molecular point group: c1

    Geometry (in Angstrom), charge = 0, multiplicity = 1:

       Center              X                  Y                   Z               Mass
    ------------   -----------------  -----------------  -----------------  -----------------
         N           -0.038560021803    -1.011912617365    -0.000013997431    14.003074004430
         C            1.570031178197     0.669216082635    -0.000019197431    12.000000000000
         C            2.535571178197    -0.222521917365     0.747287802569    12.000000000000
         C            2.535595178197    -0.222558917365    -0.747247197431    12.000000000000
         C            0.128839178197     0.327185082635    -0.000019197431    12.000000000000
         C           -0.856901821803     1.323441082635    -0.000013197431    12.000000000000
         C           -2.199355821803     0.953120082635     0.000009802569    12.000000000000
         C           -1.476847821803    -1.328743917365    -0.000003197431    12.000000000000
         C           -2.520824821803    -0.403957917365     0.000012802569    12.000000000000
         H            1.791359178197     1.733980082635    -0.000051197431     1.007825032230
         H            2.096030178197    -1.081866917365     1.242004802569     1.007825032230
         H            3.359032178197     0.253229082635     1.270447802569     1.007825032230
         H            3.359071178197     0.253197082635    -1.270382197431     1.007825032230
         H            2.096098178197    -1.081925917365    -1.241962197431     1.007825032230
         H           -0.568636821803     2.371930082635    -0.000021197431     1.007825032230
         H           -2.980222821803     1.710029082635     0.000021802569     1.007825032230
         H           -1.683110821803    -2.398180917365    -0.000005197431     1.007825032230
         H           -3.553581821803    -0.740639917365     0.000041802569     1.007825032230

  Basis Set: AUG-CC-PVTZ
    Blend: AUG-CC-PVTZ
  Basis Set: (AUG-CC-PVTZ AUX)
    Blend: AUG-CC-PVTZ-JKFIT
	 Reference Energy          =    -362.7000682872625248 [Eh]
	 Singles Energy            =      -0.0000000000000000 [Eh]
	 Same-Spin Energy          =      -0.4032687859192395 [Eh]
	 Opposite-Spin Energy      =      -1.2806665447071750 [Eh]
	 Correlation Energy        =      -1.6839353306264147 [Eh]
	 Total Energy              =    -364.3840036178889363 [Eh]

	 ================> DF-SCS-MP2 Energies <==================
	-----------------------------------------------------------
	 SCS Same-Spin Scale       =       0.3333333333333333 [-]
	 SCS Opposite-Spin Scale   =       1.2000000000000000 [-]
	 SCS Same-Spin Energy      =      -0.1344229286397465 [Eh]
	 SCS Opposite-Spin Energy  =      -1.5367998536486100 [Eh]
	 SCS Correlation Energy    =      -1.6712227822883565 [Eh]
	 SCS Total Energy          =    -364.3712910695508640 [Eh]
	-----------------------------------------------------------

  Dipole Moment: [D]
     X:    -1.2572      Y:     1.4885      Z:     0.0000     Total:     1.9484

*** Psi4 exiting successfully. Buy a developer a beer!
