                               Psi4 1.3.2 release

  ==> Input File <==

--------------------------------------------------------------------------
#psi4
#
memory 32 gb

molecule  {
0 1
  N       -0.1003381    -1.0158998    -0.0000148
  C        1.5548850     0.6585710    -0.0000200
  C        2.5204250    -0.2331670     0.7472870
  C        2.5204490    -0.2332040    -0.7472480
  C        0.1136930     0.3165400    -0.0000200
  C       -0.8720480     1.3127960    -0.0000140
  C       -2.2145020     0.9424750     0.0000090
  C       -1.4919940    -1.3393890    -0.0000040
  C       -2.5359710    -0.4146030     0.0000120
  H        1.7762130     1.7233350    -0.0000520
  H        2.0808840    -1.0925120     1.2420040
  H        3.3438860     0.2425840     1.2704470
  H        3.3439250     0.2425520    -1.2703830
  H        2.0809520    -1.0925710    -1.2419630
  H       -0.5837830     2.3612850    -0.0000220
  H       -2.9953690     1.6993840     0.0000210
  H       -1.6982570    -2.4088260    -0.0000060
  H       -3.5687280    -0.7512850     0.0000410
units angstrom
no_reorient  #important for SAPT in psi4, default
symmetry c1  #important for SAPT in psi4, default
}

set PROPERTIES_ORIGIN ["COM"]
properties('MP2/aug-cc-pvtz', properties = ['dipole'])
--------------------------------------------------------------------------

    Molecular point group: c1
  Charge       = 0
  Multiplicity = 1
  Basis Set: AUG-CC-PVTZ
    Blend: AUG-CC-PVTZ
  Basis Set: (AUG-CC-PVTZ AUX)
    Blend: AUG-CC-PVTZ-JKFIT

    Orbital Energies [Eh]
    ---------------------

    Doubly Occupied:

       1A    -15.568836     2A    -11.284200     3A    -11.282174
       4A    -11.262302     5A    -11.238532     6A    -11.237587
       7A    -11.230781     8A    -11.222114     9A    -11.221422
      10A     -1.240438    11A     -1.138263    12A     -1.083536
      13A     -1.025640    14A     -0.883154    15A     -0.854786
      16A     -0.815506    17A     -0.779320    18A     -0.705995
      19A     -0.671862    20A     -0.648020    21A     -0.626682
      22A     -0.608724    23A     -0.572422    24A     -0.542701
      25A     -0.542311    26A     -0.505365    27A     -0.494455
      28A     -0.436500    29A     -0.434343    30A     -0.417306
      31A     -0.372085    32A     -0.326292

  @DF-RHF Final Energy:  -362.71133660143335

   => Energetics <=

    Nuclear Repulsion Energy =            408.1891810280874893
    One-Electron Energy =               -1299.2537299780046851
    Two-Electron Energy =                 528.3532123484839076
    Total Energy =                       -362.7113366014333451
  Basis Set: (AUG-CC-PVTZ AUX)
    Blend: AUG-CC-PVTZ-RI
    Molecular point group: c1

    Geometry (in Angstrom), charge = 0, multiplicity = 1:

       Center              X                  Y                   Z               Mass
    ------------   -----------------  -----------------  -----------------  -----------------
         N           -0.079707998424    -1.006037688109    -0.000013997431    14.003074004430
         C            1.575515101576     0.668433111891    -0.000019197431    12.000000000000
         C            2.541055101576    -0.223304888109     0.747287802569    12.000000000000
         C            2.541079101576    -0.223341888109    -0.747247197431    12.000000000000
         C            0.134323101576     0.326402111891    -0.000019197431    12.000000000000
         C           -0.851417898424     1.322658111891    -0.000013197431    12.000000000000
         C           -2.193871898424     0.952337111891     0.000009802569    12.000000000000
         C           -1.471363898424    -1.329526888109    -0.000003197431    12.000000000000
         C           -2.515340898424    -0.404740888109     0.000012802569    12.000000000000
         H            1.796843101576     1.733197111891    -0.000051197431     1.007825032230
         H            2.101514101576    -1.082649888109     1.242004802569     1.007825032230
         H            3.364516101576     0.252446111891     1.270447802569     1.007825032230
         H            3.364555101576     0.252414111891    -1.270382197431     1.007825032230
         H            2.101582101576    -1.082708888109    -1.241962197431     1.007825032230
         H           -0.563152898424     2.371147111891    -0.000021197431     1.007825032230
         H           -2.974738898424     1.709246111891     0.000021802569     1.007825032230
         H           -1.677626898424    -2.398963888109    -0.000005197431     1.007825032230
         H           -3.548097898424    -0.741422888109     0.000041802569     1.007825032230

  Basis Set: AUG-CC-PVTZ
    Blend: AUG-CC-PVTZ
  Basis Set: (AUG-CC-PVTZ AUX)
    Blend: AUG-CC-PVTZ-JKFIT
	 Reference Energy          =    -362.7113366014333451 [Eh]
	 Singles Energy            =      -0.0000000000000000 [Eh]
	 Same-Spin Energy          =      -0.4026524005444220 [Eh]
	 Opposite-Spin Energy      =      -1.2784884811674213 [Eh]
	 Correlation Energy        =      -1.6811408817118432 [Eh]
	 Total Energy              =    -364.3924774831451714 [Eh]

	 ================> DF-SCS-MP2 Energies <==================
	-----------------------------------------------------------
	 SCS Same-Spin Scale       =       0.3333333333333333 [-]
	 SCS Opposite-Spin Scale   =       1.2000000000000000 [-]
	 SCS Same-Spin Energy      =      -0.1342174668481406 [Eh]
	 SCS Opposite-Spin Energy  =      -1.5341861774009056 [Eh]
	 SCS Correlation Energy    =      -1.6684036442490462 [Eh]
	 SCS Total Energy          =    -364.3797402456823988 [Eh]
	-----------------------------------------------------------

  Dipole Moment: [D]
     X:    -1.1725      Y:     1.4722      Z:     0.0000     Total:     1.8820

*** Psi4 exiting successfully. Buy a developer a beer!
