                               Psi4 1.3.2 release

  ==> Input File <==

--------------------------------------------------------------------------
#psi4
#
memory 32 gb

molecule  {
0 1
  N       -0.1467092    -1.0076185    -0.0000149
  C        1.5548850     0.6585710    -0.0000200
  C        2.5204250    -0.2331670     0.7472870
  C        2.5204490    -0.2332040    -0.7472480
  C        0.1136930     0.3165400    -0.0000200
  C       -0.8720480     1.3127960    -0.0000140
  C       -2.2145020     0.9424750     0.0000090
  C       -1.4919940    -1.3393890    -0.0000040
  C       -2.5359710    -0.4146030     0.0000120
  H        1.7762130     1.7233350    -0.0000520
  H        2.0808840    -1.0925120     1.2420040
  H        3.3438860     0.2425840     1.2704470
  H        3.3439250     0.2425520    -1.2703830
  H        2.0809520    -1.0925710    -1.2419630
  H       -0.5837830     2.3612850    -0.0000220
  H       -2.9953690     1.6993840     0.0000210
  H       -1.6982570    -2.4088260    -0.0000060
  H       -3.5687280    -0.7512850     0.0000410
units angstrom
no_reorient  #important for SAPT in psi4, default
symmetry c1  #important for SAPT in psi4, default
}

set PROPERTIES_ORIGIN ["COM"]
properties('MP2/aug-cc-pvtz', properties = ['dipole'])
--------------------------------------------------------------------------

    Molecular point group: c1
  Charge       = 0
  Multiplicity = 1
  Basis Set: AUG-CC-PVTZ
    Blend: AUG-CC-PVTZ
  Basis Set: (AUG-CC-PVTZ AUX)
    Blend: AUG-CC-PVTZ-JKFIT

    Orbital Energies [Eh]
    ---------------------

    Doubly Occupied:

       1A    -15.563783     2A    -11.282002     3A    -11.279737
       4A    -11.260308     5A    -11.236728     6A    -11.236536
       7A    -11.232331     8A    -11.223070     9A    -11.222377
      10A     -1.246850    11A     -1.140428    12A     -1.082734
      13A     -1.027423    14A     -0.883376    15A     -0.854548
      16A     -0.816334    17A     -0.783053    18A     -0.706944
      19A     -0.672026    20A     -0.648602    21A     -0.629229
      22A     -0.608535    23A     -0.572947    24A     -0.544677
      25A     -0.543324    26A     -0.506687    27A     -0.499687
      28A     -0.435096    29A     -0.432964    30A     -0.414941
      31A     -0.374806    32A     -0.324746

  @DF-RHF Final Energy:  -362.71960742400734

   => Energetics <=

    Nuclear Repulsion Energy =            408.6843271583813362
    One-Electron Energy =               -1300.2342110315371428
    Two-Electron Energy =                 528.8302764491484140
    Total Energy =                       -362.7196074240073358
  Basis Set: (AUG-CC-PVTZ AUX)
    Blend: AUG-CC-PVTZ-RI
    Molecular point group: c1

    Geometry (in Angstrom), charge = 0, multiplicity = 1:

       Center              X                  Y                   Z               Mass
    ------------   -----------------  -----------------  -----------------  -----------------
         N           -0.120625845191    -0.998730271110    -0.000014085671    14.003074004430
         C            1.580968354809     0.667459228890    -0.000019185671    12.000000000000
         C            2.546508354809    -0.224278771110     0.747287814329    12.000000000000
         C            2.546532354809    -0.224315771110    -0.747247185671    12.000000000000
         C            0.139776354809     0.325428228890    -0.000019185671    12.000000000000
         C           -0.845964645191     1.321684228890    -0.000013185671    12.000000000000
         C           -2.188418645191     0.951363228890     0.000009814329    12.000000000000
         C           -1.465910645191    -1.330500771110    -0.000003185671    12.000000000000
         C           -2.509887645191    -0.405714771110     0.000012814329    12.000000000000
         H            1.802296354809     1.732223228890    -0.000051185671     1.007825032230
         H            2.106967354809    -1.083623771110     1.242004814329     1.007825032230
         H            3.369969354809     0.251472228890     1.270447814329     1.007825032230
         H            3.370008354809     0.251440228890    -1.270382185671     1.007825032230
         H            2.107035354809    -1.083682771110    -1.241962185671     1.007825032230
         H           -0.557699645191     2.370173228890    -0.000021185671     1.007825032230
         H           -2.969285645191     1.708272228890     0.000021814329     1.007825032230
         H           -1.672173645191    -2.399937771110    -0.000005185671     1.007825032230
         H           -3.542644645191    -0.742396771110     0.000041814329     1.007825032230

  Basis Set: AUG-CC-PVTZ
    Blend: AUG-CC-PVTZ
  Basis Set: (AUG-CC-PVTZ AUX)
    Blend: AUG-CC-PVTZ-JKFIT
	 Reference Energy          =    -362.7196074240073358 [Eh]
	 Singles Energy            =      -0.0000000000000000 [Eh]
	 Same-Spin Energy          =      -0.4021055296468738 [Eh]
	 Opposite-Spin Energy      =      -1.2765689339057451 [Eh]
	 Correlation Energy        =      -1.6786744635526190 [Eh]
	 Total Energy              =    -364.3982818875599605 [Eh]

	 ================> DF-SCS-MP2 Energies <==================
	-----------------------------------------------------------
	 SCS Same-Spin Scale       =       0.3333333333333333 [-]
	 SCS Opposite-Spin Scale   =       1.2000000000000000 [-]
	 SCS Same-Spin Energy      =      -0.1340351765489579 [Eh]
	 SCS Opposite-Spin Energy  =      -1.5318827206868941 [Eh]
	 SCS Correlation Energy    =      -1.6659178972358522 [Eh]
	 SCS Total Energy          =    -364.3855253212431649 [Eh]
	-----------------------------------------------------------

  Dipole Moment: [D]
     X:    -1.0782      Y:     1.4511      Z:     0.0000     Total:     1.8079

*** Psi4 exiting successfully. Buy a developer a beer!
