                               Psi4 1.4a3.dev225

  ==> Input File <==

--------------------------------------------------------------------------
#psi4
#
memory 32 gb

molecule  {
0 1
  N       -0.1927630    -0.9977240    -0.0000150
  C        1.5548850     0.6585710    -0.0000200
  C        2.5204250    -0.2331670     0.7472870
  C        2.5204490    -0.2332040    -0.7472480
  C        0.1623417     0.3280856    -0.0000200
  C       -0.8720480     1.3127960    -0.0000140
  C       -2.2145020     0.9424750     0.0000090
  C       -1.4919940    -1.3393890    -0.0000040
  C       -2.5359710    -0.4146030     0.0000120
  H        1.7762130     1.7233350    -0.0000520
  H        2.0808840    -1.0925120     1.2420040
  H        3.3438860     0.2425840     1.2704470
  H        3.3439250     0.2425520    -1.2703830
  H        2.0809520    -1.0925710    -1.2419630
  H       -0.5837830     2.3612850    -0.0000220
  H       -2.9953690     1.6993840     0.0000210
  H       -1.6982570    -2.4088260    -0.0000060
  H       -3.5687280    -0.7512850     0.0000410
units angstrom
no_reorient  #important for SAPT in psi4, default
symmetry c1  #important for SAPT in psi4, default
}

set PROPERTIES_ORIGIN ["COM"]
properties('MP2/aug-cc-pvtz', properties = ['dipole'])
--------------------------------------------------------------------------

    Molecular point group: c1
  Charge       = 0
  Multiplicity = 1
  Basis Set: AUG-CC-PVTZ
    Blend: AUG-CC-PVTZ
  Basis Set: (AUG-CC-PVTZ AUX)
    Blend: AUG-CC-PVTZ-JKFIT

    Orbital Energies [Eh]
    ---------------------

    Doubly Occupied:

       1A    -15.557512     2A    -11.285320     3A    -11.273313
       4A    -11.256661     5A    -11.237133     6A    -11.234259
       7A    -11.233185     8A    -11.227569     9A    -11.226884
      10A     -1.246391    11A     -1.148515    12A     -1.077330
      13A     -1.027446    14A     -0.892274    15A     -0.849315
      16A     -0.820583    17A     -0.787031    18A     -0.708370
      19A     -0.673468    20A     -0.649808    21A     -0.630879
      22A     -0.606448    23A     -0.572137    24A     -0.544737
      25A     -0.543629    26A     -0.512679    27A     -0.509988
      28A     -0.441515    29A     -0.432292    30A     -0.405416
      31A     -0.374863    32A     -0.317069

  @DF-RHF Final Energy:  -362.71903328566663

   => Energetics <=

    Nuclear Repulsion Energy =            409.0291376191358381
    One-Electron Energy =               -1300.8883063867187957
    Two-Electron Energy =                 529.1401354819163316
    Total Energy =                       -362.7190332856666828
  Basis Set: (AUG-CC-PVTZ AUX)
    Blend: AUG-CC-PVTZ-RI
    Molecular point group: c1

    Geometry (in Angstrom), charge = 0, multiplicity = 1:

       Center              X                  Y                   Z               Mass
    ------------   -----------------  -----------------  -----------------  -----------------
         N           -0.166166429657    -0.991162910376    -0.000014173911    14.003074004430
         C            1.581481570343     0.665132089624    -0.000019173911    12.000000000000
         C            2.547021570343    -0.226605910376     0.747287826089    12.000000000000
         C            2.547045570343    -0.226642910376    -0.747247173911    12.000000000000
         C            0.188938270343     0.334646689624    -0.000019173911    12.000000000000
         C           -0.845451429657     1.319357089624    -0.000013173911    12.000000000000
         C           -2.187905429657     0.949036089624     0.000009826089    12.000000000000
         C           -1.465397429657    -1.332827910376    -0.000003173911    12.000000000000
         C           -2.509374429657    -0.408041910376     0.000012826089    12.000000000000
         H            1.802809570343     1.729896089624    -0.000051173911     1.007825032230
         H            2.107480570343    -1.085950910376     1.242004826089     1.007825032230
         H            3.370482570343     0.249145089624     1.270447826089     1.007825032230
         H            3.370521570343     0.249113089624    -1.270382173911     1.007825032230
         H            2.107548570343    -1.086009910376    -1.241962173911     1.007825032230
         H           -0.557186429657     2.367846089624    -0.000021173911     1.007825032230
         H           -2.968772429657     1.705945089624     0.000021826089     1.007825032230
         H           -1.671660429657    -2.402264910376    -0.000005173911     1.007825032230
         H           -3.542131429657    -0.744723910376     0.000041826089     1.007825032230

  Basis Set: AUG-CC-PVTZ
    Blend: AUG-CC-PVTZ
  Basis Set: (AUG-CC-PVTZ AUX)
    Blend: AUG-CC-PVTZ-JKFIT
	 Reference Energy          =    -362.7190332856666259 [Eh]
	 Singles Energy            =      -0.0000000000000000 [Eh]
	 Same-Spin Energy          =      -0.4024960611041091 [Eh]
	 Opposite-Spin Energy      =      -1.2762767939489663 [Eh]
	 Correlation Energy        =      -1.6787728550530754 [Eh]
	 Total Energy              =    -364.3978061407196947 [Eh]

	 ================> DF-SCS-MP2 Energies <==================
	-----------------------------------------------------------
	 SCS Same-Spin Scale       =       0.3333333333333333 [-]
	 SCS Opposite-Spin Scale   =       1.2000000000000000 [-]
	 SCS Same-Spin Energy      =      -0.1341653537013697 [Eh]
	 SCS Opposite-Spin Energy  =      -1.5315321527387595 [Eh]
	 SCS Correlation Energy    =      -1.6656975064401291 [Eh]
	 SCS Total Energy          =    -364.3847307921067795 [Eh]
	-----------------------------------------------------------

  Dipole Moment: [D]
     X:    -0.7181      Y:     1.4396      Z:     0.0000     Total:     1.6088

*** Psi4 exiting successfully. Buy a developer a beer!
