                               Psi4 1.3.2 release

  ==> Input File <==

--------------------------------------------------------------------------
#psi4
#
memory 32 gb

molecule  {
0 1
  N       -0.1927630    -0.9977240    -0.0000150
  C        1.5548850     0.6585710    -0.0000200
  C        2.5204250    -0.2331670     0.7472870
  C        2.5204490    -0.2332040    -0.7472480
  C        0.0858360     0.4690593    -0.0000250
  C       -0.8720480     1.3127960    -0.0000140
  C       -2.2145020     0.9424750     0.0000090
  C       -1.4919940    -1.3393890    -0.0000040
  C       -2.5359710    -0.4146030     0.0000120
  H        1.7762130     1.7233350    -0.0000520
  H        2.0808840    -1.0925120     1.2420040
  H        3.3438860     0.2425840     1.2704470
  H        3.3439250     0.2425520    -1.2703830
  H        2.0809520    -1.0925710    -1.2419630
  H       -0.5837830     2.3612850    -0.0000220
  H       -2.9953690     1.6993840     0.0000210
  H       -1.6982570    -2.4088260    -0.0000060
  H       -3.5687280    -0.7512850     0.0000410
units angstrom
no_reorient  #important for SAPT in psi4, default
symmetry c1  #important for SAPT in psi4, default
}

set PROPERTIES_ORIGIN ["COM"]
properties('MP2/aug-cc-pvtz', properties = ['dipole'])
--------------------------------------------------------------------------

    Molecular point group: c1
  Charge       = 0
  Multiplicity = 1
  Basis Set: AUG-CC-PVTZ
    Blend: AUG-CC-PVTZ
  Basis Set: (AUG-CC-PVTZ AUX)
    Blend: AUG-CC-PVTZ-JKFIT

    Orbital Energies [Eh]
    ---------------------

    Doubly Occupied:

       1A    -15.565158     2A    -11.274909     3A    -11.273266
       4A    -11.262181     5A    -11.237728     6A    -11.234321
       7A    -11.223661     8A    -11.222967     9A    -11.222441
      10A     -1.230182    11A     -1.139477    12A     -1.085918
      13A     -1.040139    14A     -0.888578    15A     -0.849073
      16A     -0.815713    17A     -0.788323    18A     -0.703345
      19A     -0.678179    20A     -0.640085    21A     -0.628081
      22A     -0.617508    23A     -0.575042    24A     -0.541503
      25A     -0.540533    26A     -0.507206    27A     -0.485880
      28A     -0.436945    29A     -0.428918    30A     -0.414126
      31A     -0.376545    32A     -0.330249

  @DF-RHF Final Energy:  -362.69233914084344

   => Energetics <=

    Nuclear Repulsion Energy =            408.5227885297885564
    One-Electron Energy =               -1299.9138974147133467
    Two-Electron Energy =                 528.6987697440812326
    Total Energy =                       -362.6923391408435009
  Basis Set: (AUG-CC-PVTZ AUX)
    Blend: AUG-CC-PVTZ-RI
    Molecular point group: c1

    Geometry (in Angstrom), charge = 0, multiplicity = 1:

       Center              X                  Y                   Z               Mass
    ------------   -----------------  -----------------  -----------------  -----------------
         N           -0.158456331226    -1.005369970805    -0.000013670020    14.003074004430
         C            1.589191668774     0.650925029195    -0.000018670020    12.000000000000
         C            2.554731668774    -0.240812970805     0.747288329980    12.000000000000
         C            2.554755668774    -0.240849970805    -0.747246670020    12.000000000000
         C            0.120142668774     0.461413329195    -0.000023670020    12.000000000000
         C           -0.837741331226     1.305150029195    -0.000012670020    12.000000000000
         C           -2.180195331226     0.934829029195     0.000010329980    12.000000000000
         C           -1.457687331226    -1.347034970805    -0.000002670020    12.000000000000
         C           -2.501664331226    -0.422248970805     0.000013329980    12.000000000000
         H            1.810519668774     1.715689029195    -0.000050670020     1.007825032230
         H            2.115190668774    -1.100157970805     1.242005329980     1.007825032230
         H            3.378192668774     0.234938029195     1.270448329980     1.007825032230
         H            3.378231668774     0.234906029195    -1.270381670020     1.007825032230
         H            2.115258668774    -1.100216970805    -1.241961670020     1.007825032230
         H           -0.549476331226     2.353639029195    -0.000020670020     1.007825032230
         H           -2.961062331226     1.691738029195     0.000022329980     1.007825032230
         H           -1.663950331226    -2.416471970805    -0.000004670020     1.007825032230
         H           -3.534421331226    -0.758930970805     0.000042329980     1.007825032230

  Basis Set: AUG-CC-PVTZ
    Blend: AUG-CC-PVTZ
  Basis Set: (AUG-CC-PVTZ AUX)
    Blend: AUG-CC-PVTZ-JKFIT
	 Reference Energy          =    -362.6923391408434441 [Eh]
	 Singles Energy            =      -0.0000000000000000 [Eh]
	 Same-Spin Energy          =      -0.4018037854377184 [Eh]
	 Opposite-Spin Energy      =      -1.2786128773015715 [Eh]
	 Correlation Energy        =      -1.6804166627392898 [Eh]
	 Total Energy              =    -364.3727558035827201 [Eh]

	 ================> DF-SCS-MP2 Energies <==================
	-----------------------------------------------------------
	 SCS Same-Spin Scale       =       0.3333333333333333 [-]
	 SCS Opposite-Spin Scale   =       1.2000000000000000 [-]
	 SCS Same-Spin Energy      =      -0.1339345951459061 [Eh]
	 SCS Opposite-Spin Energy  =      -1.5343354527618858 [Eh]
	 SCS Correlation Energy    =      -1.6682700479077919 [Eh]
	 SCS Total Energy          =    -364.3606091887512548 [Eh]
	-----------------------------------------------------------

  Dipole Moment: [D]
     X:    -1.0693      Y:     1.3324      Z:     0.0000     Total:     1.7084

*** Psi4 exiting successfully. Buy a developer a beer!
