                               Psi4 1.3.2 release

  ==> Input File <==

--------------------------------------------------------------------------
#psi4
#
memory 32 gb

molecule  {
0 1
  S        1.5510760    -1.0871590     0.0000010
  O       -1.4242190    -1.5655850    -0.0000010
  N       -2.0132560     0.6673690     0.0000000
  N        0.6809160     1.3479160    -0.0000010
  C        0.3270732     0.1268356    -0.0000000
  C       -1.1339070    -0.3627170    -0.0000010
  C       -3.4470980     0.4588130     0.0000010
  C        2.6913180     0.1894230     0.0000000
  C        2.0463170     1.4081830     0.0000000
  H       -1.6187540     1.6018420     0.0000010
  H       -3.9049180     0.8972840    -0.8911940
  H       -3.9049160     0.8972760     0.8912010
  H       -3.6178680    -0.6175520    -0.0000030
  H        3.7564850    -0.0027380     0.0000010
  H        2.5404020     2.3736430     0.0000000
units angstrom
no_reorient  #important for SAPT in psi4, default
symmetry c1  #important for SAPT in psi4, default
}

set PROPERTIES_ORIGIN ["COM"]
properties('MP2/aug-cc-pvtz', properties = ['dipole'])
--------------------------------------------------------------------------

    Molecular point group: c1
  Charge       = 0
  Multiplicity = 1
  Basis Set: AUG-CC-PVTZ
    Blend: AUG-CC-PVTZ
  Basis Set: (AUG-CC-PVTZ AUX)
    Blend: AUG-CC-PVTZ-JKFIT

    Orbital Energies [Eh]
    ---------------------

    Doubly Occupied:

       1A    -92.008400     2A    -20.530977     3A    -15.594456
       4A    -15.592276     5A    -11.371823     6A    -11.322613
       7A    -11.283891     8A    -11.280901     9A    -11.264049
      10A     -9.008823    11A     -6.689557    12A     -6.688956
      13A     -6.688270    14A     -1.383365    15A     -1.313838
      16A     -1.238332    17A     -1.085849    18A     -1.029655
      19A     -0.959790    20A     -0.837625    21A     -0.810774
      22A     -0.776123    23A     -0.720388    24A     -0.654529
      25A     -0.649563    26A     -0.633422    27A     -0.600903
      28A     -0.589418    29A     -0.563594    30A     -0.552520
      31A     -0.533945    32A     -0.517112    33A     -0.474469
      34A     -0.430310    35A     -0.412412    36A     -0.394207
      37A     -0.348791

  @DF-RHF Final Energy:  -774.27605627144385

   => Energetics <=

    Nuclear Repulsion Energy =            505.0528307783782225
    One-Electron Energy =               -2064.9859170156651089
    Two-Electron Energy =                 785.6570299658430940
    Total Energy =                       -774.2760562714438493
  Basis Set: (AUG-CC-PVTZ AUX)
    Blend: AUG-CC-PVTZ-RI
    Molecular point group: c1

    Geometry (in Angstrom), charge = 0, multiplicity = 1:

       Center              X                  Y                   Z               Mass
    ------------   -----------------  -----------------  -----------------  -----------------
         S            1.500688414322    -1.055167502679     0.000000943522    31.972071174400
         O           -1.474606585678    -1.533593502679    -0.000001056478    15.994914619570
         N           -2.063643585678     0.699360497321    -0.000000056478    14.003074004430
         N            0.630528414322     1.379907497321    -0.000001056478    14.003074004430
         C            0.276685614322     0.158827097321    -0.000000056478    12.000000000000
         C           -1.184294585678    -0.330725502679    -0.000001056478    12.000000000000
         C           -3.497485585678     0.490804497321     0.000000943522    12.000000000000
         C            2.640930414322     0.221414497321    -0.000000056478    12.000000000000
         C            1.995929414322     1.440174497321    -0.000000056478    12.000000000000
         H           -1.669141585678     1.633833497321     0.000000943522     1.007825032230
         H           -3.955305585678     0.929275497321    -0.891194056478     1.007825032230
         H           -3.955303585678     0.929267497321     0.891200943522     1.007825032230
         H           -3.668255585678    -0.585560502679    -0.000003056478     1.007825032230
         H            3.706097414322     0.029253497321     0.000000943522     1.007825032230
         H            2.490014414322     2.405634497321    -0.000000056478     1.007825032230

  Basis Set: AUG-CC-PVTZ
    Blend: AUG-CC-PVTZ
  Basis Set: (AUG-CC-PVTZ AUX)
    Blend: AUG-CC-PVTZ-JKFIT
	 Reference Energy          =    -774.2760562714438493 [Eh]
	 Singles Energy            =      -0.0000000000000000 [Eh]
	 Same-Spin Energy          =      -0.4572536296555831 [Eh]
	 Opposite-Spin Energy      =      -1.3668652325663535 [Eh]
	 Correlation Energy        =      -1.8241188622219366 [Eh]
	 Total Energy              =    -776.1001751336657435 [Eh]

	 ================> DF-SCS-MP2 Energies <==================
	-----------------------------------------------------------
	 SCS Same-Spin Scale       =       0.3333333333333333 [-]
	 SCS Opposite-Spin Scale   =       1.2000000000000000 [-]
	 SCS Same-Spin Energy      =      -0.1524178765518610 [Eh]
	 SCS Opposite-Spin Energy  =      -1.6402382790796242 [Eh]
	 SCS Correlation Energy    =      -1.7926561556314853 [Eh]
	 SCS Total Energy          =    -776.0687124270752975 [Eh]
	-----------------------------------------------------------

  Dipole Moment: [D]
     X:     0.9595      Y:     2.4749      Z:     0.0000     Total:     2.6544

*** Psi4 exiting successfully. Buy a developer a beer!
