                               Psi4 1.3.2 release

  ==> Input File <==

--------------------------------------------------------------------------
#psi4
#
memory 32 gb

molecule  {
0 1
  S        1.5510760    -1.0871590     0.0000010
  O       -1.4242190    -1.5655850    -0.0000010
  N       -2.0132560     0.6673690     0.0000000
  N        0.6884461     1.2528172    -0.0000010
  C        0.2854510     0.0833790     0.0000000
  C       -1.1339070    -0.3627170    -0.0000010
  C       -3.4470980     0.4588130     0.0000010
  C        2.6913180     0.1894230     0.0000000
  C        2.0463170     1.4081830     0.0000000
  H       -1.6187540     1.6018420     0.0000010
  H       -3.9049180     0.8972840    -0.8911940
  H       -3.9049160     0.8972760     0.8912010
  H       -3.6178680    -0.6175520    -0.0000030
  H        3.7564850    -0.0027380     0.0000010
  H        2.5404020     2.3736430     0.0000000
units angstrom
no_reorient  #important for SAPT in psi4, default
symmetry c1  #important for SAPT in psi4, default
}

set PROPERTIES_ORIGIN ["COM"]
properties('MP2/aug-cc-pvtz', properties = ['dipole'])
--------------------------------------------------------------------------

    Molecular point group: c1
  Charge       = 0
  Multiplicity = 1
  Basis Set: AUG-CC-PVTZ
    Blend: AUG-CC-PVTZ
  Basis Set: (AUG-CC-PVTZ AUX)
    Blend: AUG-CC-PVTZ-JKFIT

    Orbital Energies [Eh]
    ---------------------

    Doubly Occupied:

       1A    -92.002049     2A    -20.529360     3A    -15.594238
       4A    -15.584531     5A    -11.368206     6A    -11.312978
       7A    -11.284904     8A    -11.283260     9A    -11.264081
      10A     -9.002891    11A     -6.683612    12A     -6.683146
      13A     -6.682378    14A     -1.384971    15A     -1.321265
      16A     -1.238569    17A     -1.081355    18A     -1.038061
      19A     -0.962593    20A     -0.847206    21A     -0.815192
      22A     -0.777596    23A     -0.717430    24A     -0.666059
      25A     -0.650759    26A     -0.635831    27A     -0.605522
      28A     -0.593710    29A     -0.570006    30A     -0.552219
      31A     -0.533446    32A     -0.514026    33A     -0.463937
      34A     -0.424319    35A     -0.410571    36A     -0.393165
      37A     -0.351779

  @DF-RHF Final Energy:  -774.27543006714734

   => Energetics <=

    Nuclear Repulsion Energy =            507.5092932394728109
    One-Electron Energy =               -2069.9190037394046158
    Two-Electron Energy =                 788.1342804327845215
    Total Energy =                       -774.2754300671473402
  Basis Set: (AUG-CC-PVTZ AUX)
    Blend: AUG-CC-PVTZ-RI
    Molecular point group: c1

    Geometry (in Angstrom), charge = 0, multiplicity = 1:

       Center              X                  Y                   Z               Mass
    ------------   -----------------  -----------------  -----------------  -----------------
         S            1.503462823697    -1.042118962768     0.000000943522    31.972071174400
         O           -1.471832176303    -1.520544962768    -0.000001056478    15.994914619570
         N           -2.060869176303     0.712409037232    -0.000000056478    14.003074004430
         N            0.640832923697     1.297857237232    -0.000001056478    14.003074004430
         C            0.237837823697     0.128419037232    -0.000000056478    12.000000000000
         C           -1.181520176303    -0.317676962768    -0.000001056478    12.000000000000
         C           -3.494711176303     0.503853037232     0.000000943522    12.000000000000
         C            2.643704823697     0.234463037232    -0.000000056478    12.000000000000
         C            1.998703823697     1.453223037232    -0.000000056478    12.000000000000
         H           -1.666367176303     1.646882037232     0.000000943522     1.007825032230
         H           -3.952531176303     0.942324037232    -0.891194056478     1.007825032230
         H           -3.952529176303     0.942316037232     0.891200943522     1.007825032230
         H           -3.665481176303    -0.572511962768    -0.000003056478     1.007825032230
         H            3.708871823697     0.042302037232     0.000000943522     1.007825032230
         H            2.492788823697     2.418683037232    -0.000000056478     1.007825032230

  Basis Set: AUG-CC-PVTZ
    Blend: AUG-CC-PVTZ
  Basis Set: (AUG-CC-PVTZ AUX)
    Blend: AUG-CC-PVTZ-JKFIT
	 Reference Energy          =    -774.2754300671473402 [Eh]
	 Singles Energy            =      -0.0000000000000000 [Eh]
	 Same-Spin Energy          =      -0.4567038962026231 [Eh]
	 Opposite-Spin Energy      =      -1.3649832757518965 [Eh]
	 Correlation Energy        =      -1.8216871719545196 [Eh]
	 Total Energy              =    -776.0971172391018627 [Eh]

	 ================> DF-SCS-MP2 Energies <==================
	-----------------------------------------------------------
	 SCS Same-Spin Scale       =       0.3333333333333333 [-]
	 SCS Opposite-Spin Scale   =       1.2000000000000000 [-]
	 SCS Same-Spin Energy      =      -0.1522346320675410 [Eh]
	 SCS Opposite-Spin Energy  =      -1.6379799309022758 [Eh]
	 SCS Correlation Energy    =      -1.7902145629698167 [Eh]
	 SCS Total Energy          =    -776.0656446301171627 [Eh]
	-----------------------------------------------------------

  Dipole Moment: [D]
     X:     0.9463      Y:     2.7976      Z:     0.0000     Total:     2.9533

*** Psi4 exiting successfully. Buy a developer a beer!
