                               Psi4 1.3.2 release

  ==> Input File <==

--------------------------------------------------------------------------
#psi4
#
memory 32 gb

molecule  {
0 1
  S        1.5510760    -1.0871590     0.0000010
  O       -1.4242190    -1.5655850    -0.0000010
  N       -2.0132560     0.6673690     0.0000000
  N        0.6809160     1.3479160    -0.0000010
  C        0.2854510     0.0833790     0.0000000
  C       -1.1339070    -0.3627170    -0.0000010
  C       -3.4470980     0.4588130     0.0000010
  C        2.6699495     0.1783518     0.0000000
  C        2.0463170     1.4081830     0.0000000
  H       -1.6187540     1.6018420     0.0000010
  H       -3.9049180     0.8972840    -0.8911940
  H       -3.9049160     0.8972760     0.8912010
  H       -3.6178680    -0.6175520    -0.0000030
  H        3.7564850    -0.0027380     0.0000010
  H        2.5404020     2.3736430     0.0000000
units angstrom
no_reorient  #important for SAPT in psi4, default
symmetry c1  #important for SAPT in psi4, default
}

set PROPERTIES_ORIGIN ["COM"]
properties('MP2/aug-cc-pvtz', properties = ['dipole'])
--------------------------------------------------------------------------

    Molecular point group: c1
  Charge       = 0
  Multiplicity = 1
  Basis Set: AUG-CC-PVTZ
    Blend: AUG-CC-PVTZ
  Basis Set: (AUG-CC-PVTZ AUX)
    Blend: AUG-CC-PVTZ-JKFIT

    Orbital Energies [Eh]
    ---------------------

    Doubly Occupied:

       1A    -92.013383     2A    -20.528557     3A    -15.596951
       4A    -15.593210     5A    -11.368670     6A    -11.322969
       7A    -11.284301     8A    -11.282444     9A    -11.263375
      10A     -9.013722    11A     -6.694456    12A     -6.693897
      13A     -6.693250    14A     -1.383645    15A     -1.296950
      16A     -1.237503    17A     -1.085304    18A     -1.035184
      19A     -0.958986    20A     -0.847546    21A     -0.802753
      22A     -0.777369    23A     -0.718465    24A     -0.655620
      25A     -0.648913    26A     -0.633265    27A     -0.598155
      28A     -0.585106    29A     -0.564818    30A     -0.551645
      31A     -0.532359    32A     -0.522483    33A     -0.466192
      34A     -0.436486    35A     -0.409782    36A     -0.392847
      37A     -0.347117

  @DF-RHF Final Energy:  -774.27560760980509

   => Energetics <=

    Nuclear Repulsion Energy =            505.3892067722216552
    One-Electron Energy =               -2065.6542767110404384
    Two-Electron Energy =                 785.9894623290135769
    Total Energy =                       -774.2756076098050926
  Basis Set: (AUG-CC-PVTZ AUX)
    Blend: AUG-CC-PVTZ-RI
    Molecular point group: c1

    Geometry (in Angstrom), charge = 0, multiplicity = 1:

       Center              X                  Y                   Z               Mass
    ------------   -----------------  -----------------  -----------------  -----------------
         S            1.506010819286    -1.050560171226     0.000000943522    31.972071174400
         O           -1.469284180714    -1.528986171226    -0.000001056478    15.994914619570
         N           -2.058321180714     0.703967828774    -0.000000056478    14.003074004430
         N            0.635850819286     1.384514828774    -0.000001056478    14.003074004430
         C            0.240385819286     0.119977828774    -0.000000056478    12.000000000000
         C           -1.178972180714    -0.326118171226    -0.000001056478    12.000000000000
         C           -3.492163180714     0.495411828774     0.000000943522    12.000000000000
         C            2.624884319286     0.214950628774    -0.000000056478    12.000000000000
         C            2.001251819286     1.444781828774    -0.000000056478    12.000000000000
         H           -1.663819180714     1.638440828774     0.000000943522     1.007825032230
         H           -3.949983180714     0.933882828774    -0.891194056478     1.007825032230
         H           -3.949981180714     0.933874828774     0.891200943522     1.007825032230
         H           -3.662933180714    -0.580953171226    -0.000003056478     1.007825032230
         H            3.711419819286     0.033860828774     0.000000943522     1.007825032230
         H            2.495336819286     2.410241828774    -0.000000056478     1.007825032230

  Basis Set: AUG-CC-PVTZ
    Blend: AUG-CC-PVTZ
  Basis Set: (AUG-CC-PVTZ AUX)
    Blend: AUG-CC-PVTZ-JKFIT
	 Reference Energy          =    -774.2756076098050926 [Eh]
	 Singles Energy            =      -0.0000000000000000 [Eh]
	 Same-Spin Energy          =      -0.4591512764817672 [Eh]
	 Opposite-Spin Energy      =      -1.3691210454510458 [Eh]
	 Correlation Energy        =      -1.8282723219328130 [Eh]
	 Total Energy              =    -776.1038799317378789 [Eh]

	 ================> DF-SCS-MP2 Energies <==================
	-----------------------------------------------------------
	 SCS Same-Spin Scale       =       0.3333333333333333 [-]
	 SCS Opposite-Spin Scale   =       1.2000000000000000 [-]
	 SCS Same-Spin Energy      =      -0.1530504254939224 [Eh]
	 SCS Opposite-Spin Energy  =      -1.6429452545412551 [Eh]
	 SCS Correlation Energy    =      -1.7959956800351775 [Eh]
	 SCS Total Energy          =    -776.0716032898402545 [Eh]
	-----------------------------------------------------------

  Dipole Moment: [D]
     X:     1.1382      Y:     2.4322      Z:     0.0000     Total:     2.6854

*** Psi4 exiting successfully. Buy a developer a beer!
