                               Psi4 1.3.2 release

  ==> Input File <==

--------------------------------------------------------------------------
#psi4
#
memory 32 gb

molecule  {
0 1
  S        1.5510760    -1.0871590     0.0000010
  O       -1.4242190    -1.5655850    -0.0000010
  N       -2.0132560     0.6673690     0.0000000
  N        0.6809160     1.3479160    -0.0000010
  C        0.3152989     0.1788206    -0.0000001
  C       -1.1339070    -0.3627170    -0.0000010
  C       -3.4470980     0.4588130     0.0000010
  C        2.6913180     0.1894230     0.0000000
  C        2.0463170     1.4081830     0.0000000
  H       -1.6187540     1.6018420     0.0000010
  H       -3.9049180     0.8972840    -0.8911940
  H       -3.9049160     0.8972760     0.8912010
  H       -3.6178680    -0.6175520    -0.0000030
  H        3.7564850    -0.0027380     0.0000010
  H        2.5404020     2.3736430     0.0000000
units angstrom
no_reorient  #important for SAPT in psi4, default
symmetry c1  #important for SAPT in psi4, default
}

set PROPERTIES_ORIGIN ["COM"]
properties('MP2/aug-cc-pvtz', properties = ['dipole'])
--------------------------------------------------------------------------

    Molecular point group: c1
  Charge       = 0
  Multiplicity = 1
  Basis Set: AUG-CC-PVTZ
    Blend: AUG-CC-PVTZ
  Basis Set: (AUG-CC-PVTZ AUX)
    Blend: AUG-CC-PVTZ-JKFIT

    Orbital Energies [Eh]
    ---------------------

    Doubly Occupied:

       1A    -92.002286     2A    -20.533637     3A    -15.595489
       4A    -15.590612     5A    -11.373422     6A    -11.322012
       7A    -11.283593     8A    -11.281978     9A    -11.264534
      10A     -9.002386    11A     -6.683119    12A     -6.682448
      13A     -6.681787    14A     -1.384864    15A     -1.328807
      16A     -1.240041    17A     -1.086076    18A     -1.026385
      19A     -0.960501    20A     -0.836815    21A     -0.816077
      22A     -0.776082    23A     -0.720541    24A     -0.656495
      25A     -0.650374    26A     -0.635065    27A     -0.605258
      28A     -0.593690    29A     -0.560724    30A     -0.553348
      31A     -0.535622    32A     -0.514396    33A     -0.475950
      34A     -0.424765    35A     -0.416991    36A     -0.396077
      37A     -0.346498

  @DF-RHF Final Energy:  -774.26989512279783

   => Energetics <=

    Nuclear Repulsion Energy =            504.9877683425899022
    One-Electron Energy =               -2064.8378389484400941
    Two-Electron Energy =                 785.5801754830524715
    Total Energy =                       -774.2698951227978341
  Basis Set: (AUG-CC-PVTZ AUX)
    Blend: AUG-CC-PVTZ-RI
    Molecular point group: c1

    Geometry (in Angstrom), charge = 0, multiplicity = 1:

       Center              X                  Y                   Z               Mass
    ------------   -----------------  -----------------  -----------------  -----------------
         S            1.501683284879    -1.059559980013     0.000000951971    31.972071174400
         O           -1.473611715121    -1.537985980013    -0.000001048029    15.994914619570
         N           -2.062648715121     0.694968019987    -0.000000048029    14.003074004430
         N            0.631523284879     1.375515019987    -0.000001048029    14.003074004430
         C            0.265906184879     0.206419619987    -0.000000148029    12.000000000000
         C           -1.183299715121    -0.335117980013    -0.000001048029    12.000000000000
         C           -3.496490715121     0.486412019987     0.000000951971    12.000000000000
         C            2.641925284879     0.217022019987    -0.000000048029    12.000000000000
         C            1.996924284879     1.435782019987    -0.000000048029    12.000000000000
         H           -1.668146715121     1.629441019987     0.000000951971     1.007825032230
         H           -3.954310715121     0.924883019987    -0.891194048029     1.007825032230
         H           -3.954308715121     0.924875019987     0.891200951971     1.007825032230
         H           -3.667260715121    -0.589952980013    -0.000003048029     1.007825032230
         H            3.707092284879     0.024861019987     0.000000951971     1.007825032230
         H            2.491009284879     2.401242019987    -0.000000048029     1.007825032230

  Basis Set: AUG-CC-PVTZ
    Blend: AUG-CC-PVTZ
  Basis Set: (AUG-CC-PVTZ AUX)
    Blend: AUG-CC-PVTZ-JKFIT
	 Reference Energy          =    -774.2698951227978341 [Eh]
	 Singles Energy            =      -0.0000000000000000 [Eh]
	 Same-Spin Energy          =      -0.4563540549287842 [Eh]
	 Opposite-Spin Energy      =      -1.3659127175036778 [Eh]
	 Correlation Energy        =      -1.8222667724324619 [Eh]
	 Total Energy              =    -776.0921618952303334 [Eh]

	 ================> DF-SCS-MP2 Energies <==================
	-----------------------------------------------------------
	 SCS Same-Spin Scale       =       0.3333333333333333 [-]
	 SCS Opposite-Spin Scale   =       1.2000000000000000 [-]
	 SCS Same-Spin Energy      =      -0.1521180183095947 [Eh]
	 SCS Opposite-Spin Energy  =      -1.6390952610044134 [Eh]
	 SCS Correlation Energy    =      -1.7912132793140081 [Eh]
	 SCS Total Energy          =    -776.0611084021118131 [Eh]
	-----------------------------------------------------------

  Dipole Moment: [D]
     X:     0.7600      Y:     2.6320      Z:     0.0000     Total:     2.7396

*** Psi4 exiting successfully. Buy a developer a beer!
