                               Psi4 1.3.2 release

  ==> Input File <==

--------------------------------------------------------------------------
#psi4
#
memory 32 gb

molecule  {
0 1
  S        1.5510760    -1.0871590     0.0000010
  O       -1.4242190    -1.5655850    -0.0000010
  N       -2.0132560     0.6673690     0.0000000
  N        0.6365434     1.3609472    -0.0000011
  C        0.2854510     0.0833790     0.0000000
  C       -1.1339070    -0.3627170    -0.0000010
  C       -3.4470980     0.4588130     0.0000010
  C        2.6913180     0.1894230     0.0000000
  C        2.0463170     1.4081830     0.0000000
  H       -1.6187540     1.6018420     0.0000010
  H       -3.9049180     0.8972840    -0.8911940
  H       -3.9049160     0.8972760     0.8912010
  H       -3.6178680    -0.6175520    -0.0000030
  H        3.7564850    -0.0027380     0.0000010
  H        2.5404020     2.3736430     0.0000000
units angstrom
no_reorient  #important for SAPT in psi4, default
symmetry c1  #important for SAPT in psi4, default
}

set PROPERTIES_ORIGIN ["COM"]
properties('MP2/aug-cc-pvtz', properties = ['dipole'])
--------------------------------------------------------------------------

    Molecular point group: c1
  Charge       = 0
  Multiplicity = 1
  Basis Set: AUG-CC-PVTZ
    Blend: AUG-CC-PVTZ
  Basis Set: (AUG-CC-PVTZ AUX)
    Blend: AUG-CC-PVTZ-JKFIT

    Orbital Energies [Eh]
    ---------------------

    Doubly Occupied:

       1A    -92.012629     2A    -20.529139     3A    -15.602274
       4A    -15.592987     5A    -11.368285     6A    -11.326275
       7A    -11.289441     8A    -11.284220     9A    -11.263343
      10A     -9.012674    11A     -6.693420    12A     -6.692840
      13A     -6.692173    14A     -1.384035    15A     -1.288387
      16A     -1.236713    17A     -1.083364    18A     -1.032027
      19A     -0.959323    20A     -0.847917    21A     -0.802127
      22A     -0.777011    23A     -0.716741    24A     -0.652563
      25A     -0.649184    26A     -0.633082    27A     -0.595105
      28A     -0.581965    29A     -0.568644    30A     -0.552057
      31A     -0.530312    32A     -0.519460    33A     -0.471481
      34A     -0.436592    35A     -0.408782    36A     -0.391320
      37A     -0.350455

  @DF-RHF Final Energy:  -774.27381603112372

   => Energetics <=

    Nuclear Repulsion Energy =            504.2151513383874999
    One-Electron Energy =               -2063.3212433506196248
    Two-Electron Energy =                 784.8322759811085234
    Total Energy =                       -774.2738160311237152
  Basis Set: (AUG-CC-PVTZ AUX)
    Blend: AUG-CC-PVTZ-RI
    Molecular point group: c1

    Geometry (in Angstrom), charge = 0, multiplicity = 1:

       Center              X                  Y                   Z               Mass
    ------------   -----------------  -----------------  -----------------  -----------------
         S            1.508580391077    -1.052780499852     0.000000953382    31.972071174400
         O           -1.466714608923    -1.531206499852    -0.000001046618    15.994914619570
         N           -2.055751608923     0.701747500148    -0.000000046618    14.003074004430
         N            0.594047791077     1.395325700148    -0.000001146618    14.003074004430
         C            0.242955391077     0.117757500148    -0.000000046618    12.000000000000
         C           -1.176402608923    -0.328338499852    -0.000001046618    12.000000000000
         C           -3.489593608923     0.493191500148     0.000000953382    12.000000000000
         C            2.648822391077     0.223801500148    -0.000000046618    12.000000000000
         C            2.003821391077     1.442561500148    -0.000000046618    12.000000000000
         H           -1.661249608923     1.636220500148     0.000000953382     1.007825032230
         H           -3.947413608923     0.931662500148    -0.891194046618     1.007825032230
         H           -3.947411608923     0.931654500148     0.891200953382     1.007825032230
         H           -3.660363608923    -0.583173499852    -0.000003046618     1.007825032230
         H            3.713989391077     0.031640500148     0.000000953382     1.007825032230
         H            2.497906391077     2.408021500148    -0.000000046618     1.007825032230

  Basis Set: AUG-CC-PVTZ
    Blend: AUG-CC-PVTZ
  Basis Set: (AUG-CC-PVTZ AUX)
    Blend: AUG-CC-PVTZ-JKFIT
	 Reference Energy          =    -774.2738160311237152 [Eh]
	 Singles Energy            =      -0.0000000000000000 [Eh]
	 Same-Spin Energy          =      -0.4583300872057148 [Eh]
	 Opposite-Spin Energy      =      -1.3697165133275262 [Eh]
	 Correlation Energy        =      -1.8280466005332410 [Eh]
	 Total Energy              =    -776.1018626316568998 [Eh]

	 ================> DF-SCS-MP2 Energies <==================
	-----------------------------------------------------------
	 SCS Same-Spin Scale       =       0.3333333333333333 [-]
	 SCS Opposite-Spin Scale   =       1.2000000000000000 [-]
	 SCS Same-Spin Energy      =      -0.1527766957352382 [Eh]
	 SCS Opposite-Spin Energy  =      -1.6436598159930313 [Eh]
	 SCS Correlation Energy    =      -1.7964365117282697 [Eh]
	 SCS Total Energy          =    -776.0702525428520175 [Eh]
	-----------------------------------------------------------

  Dipole Moment: [D]
     X:     1.1957      Y:     2.4070      Z:     0.0000     Total:     2.6877

*** Psi4 exiting successfully. Buy a developer a beer!
