                               Psi4 1.4a3.dev225

  ==> Input File <==

--------------------------------------------------------------------------
#psi4
#
memory 32 gb

molecule  {
0 1
  S        1.5510760    -1.0871590     0.0000010
  O       -1.4242190    -1.5655850    -0.0000010
  N       -2.0132560     0.6673690     0.0000000
  N        0.6809160     1.3479160    -0.0000010
  C        0.2854510     0.0833790     0.0000000
  C       -1.1339070    -0.3627170    -0.0000010
  C       -3.4470980     0.4588130     0.0000010
  C        2.6913180     0.1894230     0.0000000
  C        2.0662975     1.4090649     0.0000000
  H       -1.6187540     1.6018420     0.0000010
  H       -3.9049180     0.8972840    -0.8911940
  H       -3.9049160     0.8972760     0.8912010
  H       -3.6178680    -0.6175520    -0.0000030
  H        3.7564850    -0.0027380     0.0000010
  H        2.5404020     2.3736430     0.0000000
units angstrom
no_reorient  #important for SAPT in psi4, default
symmetry c1  #important for SAPT in psi4, default
}

set PROPERTIES_ORIGIN ["COM"]
properties('MP2/aug-cc-pvtz', properties = ['dipole'])
--------------------------------------------------------------------------

    Molecular point group: c1
  Charge       = 0
  Multiplicity = 1
  Basis Set: AUG-CC-PVTZ
    Blend: AUG-CC-PVTZ
  Basis Set: (AUG-CC-PVTZ AUX)
    Blend: AUG-CC-PVTZ-JKFIT

    Orbital Energies [Eh]
    ---------------------

    Doubly Occupied:

       1A    -92.011829     2A    -20.529688     3A    -15.597782
       4A    -15.593955     5A    -11.369648     6A    -11.324911
       7A    -11.284777     8A    -11.282207     9A    -11.263841
      10A     -9.011847    11A     -6.692575    12A     -6.692022
      13A     -6.691370    14A     -1.384503    15A     -1.291665
      16A     -1.237873    17A     -1.080286    18A     -1.036002
      19A     -0.960714    20A     -0.848739    21A     -0.804397
      22A     -0.777827    23A     -0.717618    24A     -0.656108
      25A     -0.650711    26A     -0.633577    27A     -0.598314
      28A     -0.583154    29A     -0.567183    30A     -0.552244
      31A     -0.531750    32A     -0.520963    33A     -0.466067
      34A     -0.436176    35A     -0.407762    36A     -0.391694
      37A     -0.350963

  @DF-RHF Final Energy:  -774.27648545444629

   => Energetics <=

    Nuclear Repulsion Energy =            504.5206400256816437
    One-Electron Energy =               -2063.9287661296953047
    Two-Electron Energy =                 785.1316406495674300
    Total Energy =                       -774.2764854544462878
  Basis Set: (AUG-CC-PVTZ AUX)
    Blend: AUG-CC-PVTZ-RI
    Molecular point group: c1

    Geometry (in Angstrom), charge = 0, multiplicity = 1:

       Center              X                  Y                   Z               Mass
    ------------   -----------------  -----------------  -----------------  -----------------
         S            1.502517031745    -1.051570149504     0.000000943522    31.972071174400
         O           -1.472777968255    -1.529996149504    -0.000001056478    15.994914619570
         N           -2.061814968255     0.702957850496    -0.000000056478    14.003074004430
         N            0.632357031745     1.383504850496    -0.000001056478    14.003074004430
         C            0.236892031745     0.118967850496    -0.000000056478    12.000000000000
         C           -1.182465968255    -0.327128149504    -0.000001056478    12.000000000000
         C           -3.495656968255     0.494401850496     0.000000943522    12.000000000000
         C            2.642759031745     0.225011850496    -0.000000056478    12.000000000000
         C            2.017738531745     1.444653750496    -0.000000056478    12.000000000000
         H           -1.667312968255     1.637430850496     0.000000943522     1.007825032230
         H           -3.953476968255     0.932872850496    -0.891194056478     1.007825032230
         H           -3.953474968255     0.932864850496     0.891200943522     1.007825032230
         H           -3.666426968255    -0.581963149504    -0.000003056478     1.007825032230
         H            3.707926031745     0.032850850496     0.000000943522     1.007825032230
         H            2.491843031745     2.409231850496    -0.000000056478     1.007825032230

  Basis Set: AUG-CC-PVTZ
    Blend: AUG-CC-PVTZ
  Basis Set: (AUG-CC-PVTZ AUX)
    Blend: AUG-CC-PVTZ-JKFIT
	 Reference Energy          =    -774.2764854544462878 [Eh]
	 Singles Energy            =      -0.0000000000000000 [Eh]
	 Same-Spin Energy          =      -0.4584007465628044 [Eh]
	 Opposite-Spin Energy      =      -1.3689312401547069 [Eh]
	 Correlation Energy        =      -1.8273319867175113 [Eh]
	 Total Energy              =    -776.1038174411637556 [Eh]

	 ================> DF-SCS-MP2 Energies <==================
	-----------------------------------------------------------
	 SCS Same-Spin Scale       =       0.3333333333333333 [-]
	 SCS Opposite-Spin Scale   =       1.2000000000000000 [-]
	 SCS Same-Spin Energy      =      -0.1528002488542681 [Eh]
	 SCS Opposite-Spin Energy  =      -1.6427174881856483 [Eh]
	 SCS Correlation Energy    =      -1.7955177370399165 [Eh]
	 SCS Total Energy          =    -776.0720031914862602 [Eh]
	-----------------------------------------------------------

  Dipole Moment: [D]
     X:     1.1095      Y:     2.4559      Z:     0.0000     Total:     2.6949

*** Psi4 exiting successfully. Buy a developer a beer!
