                               Psi4 1.3.2 release

  ==> Input File <==

--------------------------------------------------------------------------
#psi4
#
memory 32 gb

molecule  {
0 1
  S        1.5510760    -1.0871590     0.0000010
  O       -1.4242190    -1.5655850    -0.0000010
  N       -2.0132560     0.6673690     0.0000000
  N        0.6809160     1.3479160    -0.0000010
  C        0.3746240     0.0588731     0.0000001
  C       -1.1339070    -0.3627170    -0.0000010
  C       -3.4470980     0.4588130     0.0000010
  C        2.6913180     0.1894230     0.0000000
  C        2.0463170     1.4081830     0.0000000
  H       -1.6187540     1.6018420     0.0000010
  H       -3.9049180     0.8972840    -0.8911940
  H       -3.9049160     0.8972760     0.8912010
  H       -3.6178680    -0.6175520    -0.0000030
  H        3.7564850    -0.0027380     0.0000010
  H        2.5404020     2.3736430     0.0000000
units angstrom
no_reorient  #important for SAPT in psi4, default
symmetry c1  #important for SAPT in psi4, default
}

set PROPERTIES_ORIGIN ["COM"]
properties('MP2/aug-cc-pvtz', properties = ['dipole'])
--------------------------------------------------------------------------

    Molecular point group: c1
  Charge       = 0
  Multiplicity = 1
  Basis Set: AUG-CC-PVTZ
    Blend: AUG-CC-PVTZ
  Basis Set: (AUG-CC-PVTZ AUX)
    Blend: AUG-CC-PVTZ-JKFIT

    Orbital Energies [Eh]
    ---------------------

    Doubly Occupied:

       1A    -92.015194     2A    -20.527525     3A    -15.593559
       4A    -15.591542     5A    -11.371151     6A    -11.321909
       7A    -11.284285     8A    -11.277120     9A    -11.263638
      10A     -9.017031    11A     -6.697898    12A     -6.697147
      13A     -6.696459    14A     -1.380789    15A     -1.301284
      16A     -1.236113    17A     -1.092678    18A     -1.029073
      19A     -0.958574    20A     -0.832480    21A     -0.804994
      22A     -0.775351    23A     -0.721163    24A     -0.650643
      25A     -0.648058    26A     -0.631320    27A     -0.593196
      28A     -0.587737    29A     -0.567649    30A     -0.551506
      31A     -0.532514    32A     -0.520969    33A     -0.474893
      34A     -0.431493    35A     -0.408434    36A     -0.392426
      37A     -0.350825

  @DF-RHF Final Energy:  -774.26909562541823

   => Energetics <=

    Nuclear Repulsion Energy =            505.4333446891623112
    One-Electron Energy =               -2065.7476391595596397
    Two-Electron Energy =                 786.0451988449790406
    Total Energy =                       -774.2690956254182311
  Basis Set: (AUG-CC-PVTZ AUX)
    Blend: AUG-CC-PVTZ-RI
    Molecular point group: c1

    Geometry (in Angstrom), charge = 0, multiplicity = 1:

       Center              X                  Y                   Z               Mass
    ------------   -----------------  -----------------  -----------------  -----------------
         S            1.496670605123    -1.049425005019     0.000000935072    31.972071174400
         O           -1.478624394877    -1.527851005019    -0.000001064928    15.994914619570
         N           -2.067661394877     0.705102994981    -0.000000064928    14.003074004430
         N            0.626510605123     1.385649994981    -0.000001064928    14.003074004430
         C            0.320218605123     0.096607094981     0.000000035072    12.000000000000
         C           -1.188312394877    -0.324983005019    -0.000001064928    12.000000000000
         C           -3.501503394877     0.496546994981     0.000000935072    12.000000000000
         C            2.636912605123     0.227156994981    -0.000000064928    12.000000000000
         C            1.991911605123     1.445916994981    -0.000000064928    12.000000000000
         H           -1.673159394877     1.639575994981     0.000000935072     1.007825032230
         H           -3.959323394877     0.935017994981    -0.891194064928     1.007825032230
         H           -3.959321394877     0.935009994981     0.891200935072     1.007825032230
         H           -3.672273394877    -0.579818005019    -0.000003064928     1.007825032230
         H            3.702079605123     0.034995994981     0.000000935072     1.007825032230
         H            2.485996605123     2.411376994981    -0.000000064928     1.007825032230

  Basis Set: AUG-CC-PVTZ
    Blend: AUG-CC-PVTZ
  Basis Set: (AUG-CC-PVTZ AUX)
    Blend: AUG-CC-PVTZ-JKFIT
	 Reference Energy          =    -774.2690956254182311 [Eh]
	 Singles Energy            =      -0.0000000000000000 [Eh]
	 Same-Spin Energy          =      -0.4584921442083387 [Eh]
	 Opposite-Spin Energy      =      -1.3682479644270875 [Eh]
	 Correlation Energy        =      -1.8267401086354262 [Eh]
	 Total Energy              =    -776.0958357340537077 [Eh]

	 ================> DF-SCS-MP2 Energies <==================
	-----------------------------------------------------------
	 SCS Same-Spin Scale       =       0.3333333333333333 [-]
	 SCS Opposite-Spin Scale   =       1.2000000000000000 [-]
	 SCS Same-Spin Energy      =      -0.1528307147361129 [Eh]
	 SCS Opposite-Spin Energy  =      -1.6418975573125050 [Eh]
	 SCS Correlation Energy    =      -1.7947282720486180 [Eh]
	 SCS Total Energy          =    -776.0638238974668184 [Eh]
	-----------------------------------------------------------

  Dipole Moment: [D]
     X:     1.1481      Y:     2.2703      Z:     0.0000     Total:     2.5441

*** Psi4 exiting successfully. Buy a developer a beer!
