                               Psi4 1.3.2 release

  ==> Input File <==

--------------------------------------------------------------------------
#psi4
#
memory 32 gb

molecule  {
0 1
  S        1.5510760    -1.0871590     0.0000010
  O       -1.4242190    -1.5655850    -0.0000010
  N       -2.0132560     0.6673690     0.0000000
  N        0.6809160     1.3479160    -0.0000010
  C        0.2854510     0.0833790     0.0000000
  C       -1.1339070    -0.3627170    -0.0000010
  C       -3.4470980     0.4588130     0.0000010
  C        2.7579338     0.2640041    -0.0000001
  C        2.0463170     1.4081830     0.0000000
  H       -1.6187540     1.6018420     0.0000010
  H       -3.9049180     0.8972840    -0.8911940
  H       -3.9049160     0.8972760     0.8912010
  H       -3.6178680    -0.6175520    -0.0000030
  H        3.7564850    -0.0027380     0.0000010
  H        2.5404020     2.3736430     0.0000000
units angstrom
no_reorient  #important for SAPT in psi4, default
symmetry c1  #important for SAPT in psi4, default
}

set PROPERTIES_ORIGIN ["COM"]
properties('MP2/aug-cc-pvtz', properties = ['dipole'])
--------------------------------------------------------------------------

    Molecular point group: c1
  Charge       = 0
  Multiplicity = 1
  Basis Set: AUG-CC-PVTZ
    Blend: AUG-CC-PVTZ
  Basis Set: (AUG-CC-PVTZ AUX)
    Blend: AUG-CC-PVTZ-JKFIT

    Orbital Energies [Eh]
    ---------------------

    Doubly Occupied:

       1A    -92.007952     2A    -20.531830     3A    -15.596339
       4A    -15.596051     5A    -11.371641     6A    -11.330989
       7A    -11.285168     8A    -11.282331     9A    -11.265107
      10A     -9.006674    11A     -6.687361    12A     -6.686712
      13A     -6.686206    14A     -1.386344    15A     -1.294807
      16A     -1.239672    17A     -1.067101    18A     -1.040940
      19A     -0.964285    20A     -0.851633    21A     -0.810926
      22A     -0.778764    23A     -0.723908    24A     -0.656838
      25A     -0.653534    26A     -0.634926    27A     -0.604030
      28A     -0.583101    29A     -0.573863    30A     -0.553563
      31A     -0.532367    32A     -0.497127    33A     -0.466655
      34A     -0.436749    35A     -0.405035    36A     -0.388855
      37A     -0.359319

  @DF-RHF Final Energy:  -774.27042129072754

   => Energetics <=

    Nuclear Repulsion Energy =            503.0604149252596926
    One-Electron Energy =               -2060.9842619166984150
    Two-Electron Energy =                 783.6534257007111819
    Total Energy =                       -774.2704212907275405
  Basis Set: (AUG-CC-PVTZ AUX)
    Blend: AUG-CC-PVTZ-RI
    Molecular point group: c1

    Geometry (in Angstrom), charge = 0, multiplicity = 1:

       Center              X                  Y                   Z               Mass
    ------------   -----------------  -----------------  -----------------  -----------------
         S            1.498576577802    -1.057797370156     0.000000951971    31.972071174400
         O           -1.476718422198    -1.536223370156    -0.000001048029    15.994914619570
         N           -2.065755422198     0.696730629844    -0.000000048029    14.003074004430
         N            0.628416577802     1.377277629844    -0.000001048029    14.003074004430
         C            0.232951577802     0.112740629844    -0.000000048029    12.000000000000
         C           -1.186406422198    -0.333355370156    -0.000001048029    12.000000000000
         C           -3.499597422198     0.488174629844     0.000000951971    12.000000000000
         C            2.705434377802     0.293365729844    -0.000000148029    12.000000000000
         C            1.993817577802     1.437544629844    -0.000000048029    12.000000000000
         H           -1.671253422198     1.631203629844     0.000000951971     1.007825032230
         H           -3.957417422198     0.926645629844    -0.891194048029     1.007825032230
         H           -3.957415422198     0.926637629844     0.891200951971     1.007825032230
         H           -3.670367422198    -0.588190370156    -0.000003048029     1.007825032230
         H            3.703985577802     0.026623629844     0.000000951971     1.007825032230
         H            2.487902577802     2.403004629844    -0.000000048029     1.007825032230

  Basis Set: AUG-CC-PVTZ
    Blend: AUG-CC-PVTZ
  Basis Set: (AUG-CC-PVTZ AUX)
    Blend: AUG-CC-PVTZ-JKFIT
	 Reference Energy          =    -774.2704212907275405 [Eh]
	 Singles Energy            =      -0.0000000000000000 [Eh]
	 Same-Spin Energy          =      -0.4573642494054285 [Eh]
	 Opposite-Spin Energy      =      -1.3687010387050949 [Eh]
	 Correlation Energy        =      -1.8260652881105233 [Eh]
	 Total Energy              =    -776.0964865788380393 [Eh]

	 ================> DF-SCS-MP2 Energies <==================
	-----------------------------------------------------------
	 SCS Same-Spin Scale       =       0.3333333333333333 [-]
	 SCS Opposite-Spin Scale   =       1.2000000000000000 [-]
	 SCS Same-Spin Energy      =      -0.1524547498018095 [Eh]
	 SCS Opposite-Spin Energy  =      -1.6424412464461138 [Eh]
	 SCS Correlation Energy    =      -1.7948959962479232 [Eh]
	 SCS Total Energy          =    -776.0653172869754144 [Eh]
	-----------------------------------------------------------

  Dipole Moment: [D]
     X:     1.0645      Y:     2.5326      Z:     0.0000     Total:     2.7472

*** Psi4 exiting successfully. Buy a developer a beer!
