                               Psi4 1.3.2 release

  ==> Input File <==

--------------------------------------------------------------------------
#psi4
#
memory 32 gb

molecule  {
0 1
  S        1.6664973    -0.9484528     0.0000011
  O       -1.4242190    -1.5655850    -0.0000010
  N       -2.0132560     0.6673690     0.0000000
  N        0.6809160     1.3479160    -0.0000010
  C        0.2854510     0.0833790     0.0000000
  C       -1.1339070    -0.3627170    -0.0000010
  C       -3.4470980     0.4588130     0.0000010
  C        2.6913180     0.1894230     0.0000000
  C        2.0463170     1.4081830     0.0000000
  H       -1.6187540     1.6018420     0.0000010
  H       -3.9049180     0.8972840    -0.8911940
  H       -3.9049160     0.8972760     0.8912010
  H       -3.6178680    -0.6175520    -0.0000030
  H        3.7564850    -0.0027380     0.0000010
  H        2.5404020     2.3736430     0.0000000
units angstrom
no_reorient  #important for SAPT in psi4, default
symmetry c1  #important for SAPT in psi4, default
}

set PROPERTIES_ORIGIN ["COM"]
properties('MP2/aug-cc-pvtz', properties = ['dipole'])
--------------------------------------------------------------------------

    Molecular point group: c1
  Charge       = 0
  Multiplicity = 1
  Basis Set: AUG-CC-PVTZ
    Blend: AUG-CC-PVTZ
  Basis Set: (AUG-CC-PVTZ AUX)
    Blend: AUG-CC-PVTZ-JKFIT

    Orbital Energies [Eh]
    ---------------------

    Doubly Occupied:

       1A    -92.006505     2A    -20.525327     3A    -15.597305
       4A    -15.592077     5A    -11.368925     6A    -11.315434
       7A    -11.280650     8A    -11.270688     9A    -11.262670
      10A     -9.012242    11A     -6.693660    12A     -6.692175
      13A     -6.691583    14A     -1.380778    15A     -1.307507
      16A     -1.237093    17A     -1.124964    18A     -1.029273
      19A     -0.957823    20A     -0.848142    21A     -0.803772
      22A     -0.778071    23A     -0.733120    24A     -0.662357
      25A     -0.649776    26A     -0.633051    27A     -0.596073
      28A     -0.594011    29A     -0.583626    30A     -0.550744
      31A     -0.536253    32A     -0.515391    33A     -0.462110
      34A     -0.434272    35A     -0.420912    36A     -0.394138
      37A     -0.339836

  @DF-RHF Final Energy:  -774.25287381078203

   => Energetics <=

    Nuclear Repulsion Energy =            508.9288348696407525
    One-Electron Energy =               -2072.5987518232154798
    Two-Electron Energy =                 789.4170431427927497
    Total Energy =                       -774.2528738107820345
  Basis Set: (AUG-CC-PVTZ AUX)
    Blend: AUG-CC-PVTZ-RI
    Molecular point group: c1

    Geometry (in Angstrom), charge = 0, multiplicity = 1:

       Center              X                  Y                   Z               Mass
    ------------   -----------------  -----------------  -----------------  -----------------
         S            1.593642528493    -0.944015470995     0.000001021009    31.972071174400
         O           -1.497073771507    -1.561147670995    -0.000001078991    15.994914619570
         N           -2.086110771507     0.671806329005    -0.000000078991    14.003074004430
         N            0.608061228493     1.352353329005    -0.000001078991    14.003074004430
         C            0.212596228493     0.087816329005    -0.000000078991    12.000000000000
         C           -1.206761771507    -0.358279670995    -0.000001078991    12.000000000000
         C           -3.519952771507     0.463250329005     0.000000921009    12.000000000000
         C            2.618463228493     0.193860329005    -0.000000078991    12.000000000000
         C            1.973462228493     1.412620329005    -0.000000078991    12.000000000000
         H           -1.691608771507     1.606279329005     0.000000921009     1.007825032230
         H           -3.977772771507     0.901721329005    -0.891194078991     1.007825032230
         H           -3.977770771507     0.901713329005     0.891200921009     1.007825032230
         H           -3.690722771507    -0.613114670995    -0.000003078991     1.007825032230
         H            3.683630228493     0.001699329005     0.000000921009     1.007825032230
         H            2.467547228493     2.378080329005    -0.000000078991     1.007825032230

  Basis Set: AUG-CC-PVTZ
    Blend: AUG-CC-PVTZ
  Basis Set: (AUG-CC-PVTZ AUX)
    Blend: AUG-CC-PVTZ-JKFIT
	 Reference Energy          =    -774.2528738107820345 [Eh]
	 Singles Energy            =      -0.0000000000000000 [Eh]
	 Same-Spin Energy          =      -0.4608387446713735 [Eh]
	 Opposite-Spin Energy      =      -1.3679456739062115 [Eh]
	 Correlation Energy        =      -1.8287844185775850 [Eh]
	 Total Energy              =    -776.0816582293596184 [Eh]

	 ================> DF-SCS-MP2 Energies <==================
	-----------------------------------------------------------
	 SCS Same-Spin Scale       =       0.3333333333333333 [-]
	 SCS Opposite-Spin Scale   =       1.2000000000000000 [-]
	 SCS Same-Spin Energy      =      -0.1536129148904578 [Eh]
	 SCS Opposite-Spin Energy  =      -1.6415348086874537 [Eh]
	 SCS Correlation Energy    =      -1.7951477235779116 [Eh]
	 SCS Total Energy          =    -776.0480215343599184 [Eh]
	-----------------------------------------------------------

  Dipole Moment: [D]
     X:     1.3841      Y:     2.4815      Z:     0.0000     Total:     2.8414

*** Psi4 exiting successfully. Buy a developer a beer!
