                               Psi4 1.3.2 release

  ==> Input File <==

--------------------------------------------------------------------------
#psi4
#
memory 32 gb

molecule  {
0 1
  S        1.5510760    -1.0871590     0.0000010
  O       -1.4242190    -1.5655850    -0.0000010
  N       -2.0132560     0.6673690     0.0000000
  N        0.6809160     1.3479160    -0.0000010
  C        0.2854510     0.0833790     0.0000000
  C       -1.1339070    -0.3627170    -0.0000010
  C       -3.4470980     0.4588130     0.0000010
  C        2.6913180     0.1894230     0.0000000
  C        2.1462197     1.4125926     0.0000001
  H       -1.6187540     1.6018420     0.0000010
  H       -3.9049180     0.8972840    -0.8911940
  H       -3.9049160     0.8972760     0.8912010
  H       -3.6178680    -0.6175520    -0.0000030
  H        3.7564850    -0.0027380     0.0000010
  H        2.5404020     2.3736430     0.0000000
units angstrom
no_reorient  #important for SAPT in psi4, default
symmetry c1  #important for SAPT in psi4, default
}

set PROPERTIES_ORIGIN ["COM"]
properties('MP2/aug-cc-pvtz', properties = ['dipole'])
--------------------------------------------------------------------------

    Molecular point group: c1
  Charge       = 0
  Multiplicity = 1
  Basis Set: AUG-CC-PVTZ
    Blend: AUG-CC-PVTZ
  Basis Set: (AUG-CC-PVTZ AUX)
    Blend: AUG-CC-PVTZ-JKFIT

    Orbital Energies [Eh]
    ---------------------

    Doubly Occupied:

       1A    -92.008524     2A    -20.531293     3A    -15.599808
       4A    -15.594298     5A    -11.370678     6A    -11.325796
       7A    -11.283892     8A    -11.280811     9A    -11.264079
      10A     -9.008932    11A     -6.689745    12A     -6.689097
      13A     -6.688358    14A     -1.385531    15A     -1.276752
      16A     -1.237151    17A     -1.078848    18A     -1.035210
      19A     -0.963866    20A     -0.851290    21A     -0.803631
      22A     -0.778165    23A     -0.715544    24A     -0.657425
      25A     -0.651184    26A     -0.633470    27A     -0.593808
      28A     -0.579025    29A     -0.562622    30A     -0.552686
      31A     -0.532641    32A     -0.530187    33A     -0.463854
      34A     -0.432662    35A     -0.405890    36A     -0.388262
      37A     -0.360212

  @DF-RHF Final Energy:  -774.26822578294718

   => Energetics <=

    Nuclear Repulsion Energy =            503.3399864293834867
    One-Electron Energy =               -2061.6059674545704183
    Two-Electron Energy =                 783.9977552422396911
    Total Energy =                       -774.2682257829471837
  Basis Set: (AUG-CC-PVTZ AUX)
    Blend: AUG-CC-PVTZ-RI
    Molecular point group: c1

    Geometry (in Angstrom), charge = 0, multiplicity = 1:

       Center              X                  Y                   Z               Mass
    ------------   -----------------  -----------------  -----------------  -----------------
         S            1.495763998139    -1.051868222839     0.000000935072    31.972071174400
         O           -1.479531001861    -1.530294222839    -0.000001064928    15.994914619570
         N           -2.068568001861     0.702659777161    -0.000000064928    14.003074004430
         N            0.625603998139     1.383206777161    -0.000001064928    14.003074004430
         C            0.230138998139     0.118669777161    -0.000000064928    12.000000000000
         C           -1.189219001861    -0.327426222839    -0.000001064928    12.000000000000
         C           -3.502410001861     0.494103777161     0.000000935072    12.000000000000
         C            2.636005998139     0.224713777161    -0.000000064928    12.000000000000
         C            2.090907698139     1.447883377161     0.000000035072    12.000000000000
         H           -1.674066001861     1.637132777161     0.000000935072     1.007825032230
         H           -3.960230001861     0.932574777161    -0.891194064928     1.007825032230
         H           -3.960228001861     0.932566777161     0.891200935072     1.007825032230
         H           -3.673180001861    -0.582261222839    -0.000003064928     1.007825032230
         H            3.701172998139     0.032552777161     0.000000935072     1.007825032230
         H            2.485089998139     2.408933777161    -0.000000064928     1.007825032230

  Basis Set: AUG-CC-PVTZ
    Blend: AUG-CC-PVTZ
  Basis Set: (AUG-CC-PVTZ AUX)
    Blend: AUG-CC-PVTZ-JKFIT
	 Reference Energy          =    -774.2682257829471837 [Eh]
	 Singles Energy            =      -0.0000000000000000 [Eh]
	 Same-Spin Energy          =      -0.4568969623373677 [Eh]
	 Opposite-Spin Energy      =      -1.3689056780481332 [Eh]
	 Correlation Energy        =      -1.8258026403855010 [Eh]
	 Total Energy              =    -776.0940284233327020 [Eh]

	 ================> DF-SCS-MP2 Energies <==================
	-----------------------------------------------------------
	 SCS Same-Spin Scale       =       0.3333333333333333 [-]
	 SCS Opposite-Spin Scale   =       1.2000000000000000 [-]
	 SCS Same-Spin Energy      =      -0.1522989874457892 [Eh]
	 SCS Opposite-Spin Energy  =      -1.6426868136577599 [Eh]
	 SCS Correlation Energy    =      -1.7949858011035491 [Eh]
	 SCS Total Energy          =    -776.0632115840506913 [Eh]
	-----------------------------------------------------------

  Dipole Moment: [D]
     X:     1.0508      Y:     2.4862      Z:     0.0000     Total:     2.6992

*** Psi4 exiting successfully. Buy a developer a beer!
