                               Psi4 1.3.2 release

  ==> Input File <==

--------------------------------------------------------------------------
#psi4
#
memory 32 gb

molecule  {
0 1
  S        1.5510760    -1.0871590     0.0000010
  O       -1.4242190    -1.5655850    -0.0000010
  N       -2.0829691     0.6035195    -0.0000001
  N        0.6809160     1.3479160    -0.0000010
  C        0.2854510     0.0833790     0.0000000
  C       -1.1339070    -0.3627170    -0.0000010
  C       -3.4470980     0.4588130     0.0000010
  C        2.6913180     0.1894230     0.0000000
  C        2.0463170     1.4081830     0.0000000
  H       -1.6187540     1.6018420     0.0000010
  H       -3.9049180     0.8972840    -0.8911940
  H       -3.9049160     0.8972760     0.8912010
  H       -3.6178680    -0.6175520    -0.0000030
  H        3.7564850    -0.0027380     0.0000010
  H        2.5404020     2.3736430     0.0000000
units angstrom
no_reorient  #important for SAPT in psi4, default
symmetry c1  #important for SAPT in psi4, default
}

set PROPERTIES_ORIGIN ["COM"]
properties('MP2/aug-cc-pvtz', properties = ['dipole'])
--------------------------------------------------------------------------

    Molecular point group: c1
  Charge       = 0
  Multiplicity = 1
  Basis Set: AUG-CC-PVTZ
    Blend: AUG-CC-PVTZ
  Basis Set: (AUG-CC-PVTZ AUX)
    Blend: AUG-CC-PVTZ-JKFIT

    Orbital Energies [Eh]
    ---------------------

    Doubly Occupied:

       1A    -92.015944     2A    -20.525192     3A    -15.600322
       4A    -15.596126     5A    -11.368981     6A    -11.328892
       7A    -11.287363     8A    -11.285303     9A    -11.256437
      10A     -9.015728    11A     -6.696419    12A     -6.695903
      13A     -6.695264    14A     -1.385009    15A     -1.298240
      16A     -1.243137    17A     -1.084055    18A     -1.040618
      19A     -0.965602    20A     -0.844346    21A     -0.807080
      22A     -0.761024    23A     -0.721590    24A     -0.663567
      25A     -0.655607    26A     -0.640938    27A     -0.599873
      28A     -0.586964    29A     -0.576106    30A     -0.533886
      31A     -0.530190    32A     -0.519634    33A     -0.467799
      34A     -0.436461    35A     -0.408044    36A     -0.386898
      37A     -0.350959

  @DF-RHF Final Energy:  -774.26221219273975

   => Energetics <=

    Nuclear Repulsion Energy =            505.0290361738906313
    One-Electron Energy =               -2064.8314948025931699
    Two-Electron Energy =                 785.5402464359626720
    Total Energy =                       -774.2622121927397529
  Basis Set: (AUG-CC-PVTZ AUX)
    Blend: AUG-CC-PVTZ-RI
    Molecular point group: c1

    Geometry (in Angstrom), charge = 0, multiplicity = 1:

       Center              X                  Y                   Z               Mass
    ------------   -----------------  -----------------  -----------------  -----------------
         S            1.511078945414    -1.045200120364     0.000000953382    31.972071174400
         O           -1.464216054586    -1.523626120364    -0.000001046618    15.994914619570
         N           -2.122966154586     0.645478379636    -0.000000146618    14.003074004430
         N            0.640918945414     1.389874879636    -0.000001046618    14.003074004430
         C            0.245453945414     0.125337879636    -0.000000046618    12.000000000000
         C           -1.173904054586    -0.320758120364    -0.000001046618    12.000000000000
         C           -3.487095054586     0.500771879636     0.000000953382    12.000000000000
         C            2.651320945414     0.231381879636    -0.000000046618    12.000000000000
         C            2.006319945414     1.450141879636    -0.000000046618    12.000000000000
         H           -1.658751054586     1.643800879636     0.000000953382     1.007825032230
         H           -3.944915054586     0.939242879636    -0.891194046618     1.007825032230
         H           -3.944913054586     0.939234879636     0.891200953382     1.007825032230
         H           -3.657865054586    -0.575593120364    -0.000003046618     1.007825032230
         H            3.716487945414     0.039220879636     0.000000953382     1.007825032230
         H            2.500404945414     2.415601879636    -0.000000046618     1.007825032230

  Basis Set: AUG-CC-PVTZ
    Blend: AUG-CC-PVTZ
  Basis Set: (AUG-CC-PVTZ AUX)
    Blend: AUG-CC-PVTZ-JKFIT
	 Reference Energy          =    -774.2622121927397529 [Eh]
	 Singles Energy            =      -0.0000000000000000 [Eh]
	 Same-Spin Energy          =      -0.4599883319643254 [Eh]
	 Opposite-Spin Energy      =      -1.3707082007946694 [Eh]
	 Correlation Energy        =      -1.8306965327589948 [Eh]
	 Total Energy              =    -776.0929087254987735 [Eh]

	 ================> DF-SCS-MP2 Energies <==================
	-----------------------------------------------------------
	 SCS Same-Spin Scale       =       0.3333333333333333 [-]
	 SCS Opposite-Spin Scale   =       1.2000000000000000 [-]
	 SCS Same-Spin Energy      =      -0.1533294439881085 [Eh]
	 SCS Opposite-Spin Energy  =      -1.6448498409536032 [Eh]
	 SCS Correlation Energy    =      -1.7981792849417118 [Eh]
	 SCS Total Energy          =    -776.0603914776814918 [Eh]
	-----------------------------------------------------------

  Dipole Moment: [D]
     X:     1.4166      Y:     2.5125      Z:     0.0000     Total:     2.8844

*** Psi4 exiting successfully. Buy a developer a beer!
