                               Psi4 1.3.2 release

  ==> Input File <==

--------------------------------------------------------------------------
#psi4
#
memory 32 gb

molecule  {
0 1
  S        1.5510760    -1.0871590     0.0000010
  O       -1.4242190    -1.5655850    -0.0000010
  N       -2.0132560     0.6673690     0.0000000
  N        0.6809160     1.3479160    -0.0000010
  C        0.2854510     0.0833790     0.0000000
  C       -1.1339070    -0.3627170    -0.0000010
  C       -3.4470980     0.4588130     0.0000010
  C        2.6913180     0.1894230     0.0000000
  C        1.9527649     1.5849541     0.0000000
  H       -1.6187540     1.6018420     0.0000010
  H       -3.9049180     0.8972840    -0.8911940
  H       -3.9049160     0.8972760     0.8912010
  H       -3.6178680    -0.6175520    -0.0000030
  H        3.7564850    -0.0027380     0.0000010
  H        2.5404020     2.3736430     0.0000000
units angstrom
no_reorient  #important for SAPT in psi4, default
symmetry c1  #important for SAPT in psi4, default
}

set PROPERTIES_ORIGIN ["COM"]
properties('MP2/aug-cc-pvtz', properties = ['dipole'])
--------------------------------------------------------------------------

    Molecular point group: c1
  Charge       = 0
  Multiplicity = 1
  Basis Set: AUG-CC-PVTZ
    Blend: AUG-CC-PVTZ
  Basis Set: (AUG-CC-PVTZ AUX)
    Blend: AUG-CC-PVTZ-JKFIT

    Orbital Energies [Eh]
    ---------------------

    Doubly Occupied:

       1A    -92.026376     2A    -20.522282     3A    -15.597330
       4A    -15.588444     5A    -11.364276     6A    -11.314165
       7A    -11.303574     8A    -11.297307     9A    -11.260432
      10A     -9.024627    11A     -6.705173    12A     -6.704684
      13A     -6.704394    14A     -1.378483    15A     -1.301589
      16A     -1.233367    17A     -1.084197    18A     -1.026605
      19A     -0.951370    20A     -0.843492    21A     -0.819411
      22A     -0.776426    23A     -0.712255    24A     -0.687293
      25A     -0.643084    26A     -0.630135    27A     -0.611274
      28A     -0.583224    29A     -0.562276    30A     -0.548054
      31A     -0.527860    32A     -0.509493    33A     -0.450479
      34A     -0.430695    35A     -0.417584    36A     -0.392922
      37A     -0.319450

  @DF-RHF Final Energy:  -774.22704343721205

   => Energetics <=

    Nuclear Repulsion Energy =            502.9396657856481170
    One-Electron Energy =               -2060.6252568009754214
    Two-Electron Energy =                 783.4585475781151445
    Total Energy =                       -774.2270434372120462
  Basis Set: (AUG-CC-PVTZ AUX)
    Blend: AUG-CC-PVTZ-RI
    Molecular point group: c1

    Geometry (in Angstrom), charge = 0, multiplicity = 1:

       Center              X                  Y                   Z               Mass
    ------------   -----------------  -----------------  -----------------  -----------------
         S            1.512109979177    -1.066431923562     0.000000943522    31.972071174400
         O           -1.463185020823    -1.544857923562    -0.000001056478    15.994914619570
         N           -2.052222020823     0.688096076438    -0.000000056478    14.003074004430
         N            0.641949979177     1.368643076438    -0.000001056478    14.003074004430
         C            0.246484979177     0.104106076438    -0.000000056478    12.000000000000
         C           -1.172873020823    -0.341989923562    -0.000001056478    12.000000000000
         C           -3.486064020823     0.479540076438     0.000000943522    12.000000000000
         C            2.652351979177     0.210150076438    -0.000000056478    12.000000000000
         C            1.913798879177     1.605681176438    -0.000000056478    12.000000000000
         H           -1.657720020823     1.622569076438     0.000000943522     1.007825032230
         H           -3.943884020823     0.918011076438    -0.891194056478     1.007825032230
         H           -3.943882020823     0.918003076438     0.891200943522     1.007825032230
         H           -3.656834020823    -0.596824923562    -0.000003056478     1.007825032230
         H            3.717518979177     0.017989076438     0.000000943522     1.007825032230
         H            2.501435979177     2.394370076438    -0.000000056478     1.007825032230

  Basis Set: AUG-CC-PVTZ
    Blend: AUG-CC-PVTZ
  Basis Set: (AUG-CC-PVTZ AUX)
    Blend: AUG-CC-PVTZ-JKFIT
	 Reference Energy          =    -774.2270434372120462 [Eh]
	 Singles Energy            =      -0.0000000000000000 [Eh]
	 Same-Spin Energy          =      -0.4639195154801105 [Eh]
	 Opposite-Spin Energy      =      -1.3756226910721230 [Eh]
	 Correlation Energy        =      -1.8395422065522333 [Eh]
	 Total Energy              =    -776.0665856437642560 [Eh]

	 ================> DF-SCS-MP2 Energies <==================
	-----------------------------------------------------------
	 SCS Same-Spin Scale       =       0.3333333333333333 [-]
	 SCS Opposite-Spin Scale   =       1.2000000000000000 [-]
	 SCS Same-Spin Energy      =      -0.1546398384933702 [Eh]
	 SCS Opposite-Spin Energy  =      -1.6507472292865475 [Eh]
	 SCS Correlation Energy    =      -1.8053870677799178 [Eh]
	 SCS Total Energy          =    -776.0324305049919076 [Eh]
	-----------------------------------------------------------

  Dipole Moment: [D]
     X:     1.1449      Y:     2.6788      Z:     0.0000     Total:     2.9132

*** Psi4 exiting successfully. Buy a developer a beer!
