                               Psi4 1.3.2 release

  ==> Input File <==

--------------------------------------------------------------------------
#psi4
#
memory 32 gb

molecule  {
0 1
  S        1.5510760    -1.0871590     0.0000010
  O       -1.4242190    -1.5655850    -0.0000010
  N       -2.0132560     0.6673690     0.0000000
  N        0.6809160     1.3479160    -0.0000010
  C        0.2854510     0.0833790     0.0000000
  C       -1.1339070    -0.3627170    -0.0000010
  C       -3.4470980     0.4588130     0.0000010
  C        2.6047304     0.1473988     0.0000000
  C        2.0463170     1.4081830     0.0000000
  H       -1.6187540     1.6018420     0.0000010
  H       -3.9049180     0.8972840    -0.8911940
  H       -3.9049160     0.8972760     0.8912010
  H       -3.6178680    -0.6175520    -0.0000030
  H        3.7564850    -0.0027380     0.0000010
  H        2.5404020     2.3736430     0.0000000
units angstrom
no_reorient  #important for SAPT in psi4, default
symmetry c1  #important for SAPT in psi4, default
}

set PROPERTIES_ORIGIN ["COM"]
properties('MP2/aug-cc-pvtz', properties = ['dipole'])
--------------------------------------------------------------------------

    Molecular point group: c1
  Charge       = 0
  Multiplicity = 1
  Basis Set: AUG-CC-PVTZ
    Blend: AUG-CC-PVTZ
  Basis Set: (AUG-CC-PVTZ AUX)
    Blend: AUG-CC-PVTZ-JKFIT

    Orbital Energies [Eh]
    ---------------------

    Doubly Occupied:

       1A    -92.014625     2A    -20.526604     3A    -15.596761
       4A    -15.591368     5A    -11.366665     6A    -11.318176
       7A    -11.283111     8A    -11.281425     9A    -11.262239
      10A     -9.016583    11A     -6.697485    12A     -6.696658
      13A     -6.695996    14A     -1.381987    15A     -1.300156
      16A     -1.236193    17A     -1.098993    18A     -1.032912
      19A     -0.956431    20A     -0.846372    21A     -0.796677
      22A     -0.776711    23A     -0.719591    24A     -0.655635
      25A     -0.644536    26A     -0.632322    27A     -0.594369
      28A     -0.587750    29A     -0.556538    30A     -0.549781
      31A     -0.533047    32A     -0.532154    33A     -0.465411
      34A     -0.435727    35A     -0.414203    36A     -0.393204
      37A     -0.343113

  @DF-RHF Final Energy:  -774.26473613975577

   => Energetics <=

    Nuclear Repulsion Energy =            507.1464485152736756
    One-Electron Energy =               -2069.1593528811604301
    Two-Electron Energy =                 787.7481682261309288
    Total Energy =                       -774.2647361397557688
  Basis Set: (AUG-CC-PVTZ AUX)
    Blend: AUG-CC-PVTZ-RI
    Molecular point group: c1

    Geometry (in Angstrom), charge = 0, multiplicity = 1:

       Center              X                  Y                   Z               Mass
    ------------   -----------------  -----------------  -----------------  -----------------
         S            1.511521513112    -1.047944794657     0.000000943522    31.972071174400
         O           -1.463773486888    -1.526370794657    -0.000001056478    15.994914619570
         N           -2.052810486888     0.706583205343    -0.000000056478    14.003074004430
         N            0.641361513112     1.387130205343    -0.000001056478    14.003074004430
         C            0.245896513112     0.122593205343    -0.000000056478    12.000000000000
         C           -1.173461486888    -0.323502794657    -0.000001056478    12.000000000000
         C           -3.486652486888     0.498027205343     0.000000943522    12.000000000000
         C            2.565175913112     0.186613005343    -0.000000056478    12.000000000000
         C            2.006762513112     1.447397205343    -0.000000056478    12.000000000000
         H           -1.658308486888     1.641056205343     0.000000943522     1.007825032230
         H           -3.944472486888     0.936498205343    -0.891194056478     1.007825032230
         H           -3.944470486888     0.936490205343     0.891200943522     1.007825032230
         H           -3.657422486888    -0.578337794657    -0.000003056478     1.007825032230
         H            3.716930513112     0.036476205343     0.000000943522     1.007825032230
         H            2.500847513112     2.412857205343    -0.000000056478     1.007825032230

  Basis Set: AUG-CC-PVTZ
    Blend: AUG-CC-PVTZ
  Basis Set: (AUG-CC-PVTZ AUX)
    Blend: AUG-CC-PVTZ-JKFIT
	 Reference Energy          =    -774.2647361397557688 [Eh]
	 Singles Energy            =      -0.0000000000000000 [Eh]
	 Same-Spin Energy          =      -0.4602605682562808 [Eh]
	 Opposite-Spin Energy      =      -1.3696994657840222 [Eh]
	 Correlation Energy        =      -1.8299600340403031 [Eh]
	 Total Energy              =    -776.0946961737960237 [Eh]

	 ================> DF-SCS-MP2 Energies <==================
	-----------------------------------------------------------
	 SCS Same-Spin Scale       =       0.3333333333333333 [-]
	 SCS Opposite-Spin Scale   =       1.2000000000000000 [-]
	 SCS Same-Spin Energy      =      -0.1534201894187603 [Eh]
	 SCS Opposite-Spin Energy  =      -1.6436393589408267 [Eh]
	 SCS Correlation Energy    =      -1.7970595483595870 [Eh]
	 SCS Total Energy          =    -776.0617956881153532 [Eh]
	-----------------------------------------------------------

  Dipole Moment: [D]
     X:     1.1821      Y:     2.3796      Z:     0.0000     Total:     2.6570

*** Psi4 exiting successfully. Buy a developer a beer!
