                               Psi4 1.4a3.dev225

  ==> Input File <==

--------------------------------------------------------------------------
#psi4
#
memory 32 gb

molecule  {
0 1
  S        1.5510760    -1.0871590     0.0000010
  O       -1.4242190    -1.5655850    -0.0000010
  N       -2.0132560     0.6673690     0.0000000
  N        0.6809160     1.3479160    -0.0000010
  C        0.2794814     0.0642907     0.0000000
  C       -1.1339070    -0.3627170    -0.0000010
  C       -3.4470980     0.4588130     0.0000010
  C        2.6913180     0.1894230     0.0000000
  C        2.0463170     1.4081830     0.0000000
  H       -1.6187540     1.6018420     0.0000010
  H       -3.9049180     0.8972840    -0.8911940
  H       -3.9049160     0.8972760     0.8912010
  H       -3.6178680    -0.6175520    -0.0000030
  H        3.7564850    -0.0027380     0.0000010
  H        2.5404020     2.3736430     0.0000000
units angstrom
no_reorient  #important for SAPT in psi4, default
symmetry c1  #important for SAPT in psi4, default
}

set PROPERTIES_ORIGIN ["COM"]
properties('MP2/aug-cc-pvtz', properties = ['dipole'])
--------------------------------------------------------------------------

    Molecular point group: c1
  Charge       = 0
  Multiplicity = 1
  Basis Set: AUG-CC-PVTZ
    Blend: AUG-CC-PVTZ
  Basis Set: (AUG-CC-PVTZ AUX)
    Blend: AUG-CC-PVTZ-JKFIT

    Orbital Energies [Eh]
    ---------------------

    Doubly Occupied:

       1A    -92.014859     2A    -20.528239     3A    -15.598089
       4A    -15.593456     5A    -11.368322     6A    -11.324774
       7A    -11.285591     8A    -11.282891     9A    -11.263566
      10A     -9.014722    11A     -6.695422    12A     -6.694918
      13A     -6.694301    14A     -1.384129    15A     -1.290745
      16A     -1.237455    17A     -1.080607    18A     -1.037521
      19A     -0.959678    20A     -0.850366    21A     -0.802801
      22A     -0.777737    23A     -0.718387    24A     -0.655514
      25A     -0.650439    26A     -0.633405    27A     -0.598281
      28A     -0.583244    29A     -0.569559    30A     -0.551802
      31A     -0.531508    32A     -0.518487    33A     -0.464242
      34A     -0.438280    35A     -0.407371    36A     -0.391873
      37A     -0.348462

  @DF-RHF Final Energy:  -774.27465599899074

   => Energetics <=

    Nuclear Repulsion Energy =            504.8175557344556523
    One-Electron Energy =               -2064.5023369313053081
    Two-Electron Energy =                 785.4101251978588607
    Total Energy =                       -774.2746559989907382
  Basis Set: (AUG-CC-PVTZ AUX)
    Blend: AUG-CC-PVTZ-RI
    Molecular point group: c1

    Geometry (in Angstrom), charge = 0, multiplicity = 1:

       Center              X                  Y                   Z               Mass
    ------------   -----------------  -----------------  -----------------  -----------------
         S            1.504709687821    -1.049882765627     0.000000943522    31.972071174400
         O           -1.470585312179    -1.528308765627    -0.000001056478    15.994914619570
         N           -2.059622312179     0.704645234373    -0.000000056478    14.003074004430
         N            0.634549687821     1.385192234373    -0.000001056478    14.003074004430
         C            0.233115087821     0.101566934373    -0.000000056478    12.000000000000
         C           -1.180273312179    -0.325440765627    -0.000001056478    12.000000000000
         C           -3.493464312179     0.496089234373     0.000000943522    12.000000000000
         C            2.644951687821     0.226699234373    -0.000000056478    12.000000000000
         C            1.999950687821     1.445459234373    -0.000000056478    12.000000000000
         H           -1.665120312179     1.639118234373     0.000000943522     1.007825032230
         H           -3.951284312179     0.934560234373    -0.891194056478     1.007825032230
         H           -3.951282312179     0.934552234373     0.891200943522     1.007825032230
         H           -3.664234312179    -0.580275765627    -0.000003056478     1.007825032230
         H            3.710118687821     0.034538234373     0.000000943522     1.007825032230
         H            2.494035687821     2.410919234373    -0.000000056478     1.007825032230

  Basis Set: AUG-CC-PVTZ
    Blend: AUG-CC-PVTZ
  Basis Set: (AUG-CC-PVTZ AUX)
    Blend: AUG-CC-PVTZ-JKFIT
	 Reference Energy          =    -774.2746559989907382 [Eh]
	 Singles Energy            =      -0.0000000000000000 [Eh]
	 Same-Spin Energy          =      -0.4594096201767461 [Eh]
	 Opposite-Spin Energy      =      -1.3698724474445083 [Eh]
	 Correlation Energy        =      -1.8292820676212544 [Eh]
	 Total Energy              =    -776.1039380666120451 [Eh]

	 ================> DF-SCS-MP2 Energies <==================
	-----------------------------------------------------------
	 SCS Same-Spin Scale       =       0.3333333333333333 [-]
	 SCS Opposite-Spin Scale   =       1.2000000000000000 [-]
	 SCS Same-Spin Energy      =      -0.1531365400589154 [Eh]
	 SCS Opposite-Spin Energy  =      -1.6438469369334099 [Eh]
	 SCS Correlation Energy    =      -1.7969834769923252 [Eh]
	 SCS Total Energy          =    -776.0716394759830337 [Eh]
	-----------------------------------------------------------

  Dipole Moment: [D]
     X:     1.1888      Y:     2.4268      Z:     0.0000     Total:     2.7023

*** Psi4 exiting successfully. Buy a developer a beer!
