                               Psi4 1.4a3.dev225

  ==> Input File <==

--------------------------------------------------------------------------
#psi4
#
memory 32 gb

molecule  {
0 1
  S        1.5510760    -1.0871590     0.0000010
  O       -1.4242190    -1.5655850    -0.0000010
  N       -2.0132560     0.6673690     0.0000000
  N        0.6809160     1.3479160    -0.0000010
  C        0.2854510     0.0833790     0.0000000
  C       -1.1816066    -0.3777087    -0.0000010
  C       -3.4470980     0.4588130     0.0000010
  C        2.6913180     0.1894230     0.0000000
  C        2.0463170     1.4081830     0.0000000
  H       -1.6187540     1.6018420     0.0000010
  H       -3.9049180     0.8972840    -0.8911940
  H       -3.9049160     0.8972760     0.8912010
  H       -3.6178680    -0.6175520    -0.0000030
  H        3.7564850    -0.0027380     0.0000010
  H        2.5404020     2.3736430     0.0000000
units angstrom
no_reorient  #important for SAPT in psi4, default
symmetry c1  #important for SAPT in psi4, default
}

set PROPERTIES_ORIGIN ["COM"]
properties('MP2/aug-cc-pvtz', properties = ['dipole'])
--------------------------------------------------------------------------

    Molecular point group: c1
  Charge       = 0
  Multiplicity = 1
  Basis Set: AUG-CC-PVTZ
    Blend: AUG-CC-PVTZ
  Basis Set: (AUG-CC-PVTZ AUX)
    Blend: AUG-CC-PVTZ-JKFIT

    Orbital Energies [Eh]
    ---------------------

    Doubly Occupied:

       1A    -92.008876     2A    -20.532637     3A    -15.596309
       4A    -15.592085     5A    -11.369676     6A    -11.322851
       7A    -11.281937     8A    -11.278291     9A    -11.265638
      10A     -9.008881    11A     -6.689607    12A     -6.689082
      13A     -6.688448    14A     -1.400434    15A     -1.292773
      16A     -1.248529    17A     -1.077388    18A     -1.027418
      19A     -0.961641    20A     -0.837860    21A     -0.801671
      22A     -0.784943    23A     -0.715367    24A     -0.660000
      25A     -0.651347    26A     -0.638547    27A     -0.601745
      28A     -0.582050    29A     -0.564199    30A     -0.556535
      31A     -0.539325    32A     -0.514222    33A     -0.466143
      34A     -0.432838    35A     -0.410393    36A     -0.394172
      37A     -0.345248

  @DF-RHF Final Energy:  -774.27696425246506

   => Energetics <=

    Nuclear Repulsion Energy =            504.6621651662979957
    One-Electron Energy =               -2064.2200534710559623
    Two-Electron Energy =                 785.2809240522927894
    Total Energy =                       -774.2769642524650635
  Basis Set: (AUG-CC-PVTZ AUX)
    Blend: AUG-CC-PVTZ-RI
    Molecular point group: c1

    Geometry (in Angstrom), charge = 0, multiplicity = 1:

       Center              X                  Y                   Z               Mass
    ------------   -----------------  -----------------  -----------------  -----------------
         S            1.508235667991    -1.050228908219     0.000000943522    31.972071174400
         O           -1.467059332009    -1.528654908219    -0.000001056478    15.994914619570
         N           -2.056096332009     0.704299091781    -0.000000056478    14.003074004430
         N            0.638075667991     1.384846091781    -0.000001056478    14.003074004430
         C            0.242610667991     0.120309091781    -0.000000056478    12.000000000000
         C           -1.224446932009    -0.340778608219    -0.000001056478    12.000000000000
         C           -3.489938332009     0.495743091781     0.000000943522    12.000000000000
         C            2.648477667991     0.226353091781    -0.000000056478    12.000000000000
         C            2.003476667991     1.445113091781    -0.000000056478    12.000000000000
         H           -1.661594332009     1.638772091781     0.000000943522     1.007825032230
         H           -3.947758332009     0.934214091781    -0.891194056478     1.007825032230
         H           -3.947756332009     0.934206091781     0.891200943522     1.007825032230
         H           -3.660708332009    -0.580621908219    -0.000003056478     1.007825032230
         H            3.713644667991     0.034192091781     0.000000943522     1.007825032230
         H            2.497561667991     2.410573091781    -0.000000056478     1.007825032230

  Basis Set: AUG-CC-PVTZ
    Blend: AUG-CC-PVTZ
  Basis Set: (AUG-CC-PVTZ AUX)
    Blend: AUG-CC-PVTZ-JKFIT
	 Reference Energy          =    -774.2769642524650635 [Eh]
	 Singles Energy            =      -0.0000000000000000 [Eh]
	 Same-Spin Energy          =      -0.4578415359733314 [Eh]
	 Opposite-Spin Energy      =      -1.3671922551160494 [Eh]
	 Correlation Energy        =      -1.8250337910893808 [Eh]
	 Total Energy              =    -776.1019980435544312 [Eh]

	 ================> DF-SCS-MP2 Energies <==================
	-----------------------------------------------------------
	 SCS Same-Spin Scale       =       0.3333333333333333 [-]
	 SCS Opposite-Spin Scale   =       1.2000000000000000 [-]
	 SCS Same-Spin Energy      =      -0.1526138453244438 [Eh]
	 SCS Opposite-Spin Energy  =      -1.6406307061392591 [Eh]
	 SCS Correlation Energy    =      -1.7932445514637030 [Eh]
	 SCS Total Energy          =    -776.0702088039287219 [Eh]
	-----------------------------------------------------------

  Dipole Moment: [D]
     X:     0.7673      Y:     2.3836      Z:     0.0000     Total:     2.5041

*** Psi4 exiting successfully. Buy a developer a beer!
