                               Psi4 1.3.2 release

  ==> Input File <==

--------------------------------------------------------------------------
#psi4
#
memory 32 gb

molecule  {
0 1
  S        1.5510760    -1.0871590     0.0000010
  O       -1.4242190    -1.5655850    -0.0000010
  N       -2.0132560     0.6673690     0.0000000
  N        0.6809160     1.3479160    -0.0000010
  C        0.2854510     0.0833790     0.0000000
  C       -1.1339070    -0.3627170    -0.0000010
  C       -3.4470980     0.4588130     0.0000010
  C        2.6913180     0.1894230     0.0000000
  C        1.9464143     1.4037734    -0.0000001
  H       -1.6187540     1.6018420     0.0000010
  H       -3.9049180     0.8972840    -0.8911940
  H       -3.9049160     0.8972760     0.8912010
  H       -3.6178680    -0.6175520    -0.0000030
  H        3.7564850    -0.0027380     0.0000010
  H        2.5404020     2.3736430     0.0000000
units angstrom
no_reorient  #important for SAPT in psi4, default
symmetry c1  #important for SAPT in psi4, default
}

set PROPERTIES_ORIGIN ["COM"]
properties('MP2/aug-cc-pvtz', properties = ['dipole'])
--------------------------------------------------------------------------

    Molecular point group: c1
  Charge       = 0
  Multiplicity = 1
  Basis Set: AUG-CC-PVTZ
    Blend: AUG-CC-PVTZ
  Basis Set: (AUG-CC-PVTZ AUX)
    Blend: AUG-CC-PVTZ-JKFIT

    Orbital Energies [Eh]
    ---------------------

    Doubly Occupied:

       1A    -92.018987     2A    -20.526108     3A    -15.592759
       4A    -15.592163     5A    -11.367225     6A    -11.321879
       7A    -11.287259     8A    -11.285484     9A    -11.263058
      10A     -9.018175    11A     -6.698745    12A     -6.698340
      13A     -6.697861    14A     -1.382397    15A     -1.323530
      16A     -1.237653    17A     -1.088908    18A     -1.033918
      19A     -0.955011    20A     -0.844760    21A     -0.809882
      22A     -0.775301    23A     -0.726082    24A     -0.653750
      25A     -0.647139    26A     -0.633946    27A     -0.605946
      28A     -0.592879    29A     -0.568473    30A     -0.551056
      31A     -0.534233    32A     -0.504706    33A     -0.463882
      34A     -0.437434    35A     -0.416155    36A     -0.395132
      37A     -0.335846

  @DF-RHF Final Energy:  -774.26173229658389

   => Energetics <=

    Nuclear Repulsion Energy =            506.4652211749922799
    One-Electron Energy =               -2067.6817835844190085
    Two-Electron Energy =                 786.9548301128429557
    Total Energy =                       -774.2617322965838866
  Basis Set: (AUG-CC-PVTZ AUX)
    Blend: AUG-CC-PVTZ-RI
    Molecular point group: c1

    Geometry (in Angstrom), charge = 0, multiplicity = 1:

       Center              X                  Y                   Z               Mass
    ------------   -----------------  -----------------  -----------------  -----------------
         S            1.512646573705    -1.051123043728     0.000000951971    31.972071174400
         O           -1.462648426295    -1.529549043728    -0.000001048029    15.994914619570
         N           -2.051685426295     0.703404956272    -0.000000048029    14.003074004430
         N            0.642486573705     1.383951956272    -0.000001048029    14.003074004430
         C            0.247021573705     0.119414956272    -0.000000048029    12.000000000000
         C           -1.172336426295    -0.326681043728    -0.000001048029    12.000000000000
         C           -3.485527426295     0.494848956272     0.000000951971    12.000000000000
         C            2.652888573705     0.225458956272    -0.000000048029    12.000000000000
         C            1.907984873705     1.439809356272    -0.000000148029    12.000000000000
         H           -1.657183426295     1.637877956272     0.000000951971     1.007825032230
         H           -3.943347426295     0.933319956272    -0.891194048029     1.007825032230
         H           -3.943345426295     0.933311956272     0.891200951971     1.007825032230
         H           -3.656297426295    -0.581516043728    -0.000003048029     1.007825032230
         H            3.718055573705     0.033297956272     0.000000951971     1.007825032230
         H            2.501972573705     2.409678956272    -0.000000048029     1.007825032230

  Basis Set: AUG-CC-PVTZ
    Blend: AUG-CC-PVTZ
  Basis Set: (AUG-CC-PVTZ AUX)
    Blend: AUG-CC-PVTZ-JKFIT
	 Reference Energy          =    -774.2617322965838866 [Eh]
	 Singles Energy            =      -0.0000000000000000 [Eh]
	 Same-Spin Energy          =      -0.4612388605737536 [Eh]
	 Opposite-Spin Energy      =      -1.3705125028851084 [Eh]
	 Correlation Energy        =      -1.8317513634588620 [Eh]
	 Total Energy              =    -776.0934836600426934 [Eh]

	 ================> DF-SCS-MP2 Energies <==================
	-----------------------------------------------------------
	 SCS Same-Spin Scale       =       0.3333333333333333 [-]
	 SCS Opposite-Spin Scale   =       1.2000000000000000 [-]
	 SCS Same-Spin Energy      =      -0.1537462868579179 [Eh]
	 SCS Opposite-Spin Energy  =      -1.6446150034621301 [Eh]
	 SCS Correlation Energy    =      -1.7983612903200479 [Eh]
	 SCS Total Energy          =    -776.0600935869039176 [Eh]
	-----------------------------------------------------------

  Dipole Moment: [D]
     X:     1.1606      Y:     2.4384      Z:     0.0000     Total:     2.7005

*** Psi4 exiting successfully. Buy a developer a beer!
