                               Psi4 1.3.2 release

  ==> Input File <==

--------------------------------------------------------------------------
#psi4
#
memory 32 gb

molecule  {
0 1
  S        1.5510760    -1.0871590     0.0000010
  O       -1.3820627    -1.5749840    -0.0000010
  N       -2.0132560     0.6673690     0.0000000
  N        0.6809160     1.3479160    -0.0000010
  C        0.2854510     0.0833790     0.0000000
  C       -1.1339070    -0.3627170    -0.0000010
  C       -3.4470980     0.4588130     0.0000010
  C        2.6913180     0.1894230     0.0000000
  C        2.0463170     1.4081830     0.0000000
  H       -1.6187540     1.6018420     0.0000010
  H       -3.9049180     0.8972840    -0.8911940
  H       -3.9049160     0.8972760     0.8912010
  H       -3.6178680    -0.6175520    -0.0000030
  H        3.7564850    -0.0027380     0.0000010
  H        2.5404020     2.3736430     0.0000000
units angstrom
no_reorient  #important for SAPT in psi4, default
symmetry c1  #important for SAPT in psi4, default
}

set PROPERTIES_ORIGIN ["COM"]
properties('MP2/aug-cc-pvtz', properties = ['dipole'])
--------------------------------------------------------------------------

    Molecular point group: c1
  Charge       = 0
  Multiplicity = 1
  Basis Set: AUG-CC-PVTZ
    Blend: AUG-CC-PVTZ
  Basis Set: (AUG-CC-PVTZ AUX)
    Blend: AUG-CC-PVTZ-JKFIT

    Orbital Energies [Eh]
    ---------------------

    Doubly Occupied:

       1A    -92.011400     2A    -20.530256     3A    -15.596059
       4A    -15.595524     5A    -11.369875     6A    -11.322635
       7A    -11.283849     8A    -11.281290     9A    -11.265526
      10A     -9.011286    11A     -6.691989    12A     -6.691460
      13A     -6.690832    14A     -1.384628    15A     -1.294792
      16A     -1.240654    17A     -1.079848    18A     -1.034581
      19A     -0.960739    20A     -0.847650    21A     -0.803745
      22A     -0.779012    23A     -0.717612    24A     -0.655495
      25A     -0.651243    26A     -0.634640    27A     -0.599281
      28A     -0.584241    29A     -0.567025    30A     -0.554287
      31A     -0.532424    32A     -0.516636    33A     -0.465415
      34A     -0.436512    35A     -0.408770    36A     -0.393104
      37A     -0.347110

  @DF-RHF Final Energy:  -774.27627914935158

   => Energetics <=

    Nuclear Repulsion Energy =            505.0803481956106111
    One-Electron Energy =               -2065.0504117303489693
    Two-Electron Energy =                 785.6937843853867207
    Total Energy =                       -774.2762791493515806
  Basis Set: (AUG-CC-PVTZ AUX)
    Blend: AUG-CC-PVTZ-RI
    Molecular point group: c1

    Geometry (in Angstrom), charge = 0, multiplicity = 1:

       Center              X                  Y                   Z               Mass
    ------------   -----------------  -----------------  -----------------  -----------------
         S            1.499457461528    -1.050437077350     0.000000943522    31.972071174400
         O           -1.433681238472    -1.538262077350    -0.000001056478    15.994914619570
         N           -2.064874538472     0.704090922650    -0.000000056478    14.003074004430
         N            0.629297461528     1.384637922650    -0.000001056478    14.003074004430
         C            0.233832461528     0.120100922650    -0.000000056478    12.000000000000
         C           -1.185525538472    -0.325995077350    -0.000001056478    12.000000000000
         C           -3.498716538472     0.495534922650     0.000000943522    12.000000000000
         C            2.639699461528     0.226144922650    -0.000000056478    12.000000000000
         C            1.994698461528     1.444904922650    -0.000000056478    12.000000000000
         H           -1.670372538472     1.638563922650     0.000000943522     1.007825032230
         H           -3.956536538472     0.934005922650    -0.891194056478     1.007825032230
         H           -3.956534538472     0.933997922650     0.891200943522     1.007825032230
         H           -3.669486538472    -0.580830077350    -0.000003056478     1.007825032230
         H            3.704866461528     0.033983922650     0.000000943522     1.007825032230
         H            2.488783461528     2.410364922650    -0.000000056478     1.007825032230

  Basis Set: AUG-CC-PVTZ
    Blend: AUG-CC-PVTZ
  Basis Set: (AUG-CC-PVTZ AUX)
    Blend: AUG-CC-PVTZ-JKFIT
	 Reference Energy          =    -774.2762791493515806 [Eh]
	 Singles Energy            =      -0.0000000000000000 [Eh]
	 Same-Spin Energy          =      -0.4587757040469699 [Eh]
	 Opposite-Spin Energy      =      -1.3690430060522891 [Eh]
	 Correlation Energy        =      -1.8278187100992591 [Eh]
	 Total Energy              =    -776.1040978594508033 [Eh]

	 ================> DF-SCS-MP2 Energies <==================
	-----------------------------------------------------------
	 SCS Same-Spin Scale       =       0.3333333333333333 [-]
	 SCS Opposite-Spin Scale   =       1.2000000000000000 [-]
	 SCS Same-Spin Energy      =      -0.1529252346823233 [Eh]
	 SCS Opposite-Spin Energy  =      -1.6428516072627468 [Eh]
	 SCS Correlation Energy    =      -1.7957768419450701 [Eh]
	 SCS Total Energy          =    -776.0720559912966792 [Eh]
	-----------------------------------------------------------

  Dipole Moment: [D]
     X:     0.9561      Y:     2.4584      Z:     0.0000     Total:     2.6378

*** Psi4 exiting successfully. Buy a developer a beer!
