                               Psi4 1.3.2 release

  ==> Input File <==

--------------------------------------------------------------------------
#psi4
#
memory 32 gb

molecule  {
0 1
  S        1.5510760    -1.0871590     0.0000010
  O       -1.4242190    -1.5655850    -0.0000010
  N       -2.0132560     0.6673690     0.0000000
  N        0.6809160     1.3479160    -0.0000010
  C        0.3451469     0.2742622    -0.0000002
  C       -1.1339070    -0.3627170    -0.0000010
  C       -3.4470980     0.4588130     0.0000010
  C        2.6913180     0.1894230     0.0000000
  C        2.0463170     1.4081830     0.0000000
  H       -1.6187540     1.6018420     0.0000010
  H       -3.9049180     0.8972840    -0.8911940
  H       -3.9049160     0.8972760     0.8912010
  H       -3.6178680    -0.6175520    -0.0000030
  H        3.7564850    -0.0027380     0.0000010
  H        2.5404020     2.3736430     0.0000000
units angstrom
no_reorient  #important for SAPT in psi4, default
symmetry c1  #important for SAPT in psi4, default
}

set PROPERTIES_ORIGIN ["COM"]
properties('MP2/aug-cc-pvtz', properties = ['dipole'])
--------------------------------------------------------------------------

    Molecular point group: c1
  Charge       = 0
  Multiplicity = 1
  Basis Set: AUG-CC-PVTZ
    Blend: AUG-CC-PVTZ
  Basis Set: (AUG-CC-PVTZ AUX)
    Blend: AUG-CC-PVTZ-JKFIT

    Orbital Energies [Eh]
    ---------------------

    Doubly Occupied:

       1A    -91.990810     2A    -20.537164     3A    -15.596834
       4A    -15.582888     5A    -11.375443     6A    -11.317178
       7A    -11.283775     8A    -11.282405     9A    -11.265035
      10A     -8.991198    11A     -6.671950    12A     -6.671136
      13A     -6.670449    14A     -1.388942    15A     -1.368025
      16A     -1.241425    17A     -1.092905    18A     -1.015593
      19A     -0.960740    20A     -0.829410    21A     -0.823117
      22A     -0.773109    23A     -0.724160    24A     -0.658118
      25A     -0.650344    26A     -0.639199    27A     -0.609502
      28A     -0.608924    29A     -0.560239    30A     -0.553672
      31A     -0.538604    32A     -0.510459    33A     -0.482351
      34A     -0.427382    35A     -0.405765    36A     -0.398921
      37A     -0.342583

  @DF-RHF Final Energy:  -774.22561681329591

   => Energetics <=

    Nuclear Repulsion Energy =            505.3772292186878303
    One-Electron Energy =               -2065.5261827009617264
    Two-Electron Energy =                 785.9233366689780951
    Total Energy =                       -774.2256168132959147
  Basis Set: (AUG-CC-PVTZ AUX)
    Blend: AUG-CC-PVTZ-RI
    Molecular point group: c1

    Geometry (in Angstrom), charge = 0, multiplicity = 1:

       Center              X                  Y                   Z               Mass
    ------------   -----------------  -----------------  -----------------  -----------------
         S            1.499161275386    -1.067624326744     0.000000960421    31.972071174400
         O           -1.476133724614    -1.546050326744    -0.000001039579    15.994914619570
         N           -2.065170724614     0.686903673256    -0.000000039579    14.003074004430
         N            0.629001275386     1.367450673256    -0.000001039579    14.003074004430
         C            0.293232175386     0.293796873256    -0.000000239579    12.000000000000
         C           -1.185821724614    -0.343182326744    -0.000001039579    12.000000000000
         C           -3.499012724614     0.478347673256     0.000000960421    12.000000000000
         C            2.639403275386     0.208957673256    -0.000000039579    12.000000000000
         C            1.994402275386     1.427717673256    -0.000000039579    12.000000000000
         H           -1.670668724614     1.621376673256     0.000000960421     1.007825032230
         H           -3.956832724614     0.916818673256    -0.891194039579     1.007825032230
         H           -3.956830724614     0.916810673256     0.891200960421     1.007825032230
         H           -3.669782724614    -0.598017326744    -0.000003039579     1.007825032230
         H            3.704570275386     0.016796673256     0.000000960421     1.007825032230
         H            2.488487275386     2.393177673256    -0.000000039579     1.007825032230

  Basis Set: AUG-CC-PVTZ
    Blend: AUG-CC-PVTZ
  Basis Set: (AUG-CC-PVTZ AUX)
    Blend: AUG-CC-PVTZ-JKFIT
	 Reference Energy          =    -774.2256168132959147 [Eh]
	 Singles Energy            =      -0.0000000000000000 [Eh]
	 Same-Spin Energy          =      -0.4546653475252475 [Eh]
	 Opposite-Spin Energy      =      -1.3642143170558598 [Eh]
	 Correlation Energy        =      -1.8188796645811074 [Eh]
	 Total Energy              =    -776.0444964778770327 [Eh]

	 ================> DF-SCS-MP2 Energies <==================
	-----------------------------------------------------------
	 SCS Same-Spin Scale       =       0.3333333333333333 [-]
	 SCS Opposite-Spin Scale   =       1.2000000000000000 [-]
	 SCS Same-Spin Energy      =      -0.1515551158417491 [Eh]
	 SCS Opposite-Spin Energy  =      -1.6370571804670317 [Eh]
	 SCS Correlation Energy    =      -1.7886122963087809 [Eh]
	 SCS Total Energy          =    -776.0142291096046847 [Eh]
	-----------------------------------------------------------

  Dipole Moment: [D]
     X:     0.3736      Y:     2.9326      Z:     0.0000     Total:     2.9563

*** Psi4 exiting successfully. Buy a developer a beer!
