                               Psi4 1.3.2 release

  ==> Input File <==

--------------------------------------------------------------------------
#psi4
#
memory 32 gb

molecule  {
0 1
  S        1.5510760    -1.0871590     0.0000010
  O       -1.4242190    -1.5655850    -0.0000010
  N       -2.0132560     0.6673690     0.0000000
  N        0.6809160     1.3479160    -0.0000010
  C        0.2854510     0.0833790     0.0000000
  C       -1.1339070    -0.3627170    -0.0000010
  C       -3.4470980     0.4588130     0.0000010
  C        2.6913180     0.1894230     0.0000000
  C        2.0463170     1.4081830     0.0000000
  H       -1.6187540     1.6018420     0.0000010
  H       -3.9049180     0.8972840    -0.8911940
  H       -3.9049160     0.8972760     0.8912010
  H       -3.6178680    -0.6175520    -0.0000030
  H        3.7564850    -0.0027380     0.0000010
  H        2.4948450     2.2846230     0.0000000
units angstrom
no_reorient  #important for SAPT in psi4, default
symmetry c1  #important for SAPT in psi4, default
}

set PROPERTIES_ORIGIN ["COM"]
properties('MP2/aug-cc-pvtz', properties = ['dipole'])
--------------------------------------------------------------------------

    Molecular point group: c1
  Charge       = 0
  Multiplicity = 1
  Basis Set: AUG-CC-PVTZ
    Blend: AUG-CC-PVTZ
  Basis Set: (AUG-CC-PVTZ AUX)
    Blend: AUG-CC-PVTZ-JKFIT

    Orbital Energies [Eh]
    ---------------------

    Doubly Occupied:

       1A    -92.012469     2A    -20.528951     3A    -15.596333
       4A    -15.593609     5A    -11.369023     6A    -11.323972
       7A    -11.282611     8A    -11.273525     9A    -11.263616
      10A     -9.012382    11A     -6.693088    12A     -6.692559
      13A     -6.691938    14A     -1.383952    15A     -1.295881
      16A     -1.237760    17A     -1.080773    18A     -1.039459
      19A     -0.961415    20A     -0.850434    21A     -0.813604
      22A     -0.778623    23A     -0.720141    24A     -0.667349
      25A     -0.650527    26A     -0.633405    27A     -0.603203
      28A     -0.584088    29A     -0.567540    30A     -0.552015
      31A     -0.531912    32A     -0.521044    33A     -0.466604
      34A     -0.436362    35A     -0.408309    36A     -0.392275
      37A     -0.348390

  @DF-RHF Final Energy:  -774.27060557540199

   => Energetics <=

    Nuclear Repulsion Energy =            505.4033696175105206
    One-Electron Energy =               -2065.6296673313995598
    Two-Electron Energy =                 785.9556921384869383
    Total Energy =                       -774.2706055754019872
  Basis Set: (AUG-CC-PVTZ AUX)
    Blend: AUG-CC-PVTZ-RI
    Molecular point group: c1

    Geometry (in Angstrom), charge = 0, multiplicity = 1:

       Center              X                  Y                   Z               Mass
    ------------   -----------------  -----------------  -----------------  -----------------
         S            1.504528574599    -1.050863915699     0.000000943522    31.972071174400
         O           -1.470766425401    -1.529289915699    -0.000001056478    15.994914619570
         N           -2.059803425401     0.703664084301    -0.000000056478    14.003074004430
         N            0.634368574599     1.384211084301    -0.000001056478    14.003074004430
         C            0.238903574599     0.119674084301    -0.000000056478    12.000000000000
         C           -1.180454425401    -0.326421915699    -0.000001056478    12.000000000000
         C           -3.493645425401     0.495108084301     0.000000943522    12.000000000000
         C            2.644770574599     0.225718084301    -0.000000056478    12.000000000000
         C            1.999769574599     1.444478084301    -0.000000056478    12.000000000000
         H           -1.665301425401     1.638137084301     0.000000943522     1.007825032230
         H           -3.951465425401     0.933579084301    -0.891194056478     1.007825032230
         H           -3.951463425401     0.933571084301     0.891200943522     1.007825032230
         H           -3.664415425401    -0.581256915699    -0.000003056478     1.007825032230
         H            3.709937574599     0.033557084301     0.000000943522     1.007825032230
         H            2.448297574599     2.320918084301    -0.000000056478     1.007825032230

  Basis Set: AUG-CC-PVTZ
    Blend: AUG-CC-PVTZ
  Basis Set: (AUG-CC-PVTZ AUX)
    Blend: AUG-CC-PVTZ-JKFIT
	 Reference Energy          =    -774.2706055754019872 [Eh]
	 Singles Energy            =      -0.0000000000000000 [Eh]
	 Same-Spin Energy          =      -0.4586477937519381 [Eh]
	 Opposite-Spin Energy      =      -1.3686539817425283 [Eh]
	 Correlation Energy        =      -1.8273017754944663 [Eh]
	 Total Energy              =    -776.0979073508964348 [Eh]

	 ================> DF-SCS-MP2 Energies <==================
	-----------------------------------------------------------
	 SCS Same-Spin Scale       =       0.3333333333333333 [-]
	 SCS Opposite-Spin Scale   =       1.2000000000000000 [-]
	 SCS Same-Spin Energy      =      -0.1528825979173127 [Eh]
	 SCS Opposite-Spin Energy  =      -1.6423847780910339 [Eh]
	 SCS Correlation Energy    =      -1.7952673760083466 [Eh]
	 SCS Total Energy          =    -776.0658729514103698 [Eh]
	-----------------------------------------------------------

  Dipole Moment: [D]
     X:     1.1392      Y:     2.4491      Z:     0.0000     Total:     2.7011

*** Psi4 exiting successfully. Buy a developer a beer!
