                               Psi4 1.4a3.dev225

  ==> Input File <==

--------------------------------------------------------------------------
#psi4
#
memory 32 gb

molecule  {
0 1
  S        1.5510760    -1.0871590     0.0000010
  O       -1.4242190    -1.5655850    -0.0000010
  N       -2.0132560     0.6673690     0.0000000
  N        0.6809160     1.3479160    -0.0000010
  C        0.2854510     0.0833790     0.0000000
  C       -1.1339070    -0.3627170    -0.0000010
  C       -3.4470980     0.4588130     0.0000010
  C        2.6913180     0.1894230     0.0000000
  C        2.0463170     1.4081830     0.0000000
  H       -1.6187540     1.6018420     0.0000010
  H       -3.9049180     0.8972840    -0.8911940
  H       -3.9049160     0.8972760     0.8912010
  H       -3.6178680    -0.6175520    -0.0000030
  H        3.7368027     0.0008128     0.0000010
  H        2.5404020     2.3736430     0.0000000
units angstrom
no_reorient  #important for SAPT in psi4, default
symmetry c1  #important for SAPT in psi4, default
}

set PROPERTIES_ORIGIN ["COM"]
properties('MP2/aug-cc-pvtz', properties = ['dipole'])
--------------------------------------------------------------------------

    Molecular point group: c1
  Charge       = 0
  Multiplicity = 1
  Basis Set: AUG-CC-PVTZ
    Blend: AUG-CC-PVTZ
  Basis Set: (AUG-CC-PVTZ AUX)
    Blend: AUG-CC-PVTZ-JKFIT

    Orbital Energies [Eh]
    ---------------------

    Doubly Occupied:

       1A    -92.012730     2A    -20.529177     3A    -15.596970
       4A    -15.593800     5A    -11.369298     6A    -11.324536
       7A    -11.285005     8A    -11.280652     9A    -11.263737
      10A     -9.012640    11A     -6.693346    12A     -6.692817
      13A     -6.692193    14A     -1.384171    15A     -1.296085
      16A     -1.237924    17A     -1.081685    18A     -1.036081
      19A     -0.960040    20A     -0.848328    21A     -0.807094
      22A     -0.777567    23A     -0.720025    24A     -0.655611
      25A     -0.651296    26A     -0.633585    27A     -0.600156
      28A     -0.584393    29A     -0.569233    30A     -0.552081
      31A     -0.532140    32A     -0.517826    33A     -0.466405
      34A     -0.436663    35A     -0.408586    36A     -0.392499
      37A     -0.348479

  @DF-RHF Final Energy:  -774.27668358440064

   => Energetics <=

    Nuclear Repulsion Energy =            504.9395788050938449
    One-Electron Energy =               -2064.7428120878703339
    Two-Electron Energy =                 785.5265496983759022
    Total Energy =                       -774.2766835844006437
  Basis Set: (AUG-CC-PVTZ AUX)
    Blend: AUG-CC-PVTZ-RI
    Molecular point group: c1

    Geometry (in Angstrom), charge = 0, multiplicity = 1:

       Center              X                  Y                   Z               Mass
    ------------   -----------------  -----------------  -----------------  -----------------
         S            1.504344958524    -1.051520831023     0.000000943522    31.972071174400
         O           -1.470950041476    -1.529946831023    -0.000001056478    15.994914619570
         N           -2.059987041476     0.703007168977    -0.000000056478    14.003074004430
         N            0.634184958524     1.383554168977    -0.000001056478    14.003074004430
         C            0.238719958524     0.119017168977    -0.000000056478    12.000000000000
         C           -1.180638041476    -0.327078831023    -0.000001056478    12.000000000000
         C           -3.493829041476     0.494451168977     0.000000943522    12.000000000000
         C            2.644586958524     0.225061168977    -0.000000056478    12.000000000000
         C            1.999585958524     1.443821168977    -0.000000056478    12.000000000000
         H           -1.665485041476     1.637480168977     0.000000943522     1.007825032230
         H           -3.951649041476     0.932922168977    -0.891194056478     1.007825032230
         H           -3.951647041476     0.932914168977     0.891200943522     1.007825032230
         H           -3.664599041476    -0.581913831023    -0.000003056478     1.007825032230
         H            3.690071658524     0.036450968977     0.000000943522     1.007825032230
         H            2.493670958524     2.409281168977    -0.000000056478     1.007825032230

  Basis Set: AUG-CC-PVTZ
    Blend: AUG-CC-PVTZ
  Basis Set: (AUG-CC-PVTZ AUX)
    Blend: AUG-CC-PVTZ-JKFIT
	 Reference Energy          =    -774.2766835844006437 [Eh]
	 Singles Energy            =      -0.0000000000000000 [Eh]
	 Same-Spin Energy          =      -0.4587976145151778 [Eh]
	 Opposite-Spin Energy      =      -1.3689714052176694 [Eh]
	 Correlation Energy        =      -1.8277690197328471 [Eh]
	 Total Energy              =    -776.1044526041334848 [Eh]

	 ================> DF-SCS-MP2 Energies <==================
	-----------------------------------------------------------
	 SCS Same-Spin Scale       =       0.3333333333333333 [-]
	 SCS Opposite-Spin Scale   =       1.2000000000000000 [-]
	 SCS Same-Spin Energy      =      -0.1529325381717259 [Eh]
	 SCS Opposite-Spin Energy  =      -1.6427656862612032 [Eh]
	 SCS Correlation Energy    =      -1.7956982244329291 [Eh]
	 SCS Total Energy          =    -776.0723818088335975 [Eh]
	-----------------------------------------------------------

  Dipole Moment: [D]
     X:     1.1189      Y:     2.4519      Z:     0.0000     Total:     2.6951

*** Psi4 exiting successfully. Buy a developer a beer!
