                               Psi4 1.4a3.dev225

  ==> Input File <==

--------------------------------------------------------------------------
#psi4
#
memory 32 gb

molecule  {
0 1
  S        1.5510760    -1.0871590     0.0000010
  O       -1.4242190    -1.5655850    -0.0000010
  N       -2.0132560     0.6673690     0.0000000
  N        0.6809160     1.3479160    -0.0000010
  C        0.2854510     0.0833790     0.0000000
  C       -1.1148272    -0.3567203    -0.0000010
  C       -3.4470980     0.4588130     0.0000010
  C        2.6913180     0.1894230     0.0000000
  C        2.0463170     1.4081830     0.0000000
  H       -1.6187540     1.6018420     0.0000010
  H       -3.9049180     0.8972840    -0.8911940
  H       -3.9049160     0.8972760     0.8912010
  H       -3.6178680    -0.6175520    -0.0000030
  H        3.7564850    -0.0027380     0.0000010
  H        2.5404020     2.3736430     0.0000000
units angstrom
no_reorient  #important for SAPT in psi4, default
symmetry c1  #important for SAPT in psi4, default
}

set PROPERTIES_ORIGIN ["COM"]
properties('MP2/aug-cc-pvtz', properties = ['dipole'])
--------------------------------------------------------------------------

    Molecular point group: c1
  Charge       = 0
  Multiplicity = 1
  Basis Set: AUG-CC-PVTZ
    Blend: AUG-CC-PVTZ
  Basis Set: (AUG-CC-PVTZ AUX)
    Blend: AUG-CC-PVTZ-JKFIT

    Orbital Energies [Eh]
    ---------------------

    Doubly Occupied:

       1A    -92.014401     2A    -20.527904     3A    -15.599044
       4A    -15.592852     5A    -11.369286     6A    -11.324813
       7A    -11.286449     8A    -11.284456     9A    -11.263007
      10A     -9.014260    11A     -6.694956    12A     -6.694424
      13A     -6.693802    14A     -1.377869    15A     -1.297412
      16A     -1.233641    17A     -1.082719    18A     -1.039660
      19A     -0.959082    20A     -0.852485    21A     -0.806622
      22A     -0.774094    23A     -0.719984    24A     -0.654834
      25A     -0.649508    26A     -0.631868    27A     -0.598346
      28A     -0.585481    29A     -0.569513    30A     -0.550098
      31A     -0.529153    32A     -0.519309    33A     -0.466553
      34A     -0.437465    35A     -0.408581    36A     -0.391148
      37A     -0.349700

  @DF-RHF Final Energy:  -774.27453370795001

   => Energetics <=

    Nuclear Repulsion Energy =            504.9023626600170473
    One-Electron Energy =               -2064.6642343816288303
    Two-Electron Energy =                 785.4873380136618835
    Total Energy =                       -774.2745337079500132
  Basis Set: (AUG-CC-PVTZ AUX)
    Blend: AUG-CC-PVTZ-RI
    Molecular point group: c1

    Geometry (in Angstrom), charge = 0, multiplicity = 1:

       Center              X                  Y                   Z               Mass
    ------------   -----------------  -----------------  -----------------  -----------------
         S            1.502593136474    -1.052002324999     0.000000943522    31.972071174400
         O           -1.472701863526    -1.530428324999    -0.000001056478    15.994914619570
         N           -2.061738863526     0.702525675001    -0.000000056478    14.003074004430
         N            0.632433136474     1.383072675001    -0.000001056478    14.003074004430
         C            0.236968136474     0.118535675001    -0.000000056478    12.000000000000
         C           -1.163310063526    -0.321563624999    -0.000001056478    12.000000000000
         C           -3.495580863526     0.493969675001     0.000000943522    12.000000000000
         C            2.642835136474     0.224579675001    -0.000000056478    12.000000000000
         C            1.997834136474     1.443339675001    -0.000000056478    12.000000000000
         H           -1.667236863526     1.636998675001     0.000000943522     1.007825032230
         H           -3.953400863526     0.932440675001    -0.891194056478     1.007825032230
         H           -3.953398863526     0.932432675001     0.891200943522     1.007825032230
         H           -3.666350863526    -0.582395324999    -0.000003056478     1.007825032230
         H            3.708002136474     0.032418675001     0.000000943522     1.007825032230
         H            2.491919136474     2.408799675001    -0.000000056478     1.007825032230

  Basis Set: AUG-CC-PVTZ
    Blend: AUG-CC-PVTZ
  Basis Set: (AUG-CC-PVTZ AUX)
    Blend: AUG-CC-PVTZ-JKFIT
	 Reference Energy          =    -774.2745337079500132 [Eh]
	 Singles Energy            =      -0.0000000000000000 [Eh]
	 Same-Spin Energy          =      -0.4593419753034367 [Eh]
	 Opposite-Spin Energy      =      -1.3699939041781337 [Eh]
	 Correlation Energy        =      -1.8293358794815704 [Eh]
	 Total Energy              =    -776.1038695874316318 [Eh]

	 ================> DF-SCS-MP2 Energies <==================
	-----------------------------------------------------------
	 SCS Same-Spin Scale       =       0.3333333333333333 [-]
	 SCS Opposite-Spin Scale   =       1.2000000000000000 [-]
	 SCS Same-Spin Energy      =      -0.1531139917678122 [Eh]
	 SCS Opposite-Spin Energy  =      -1.6439926850137605 [Eh]
	 SCS Correlation Energy    =      -1.7971066767815727 [Eh]
	 SCS Total Energy          =    -776.0716403847316087 [Eh]
	-----------------------------------------------------------

  Dipole Moment: [D]
     X:     1.2602      Y:     2.4738      Z:     0.0000     Total:     2.7763

*** Psi4 exiting successfully. Buy a developer a beer!
