                               Psi4 1.3.2 release

  ==> Input File <==

--------------------------------------------------------------------------
#psi4
#
memory 32 gb

molecule  {
0 1
  S        1.5510760    -1.0871590     0.0000010
  O       -1.4242190    -1.5655850    -0.0000010
  N       -2.0132560     0.6673690     0.0000000
  N        0.6809160     1.3479160    -0.0000010
  C        0.2854510     0.0833790     0.0000000
  C       -1.1339070    -0.3627170    -0.0000010
  C       -3.4470980     0.4588130     0.0000010
  C        2.6913180     0.1894230     0.0000000
  C        2.0463170     1.4081830     0.0000000
  H       -1.6187540     1.6018420     0.0000010
  H       -3.9049180     0.8972840    -0.8911940
  H       -3.9049160     0.8972760     0.8912010
  H       -3.6178680    -0.6175520    -0.0000030
  H        3.7564850    -0.0027380     0.0000010
  H        2.5859590     2.4626630     0.0000000
units angstrom
no_reorient  #important for SAPT in psi4, default
symmetry c1  #important for SAPT in psi4, default
}

set PROPERTIES_ORIGIN ["COM"]
properties('MP2/aug-cc-pvtz', properties = ['dipole'])
--------------------------------------------------------------------------

    Molecular point group: c1
  Charge       = 0
  Multiplicity = 1
  Basis Set: AUG-CC-PVTZ
    Blend: AUG-CC-PVTZ
  Basis Set: (AUG-CC-PVTZ AUX)
    Blend: AUG-CC-PVTZ-JKFIT

    Orbital Energies [Eh]
    ---------------------

    Doubly Occupied:

       1A    -92.013393     2A    -20.529518     3A    -15.598021
       4A    -15.594083     5A    -11.369703     6A    -11.325281
       7A    -11.295588     8A    -11.283460     9A    -11.263921
      10A     -9.013275    11A     -6.693977    12A     -6.693448
      13A     -6.692817    14A     -1.384508    15A     -1.296676
      16A     -1.238197    17A     -1.081807    18A     -1.033836
      19A     -0.958862    20A     -0.847093    21A     -0.799287
      22A     -0.776378    23A     -0.717775    24A     -0.651410
      25A     -0.643969    26A     -0.633865    27A     -0.594252
      28A     -0.584917    29A     -0.568229    30A     -0.552171
      31A     -0.532528    32A     -0.513586    33A     -0.466105
      34A     -0.437098    35A     -0.409034    36A     -0.392864
      37A     -0.348810

  @DF-RHF Final Energy:  -774.26895663533969

   => Energetics <=

    Nuclear Repulsion Energy =            504.3175430349343742
    One-Electron Energy =               -2063.5135101469222718
    Two-Electron Energy =                 784.9270104766483200
    Total Energy =                       -774.2689566353396913
  Basis Set: (AUG-CC-PVTZ AUX)
    Blend: AUG-CC-PVTZ-RI
    Molecular point group: c1

    Geometry (in Angstrom), charge = 0, multiplicity = 1:

       Center              X                  Y                   Z               Mass
    ------------   -----------------  -----------------  -----------------  -----------------
         S            1.503881997246    -1.052127350867     0.000000943522    31.972071174400
         O           -1.471413002754    -1.530553350867    -0.000001056478    15.994914619570
         N           -2.060450002754     0.702400649133    -0.000000056478    14.003074004430
         N            0.633721997246     1.382947649133    -0.000001056478    14.003074004430
         C            0.238256997246     0.118410649133    -0.000000056478    12.000000000000
         C           -1.181101002754    -0.327685350867    -0.000001056478    12.000000000000
         C           -3.494292002754     0.493844649133     0.000000943522    12.000000000000
         C            2.644123997246     0.224454649133    -0.000000056478    12.000000000000
         C            1.999122997246     1.443214649133    -0.000000056478    12.000000000000
         H           -1.665948002754     1.636873649133     0.000000943522     1.007825032230
         H           -3.952112002754     0.932315649133    -0.891194056478     1.007825032230
         H           -3.952110002754     0.932307649133     0.891200943522     1.007825032230
         H           -3.665062002754    -0.582520350867    -0.000003056478     1.007825032230
         H            3.709290997246     0.032293649133     0.000000943522     1.007825032230
         H            2.538764997246     2.497694649133    -0.000000056478     1.007825032230

  Basis Set: AUG-CC-PVTZ
    Blend: AUG-CC-PVTZ
  Basis Set: (AUG-CC-PVTZ AUX)
    Blend: AUG-CC-PVTZ-JKFIT
	 Reference Energy          =    -774.2689566353396913 [Eh]
	 Singles Energy            =      -0.0000000000000000 [Eh]
	 Same-Spin Energy          =      -0.4591229795313467 [Eh]
	 Opposite-Spin Energy      =      -1.3699256394400940 [Eh]
	 Correlation Energy        =      -1.8290486189714408 [Eh]
	 Total Energy              =    -776.0980052543111469 [Eh]

	 ================> DF-SCS-MP2 Energies <==================
	-----------------------------------------------------------
	 SCS Same-Spin Scale       =       0.3333333333333333 [-]
	 SCS Opposite-Spin Scale   =       1.2000000000000000 [-]
	 SCS Same-Spin Energy      =      -0.1530409931771156 [Eh]
	 SCS Opposite-Spin Energy  =      -1.6439107673281128 [Eh]
	 SCS Correlation Energy    =      -1.7969517605052283 [Eh]
	 SCS Total Energy          =    -776.0659083958448718 [Eh]
	-----------------------------------------------------------

  Dipole Moment: [D]
     X:     1.0965      Y:     2.4386      Z:     0.0000     Total:     2.6738

*** Psi4 exiting successfully. Buy a developer a beer!
