                               Psi4 1.3.2 release

  ==> Input File <==

--------------------------------------------------------------------------
#psi4
#
memory 32 gb

molecule  {
0 1
  S        1.5510760    -1.0871590     0.0000010
  O       -1.4242190    -1.5655850    -0.0000010
  N       -1.9767708     0.6974303     0.0000000
  N        0.6809160     1.3479160    -0.0000010
  C        0.2854510     0.0833790     0.0000000
  C       -1.1339070    -0.3627170    -0.0000010
  C       -3.4470980     0.4588130     0.0000010
  C        2.6913180     0.1894230     0.0000000
  C        2.0463170     1.4081830     0.0000000
  H       -1.6187540     1.6018420     0.0000010
  H       -3.9049180     0.8972840    -0.8911940
  H       -3.9049160     0.8972760     0.8912010
  H       -3.6178680    -0.6175520    -0.0000030
  H        3.7564850    -0.0027380     0.0000010
  H        2.5404020     2.3736430     0.0000000
units angstrom
no_reorient  #important for SAPT in psi4, default
symmetry c1  #important for SAPT in psi4, default
}

set PROPERTIES_ORIGIN ["COM"]
properties('MP2/aug-cc-pvtz', properties = ['dipole'])
--------------------------------------------------------------------------

    Molecular point group: c1
  Charge       = 0
  Multiplicity = 1
  Basis Set: AUG-CC-PVTZ
    Blend: AUG-CC-PVTZ
  Basis Set: (AUG-CC-PVTZ AUX)
    Blend: AUG-CC-PVTZ-JKFIT

    Orbital Energies [Eh]
    ---------------------

    Doubly Occupied:

       1A    -92.011292     2A    -20.531429     3A    -15.595406
       4A    -15.592481     5A    -11.370237     6A    -11.322428
       7A    -11.284040     8A    -11.281374     9A    -11.267587
      10A     -9.011251    11A     -6.691962    12A     -6.691427
      13A     -6.690807    14A     -1.384300    15A     -1.295244
      16A     -1.237252    17A     -1.079801    18A     -1.033588
      19A     -0.957268    20A     -0.852680    21A     -0.804225
      22A     -0.785646    23A     -0.717158    24A     -0.655982
      25A     -0.643692    26A     -0.630646    27A     -0.599465
      28A     -0.583363    29A     -0.564978    30A     -0.556781
      31A     -0.533290    32A     -0.516776    33A     -0.465763
      34A     -0.436385    35A     -0.410096    36A     -0.393994
      37A     -0.347250

  @DF-RHF Final Energy:  -774.27395044753621

   => Energetics <=

    Nuclear Repulsion Energy =            504.7921974001102399
    One-Electron Energy =               -2064.4776100418148417
    Two-Electron Energy =                 785.4114621941685073
    Total Energy =                       -774.2739504475362082
  Basis Set: (AUG-CC-PVTZ AUX)
    Blend: AUG-CC-PVTZ-RI
    Molecular point group: c1

    Geometry (in Angstrom), charge = 0, multiplicity = 1:

       Center              X                  Y                   Z               Mass
    ------------   -----------------  -----------------  -----------------  -----------------
         S            1.500607872505    -1.054459654968     0.000000943522    31.972071174400
         O           -1.474687127495    -1.532885654968    -0.000001056478    15.994914619570
         N           -2.027238927495     0.730129645032    -0.000000056478    14.003074004430
         N            0.630447872505     1.380615345032    -0.000001056478    14.003074004430
         C            0.234982872505     0.116078345032    -0.000000056478    12.000000000000
         C           -1.184375127495    -0.330017654968    -0.000001056478    12.000000000000
         C           -3.497566127495     0.491512345032     0.000000943522    12.000000000000
         C            2.640849872505     0.222122345032    -0.000000056478    12.000000000000
         C            1.995848872505     1.440882345032    -0.000000056478    12.000000000000
         H           -1.669222127495     1.634541345032     0.000000943522     1.007825032230
         H           -3.955386127495     0.929983345032    -0.891194056478     1.007825032230
         H           -3.955384127495     0.929975345032     0.891200943522     1.007825032230
         H           -3.668336127495    -0.584852654968    -0.000003056478     1.007825032230
         H            3.706016872505     0.029961345032     0.000000943522     1.007825032230
         H            2.489933872505     2.406342345032    -0.000000056478     1.007825032230

  Basis Set: AUG-CC-PVTZ
    Blend: AUG-CC-PVTZ
  Basis Set: (AUG-CC-PVTZ AUX)
    Blend: AUG-CC-PVTZ-JKFIT
	 Reference Energy          =    -774.2739504475362082 [Eh]
	 Singles Energy            =      -0.0000000000000000 [Eh]
	 Same-Spin Energy          =      -0.4585185298918434 [Eh]
	 Opposite-Spin Energy      =      -1.3688701759105688 [Eh]
	 Correlation Energy        =      -1.8273887058024121 [Eh]
	 Total Energy              =    -776.1013391533385857 [Eh]

	 ================> DF-SCS-MP2 Energies <==================
	-----------------------------------------------------------
	 SCS Same-Spin Scale       =       0.3333333333333333 [-]
	 SCS Opposite-Spin Scale   =       1.2000000000000000 [-]
	 SCS Same-Spin Energy      =      -0.1528395099639478 [Eh]
	 SCS Opposite-Spin Energy  =      -1.6426442110926824 [Eh]
	 SCS Correlation Energy    =      -1.7954837210566303 [Eh]
	 SCS Total Energy          =    -776.0694341685928066 [Eh]
	-----------------------------------------------------------

  Dipole Moment: [D]
     X:     0.9777      Y:     2.4090      Z:     0.0000     Total:     2.5998

*** Psi4 exiting successfully. Buy a developer a beer!
