                               Psi4 1.4a3.dev225

  ==> Input File <==

--------------------------------------------------------------------------
#psi4
#
memory 32 gb

molecule  {
0 1
  S        1.5510760    -1.0871590     0.0000010
  O       -1.4242190    -1.5655850    -0.0000010
  N       -2.0132560     0.6673690     0.0000000
  N        0.6809160     1.3479160    -0.0000010
  C        0.2854510     0.0833790     0.0000000
  C       -1.1339070    -0.3627170    -0.0000010
  C       -3.4470980     0.4588130     0.0000010
  C        2.6913180     0.1894230     0.0000000
  C        2.0463170     1.4081830     0.0000000
  H       -1.6187540     1.6018420     0.0000010
  H       -3.9049180     0.8972840    -0.8911940
  H       -3.9049160     0.8972760     0.8912010
  H       -3.6178680    -0.6175520    -0.0000030
  H        3.7564850    -0.0027380     0.0000010
  H        2.5312906     2.3558390     0.0000000
units angstrom
no_reorient  #important for SAPT in psi4, default
symmetry c1  #important for SAPT in psi4, default
}

set PROPERTIES_ORIGIN ["COM"]
properties('MP2/aug-cc-pvtz', properties = ['dipole'])
--------------------------------------------------------------------------

    Molecular point group: c1
  Charge       = 0
  Multiplicity = 1
  Basis Set: AUG-CC-PVTZ
    Blend: AUG-CC-PVTZ
  Basis Set: (AUG-CC-PVTZ AUX)
    Blend: AUG-CC-PVTZ-JKFIT

    Orbital Energies [Eh]
    ---------------------

    Doubly Occupied:

       1A    -92.012745     2A    -20.529133     3A    -15.596884
       4A    -15.593764     5A    -11.369249     6A    -11.324417
       7A    -11.283421     8A    -11.282073     9A    -11.263715
      10A     -9.012648    11A     -6.693353    12A     -6.692824
      13A     -6.692199    14A     -1.384130    15A     -1.296056
      16A     -1.237893    17A     -1.081101    18A     -1.036500
      19A     -0.960094    20A     -0.848380    21A     -0.806533
      22A     -0.777805    23A     -0.718902    24A     -0.657850
      25A     -0.650502    26A     -0.633554    27A     -0.600439
      28A     -0.584350    29A     -0.567750    30A     -0.552064
      31A     -0.532102    32A     -0.518592    33A     -0.466461
      34A     -0.436610    35A     -0.408538    36A     -0.392461
      37A     -0.348447

  @DF-RHF Final Energy:  -774.27669314868137

   => Energetics <=

    Nuclear Repulsion Energy =            504.9377355702208092
    One-Electron Energy =               -2064.7417778111803273
    Two-Electron Energy =                 785.5273490922780866
    Total Energy =                       -774.2766931486813746
  Basis Set: (AUG-CC-PVTZ AUX)
    Blend: AUG-CC-PVTZ-RI
    Molecular point group: c1

    Geometry (in Angstrom), charge = 0, multiplicity = 1:

       Center              X                  Y                   Z               Mass
    ------------   -----------------  -----------------  -----------------  -----------------
         S            1.504269943657    -1.051369289766     0.000000943522    31.972071174400
         O           -1.471025056343    -1.529795289766    -0.000001056478    15.994914619570
         N           -2.060062056343     0.703158710234    -0.000000056478    14.003074004430
         N            0.634109943657     1.383705710234    -0.000001056478    14.003074004430
         C            0.238644943657     0.119168710234    -0.000000056478    12.000000000000
         C           -1.180713056343    -0.326927289766    -0.000001056478    12.000000000000
         C           -3.493904056343     0.494602710234     0.000000943522    12.000000000000
         C            2.644511943657     0.225212710234    -0.000000056478    12.000000000000
         C            1.999510943657     1.443972710234    -0.000000056478    12.000000000000
         H           -1.665560056343     1.637631710234     0.000000943522     1.007825032230
         H           -3.951724056343     0.933073710234    -0.891194056478     1.007825032230
         H           -3.951722056343     0.933065710234     0.891200943522     1.007825032230
         H           -3.664674056343    -0.581762289766    -0.000003056478     1.007825032230
         H            3.709678943657     0.033051710234     0.000000943522     1.007825032230
         H            2.484484543657     2.391628710234    -0.000000056478     1.007825032230

  Basis Set: AUG-CC-PVTZ
    Blend: AUG-CC-PVTZ
  Basis Set: (AUG-CC-PVTZ AUX)
    Blend: AUG-CC-PVTZ-JKFIT
	 Reference Energy          =    -774.2766931486813746 [Eh]
	 Singles Energy            =      -0.0000000000000000 [Eh]
	 Same-Spin Energy          =      -0.4587957682038601 [Eh]
	 Opposite-Spin Energy      =      -1.3689504872638911 [Eh]
	 Correlation Energy        =      -1.8277462554677513 [Eh]
	 Total Energy              =    -776.1044394041491614 [Eh]

	 ================> DF-SCS-MP2 Energies <==================
	-----------------------------------------------------------
	 SCS Same-Spin Scale       =       0.3333333333333333 [-]
	 SCS Opposite-Spin Scale   =       1.2000000000000000 [-]
	 SCS Same-Spin Energy      =      -0.1529319227346200 [Eh]
	 SCS Opposite-Spin Energy  =      -1.6427405847166694 [Eh]
	 SCS Correlation Energy    =      -1.7956725074512894 [Eh]
	 SCS Total Energy          =    -776.0723656561326607 [Eh]
	-----------------------------------------------------------

  Dipole Moment: [D]
     X:     1.1268      Y:     2.4512      Z:     0.0000     Total:     2.6977

*** Psi4 exiting successfully. Buy a developer a beer!
