                               Psi4 1.3.2 release

  ==> Input File <==

--------------------------------------------------------------------------
#psi4
#
memory 32 gb

molecule  {
0 1
  S        1.5510760    -1.0871590     0.0000010
  O       -1.4242190    -1.5655850    -0.0000010
  N       -2.0132560     0.6673690     0.0000000
  N        0.6946954     1.2055229    -0.0000009
  C        0.2854510     0.0833790     0.0000000
  C       -1.1339070    -0.3627170    -0.0000010
  C       -3.4470980     0.4588130     0.0000010
  C        2.6913180     0.1894230     0.0000000
  C        2.0463170     1.4081830     0.0000000
  H       -1.6187540     1.6018420     0.0000010
  H       -3.9049180     0.8972840    -0.8911940
  H       -3.9049160     0.8972760     0.8912010
  H       -3.6178680    -0.6175520    -0.0000030
  H        3.7564850    -0.0027380     0.0000010
  H        2.5404020     2.3736430     0.0000000
units angstrom
no_reorient  #important for SAPT in psi4, default
symmetry c1  #important for SAPT in psi4, default
}

set PROPERTIES_ORIGIN ["COM"]
properties('MP2/aug-cc-pvtz', properties = ['dipole'])
--------------------------------------------------------------------------

    Molecular point group: c1
  Charge       = 0
  Multiplicity = 1
  Basis Set: AUG-CC-PVTZ
    Blend: AUG-CC-PVTZ
  Basis Set: (AUG-CC-PVTZ AUX)
    Blend: AUG-CC-PVTZ-JKFIT

    Orbital Energies [Eh]
    ---------------------

    Doubly Occupied:

       1A    -91.996377     2A    -20.529409     3A    -15.594601
       4A    -15.578033     5A    -11.367444     6A    -11.306967
       7A    -11.285061     8A    -11.283546     9A    -11.264332
      10A     -8.997727    11A     -6.678441    12A     -6.678022
      13A     -6.677177    14A     -1.385754    15A     -1.334968
      16A     -1.238912    17A     -1.083166    18A     -1.037673
      19A     -0.964136    20A     -0.847114    21A     -0.819860
      22A     -0.777764    23A     -0.716957    24A     -0.671859
      25A     -0.650720    26A     -0.637706    27A     -0.607480
      28A     -0.599236    29A     -0.571503    30A     -0.552334
      31A     -0.534095    32A     -0.512098    33A     -0.463563
      34A     -0.415577    35A     -0.411992    36A     -0.393844
      37A     -0.352572

  @DF-RHF Final Energy:  -774.26562196060445

   => Energetics <=

    Nuclear Repulsion Energy =            508.9011887586102603
    One-Electron Energy =               -2072.6975804147436975
    Two-Electron Energy =                 789.5307696955289884
    Total Energy =                       -774.2656219606044488
  Basis Set: (AUG-CC-PVTZ AUX)
    Blend: AUG-CC-PVTZ-RI
    Molecular point group: c1

    Geometry (in Angstrom), charge = 0, multiplicity = 1:

       Center              X                  Y                   Z               Mass
    ------------   -----------------  -----------------  -----------------  -----------------
         S            1.502846647394    -1.037455780180     0.000000933662    31.972071174400
         O           -1.472448352606    -1.515881780180    -0.000001066338    15.994914619570
         N           -2.061485352606     0.717072219820    -0.000000066338    14.003074004430
         N            0.646466047394     1.255226119820    -0.000000966338    14.003074004430
         C            0.237221647394     0.133082219820    -0.000000066338    12.000000000000
         C           -1.182136352606    -0.313013780180    -0.000001066338    12.000000000000
         C           -3.495327352606     0.508516219820     0.000000933662    12.000000000000
         C            2.643088647394     0.239126219820    -0.000000066338    12.000000000000
         C            1.998087647394     1.457886219820    -0.000000066338    12.000000000000
         H           -1.666983352606     1.651545219820     0.000000933662     1.007825032230
         H           -3.953147352606     0.946987219820    -0.891194066338     1.007825032230
         H           -3.953145352606     0.946979219820     0.891200933662     1.007825032230
         H           -3.666097352606    -0.567848780180    -0.000003066338     1.007825032230
         H            3.708255647394     0.046965219820     0.000000933662     1.007825032230
         H            2.492172647394     2.423346219820    -0.000000066338     1.007825032230

  Basis Set: AUG-CC-PVTZ
    Blend: AUG-CC-PVTZ
  Basis Set: (AUG-CC-PVTZ AUX)
    Blend: AUG-CC-PVTZ-JKFIT
	 Reference Energy          =    -774.2656219606044488 [Eh]
	 Singles Energy            =      -0.0000000000000000 [Eh]
	 Same-Spin Energy          =      -0.4559127237040866 [Eh]
	 Opposite-Spin Energy      =      -1.3634617653926835 [Eh]
	 Correlation Energy        =      -1.8193744890967700 [Eh]
	 Total Energy              =    -776.0849964497011797 [Eh]

	 ================> DF-SCS-MP2 Energies <==================
	-----------------------------------------------------------
	 SCS Same-Spin Scale       =       0.3333333333333333 [-]
	 SCS Opposite-Spin Scale   =       1.2000000000000000 [-]
	 SCS Same-Spin Energy      =      -0.1519709079013622 [Eh]
	 SCS Opposite-Spin Energy  =      -1.6361541184712201 [Eh]
	 SCS Correlation Energy    =      -1.7881250263725823 [Eh]
	 SCS Total Energy          =    -776.0537469869769893 [Eh]
	-----------------------------------------------------------

  Dipole Moment: [D]
     X:     0.8444      Y:     3.0011      Z:     0.0000     Total:     3.1176

*** Psi4 exiting successfully. Buy a developer a beer!
