                               Psi4 1.3.2 release

  ==> Input File <==

--------------------------------------------------------------------------
#psi4
#
memory 32 gb

molecule  {
0 1
  S        1.5510760    -1.0871590     0.0000010
  O       -1.4242190    -1.5655850    -0.0000010
  N       -1.9007655     0.7536431     0.0000001
  N        0.6809160     1.3479160    -0.0000010
  C        0.2854510     0.0833790     0.0000000
  C       -1.1339070    -0.3627170    -0.0000010
  C       -3.4470980     0.4588130     0.0000010
  C        2.6913180     0.1894230     0.0000000
  C        2.0463170     1.4081830     0.0000000
  H       -1.6187540     1.6018420     0.0000010
  H       -3.9049180     0.8972840    -0.8911940
  H       -3.9049160     0.8972760     0.8912010
  H       -3.6178680    -0.6175520    -0.0000030
  H        3.7564850    -0.0027380     0.0000010
  H        2.5404020     2.3736430     0.0000000
units angstrom
no_reorient  #important for SAPT in psi4, default
symmetry c1  #important for SAPT in psi4, default
}

set PROPERTIES_ORIGIN ["COM"]
properties('MP2/aug-cc-pvtz', properties = ['dipole'])
--------------------------------------------------------------------------

    Molecular point group: c1
  Charge       = 0
  Multiplicity = 1
  Basis Set: AUG-CC-PVTZ
    Blend: AUG-CC-PVTZ
  Basis Set: (AUG-CC-PVTZ AUX)
    Blend: AUG-CC-PVTZ-JKFIT

    Orbital Energies [Eh]
    ---------------------

    Doubly Occupied:

       1A    -92.008280     2A    -20.536291     3A    -15.592184
       4A    -15.589592     5A    -11.373546     6A    -11.318415
       7A    -11.281943     8A    -11.278842     9A    -11.275143
      10A     -9.008357    11A     -6.689082    12A     -6.688534
      13A     -6.687928    14A     -1.385412    15A     -1.294021
      16A     -1.239216    17A     -1.077122    18A     -1.029372
      19A     -0.953016    20A     -0.869875    21A     -0.803944
      22A     -0.795992    23A     -0.714231    24A     -0.657823
      25A     -0.631944    26A     -0.626089    27A     -0.598517
      28A     -0.581790    29A     -0.571872    30A     -0.546783
      31A     -0.535605    32A     -0.514497    33A     -0.464444
      34A     -0.435082    35A     -0.415219    36A     -0.394442
      37A     -0.344821

  @DF-RHF Final Energy:  -774.24768699832759

   => Energetics <=

    Nuclear Repulsion Energy =            504.8592346735020442
    One-Electron Energy =               -2064.5953038008065050
    Two-Electron Energy =                 785.4883821289769230
    Total Energy =                       -774.2476869983275947
  Basis Set: (AUG-CC-PVTZ AUX)
    Blend: AUG-CC-PVTZ-RI
    Molecular point group: c1

    Geometry (in Angstrom), charge = 0, multiplicity = 1:

       Center              X                  Y                   Z               Mass
    ------------   -----------------  -----------------  -----------------  -----------------
         S            1.493113806802    -1.060002194982     0.000000933662    31.972071174400
         O           -1.482181193198    -1.538428194982    -0.000001066338    15.994914619570
         N           -1.958727693198     0.780799905018     0.000000033662    14.003074004430
         N            0.622953806802     1.375072805018    -0.000001066338    14.003074004430
         C            0.227488806802     0.110535805018    -0.000000066338    12.000000000000
         C           -1.191869193198    -0.335560194982    -0.000001066338    12.000000000000
         C           -3.505060193198     0.485969805018     0.000000933662    12.000000000000
         C            2.633355806802     0.216579805018    -0.000000066338    12.000000000000
         C            1.988354806802     1.435339805018    -0.000000066338    12.000000000000
         H           -1.676716193198     1.628998805018     0.000000933662     1.007825032230
         H           -3.962880193198     0.924440805018    -0.891194066338     1.007825032230
         H           -3.962878193198     0.924432805018     0.891200933662     1.007825032230
         H           -3.675830193198    -0.590395194982    -0.000003066338     1.007825032230
         H            3.698522806802     0.024418805018     0.000000933662     1.007825032230
         H            2.482439806802     2.400799805018    -0.000000066338     1.007825032230

  Basis Set: AUG-CC-PVTZ
    Blend: AUG-CC-PVTZ
  Basis Set: (AUG-CC-PVTZ AUX)
    Blend: AUG-CC-PVTZ-JKFIT
	 Reference Energy          =    -774.2476869983275947 [Eh]
	 Singles Energy            =      -0.0000000000000000 [Eh]
	 Same-Spin Energy          =      -0.4584206202071785 [Eh]
	 Opposite-Spin Energy      =      -1.3697755117183903 [Eh]
	 Correlation Energy        =      -1.8281961319255688 [Eh]
	 Total Energy              =    -776.0758831302531462 [Eh]

	 ================> DF-SCS-MP2 Energies <==================
	-----------------------------------------------------------
	 SCS Same-Spin Scale       =       0.3333333333333333 [-]
	 SCS Opposite-Spin Scale   =       1.2000000000000000 [-]
	 SCS Same-Spin Energy      =      -0.1528068734023928 [Eh]
	 SCS Opposite-Spin Energy  =      -1.6437306140620682 [Eh]
	 SCS Correlation Energy    =      -1.7965374874644611 [Eh]
	 SCS Total Energy          =    -776.0442244857920286 [Eh]
	-----------------------------------------------------------

  Dipole Moment: [D]
     X:     0.7029      Y:     2.3130      Z:     0.0000     Total:     2.4175

*** Psi4 exiting successfully. Buy a developer a beer!
