                               Psi4 1.3.2 release

  ==> Input File <==

--------------------------------------------------------------------------
#psi4
#
memory 32 gb

molecule  {
0 1
  S        1.5510760    -1.0871590     0.0000010
  O       -1.4242190    -1.5655850    -0.0000010
  N       -2.0132560     0.6673690     0.0000000
  N        0.6809160     1.3479160    -0.0000010
  C        0.2854510     0.0833790     0.0000000
  C       -1.1339070    -0.3627170    -0.0000010
  C       -3.4470980     0.4588130     0.0000010
  C        2.6913180     0.1894230     0.0000000
  C        2.0251449     1.3967406    -0.0000000
  H       -1.6187540     1.6018420     0.0000010
  H       -3.9049180     0.8972840    -0.8911940
  H       -3.9049160     0.8972760     0.8912010
  H       -3.6178680    -0.6175520    -0.0000030
  H        3.7564850    -0.0027380     0.0000010
  H        2.5404020     2.3736430     0.0000000
units angstrom
no_reorient  #important for SAPT in psi4, default
symmetry c1  #important for SAPT in psi4, default
}

set PROPERTIES_ORIGIN ["COM"]
properties('MP2/aug-cc-pvtz', properties = ['dipole'])
--------------------------------------------------------------------------

    Molecular point group: c1
  Charge       = 0
  Multiplicity = 1
  Basis Set: AUG-CC-PVTZ
    Blend: AUG-CC-PVTZ
  Basis Set: (AUG-CC-PVTZ AUX)
    Blend: AUG-CC-PVTZ-JKFIT

    Orbital Energies [Eh]
    ---------------------

    Doubly Occupied:

       1A    -92.013483     2A    -20.528827     3A    -15.596098
       4A    -15.593859     5A    -11.369080     6A    -11.324490
       7A    -11.284930     8A    -11.281972     9A    -11.263766
      10A     -9.013316    11A     -6.693995    12A     -6.693498
      13A     -6.692886    14A     -1.384025    15A     -1.302200
      16A     -1.238190    17A     -1.083139    18A     -1.036118
      19A     -0.959247    20A     -0.847839    21A     -0.804933
      22A     -0.777301    23A     -0.720959    24A     -0.653588
      25A     -0.650026    26A     -0.633820    27A     -0.599931
      28A     -0.586448    29A     -0.568779    30A     -0.552049
      31A     -0.533013    32A     -0.513884    33A     -0.467216
      34A     -0.437306    35A     -0.409712    36A     -0.393336
      37A     -0.347140

  @DF-RHF Final Energy:  -774.27577261696797

   => Energetics <=

    Nuclear Repulsion Energy =            505.3644018680357135
    One-Electron Energy =               -2065.5795500168919716
    Two-Electron Energy =                 785.9393755318883450
    Total Energy =                       -774.2757726169679700
  Basis Set: (AUG-CC-PVTZ AUX)
    Blend: AUG-CC-PVTZ-RI
    Molecular point group: c1

    Geometry (in Angstrom), charge = 0, multiplicity = 1:

       Center              X                  Y                   Z               Mass
    ------------   -----------------  -----------------  -----------------  -----------------
         S            1.505994224450    -1.050528806648     0.000000943522    31.972071174400
         O           -1.469300775550    -1.528954806648    -0.000001056478    15.994914619570
         N           -2.058337775550     0.703999193352    -0.000000056478    14.003074004430
         N            0.635834224450     1.384546193352    -0.000001056478    14.003074004430
         C            0.240369224450     0.120009193352    -0.000000056478    12.000000000000
         C           -1.178988775550    -0.326086806648    -0.000001056478    12.000000000000
         C           -3.492179775550     0.495443193352     0.000000943522    12.000000000000
         C            2.646236224450     0.226053193352    -0.000000056478    12.000000000000
         C            1.980063124450     1.433370793352    -0.000000056478    12.000000000000
         H           -1.663835775550     1.638472193352     0.000000943522     1.007825032230
         H           -3.949999775550     0.933914193352    -0.891194056478     1.007825032230
         H           -3.949997775550     0.933906193352     0.891200943522     1.007825032230
         H           -3.662949775550    -0.580921806648    -0.000003056478     1.007825032230
         H            3.711403224450     0.033892193352     0.000000943522     1.007825032230
         H            2.495320224450     2.410273193352    -0.000000056478     1.007825032230

  Basis Set: AUG-CC-PVTZ
    Blend: AUG-CC-PVTZ
  Basis Set: (AUG-CC-PVTZ AUX)
    Blend: AUG-CC-PVTZ-JKFIT
	 Reference Energy          =    -774.2757726169679700 [Eh]
	 Singles Energy            =      -0.0000000000000000 [Eh]
	 Same-Spin Energy          =      -0.4591833338217253 [Eh]
	 Opposite-Spin Energy      =      -1.3690473925242954 [Eh]
	 Correlation Energy        =      -1.8282307263460207 [Eh]
	 Total Energy              =    -776.1040033433139342 [Eh]

	 ================> DF-SCS-MP2 Energies <==================
	-----------------------------------------------------------
	 SCS Same-Spin Scale       =       0.3333333333333333 [-]
	 SCS Opposite-Spin Scale   =       1.2000000000000000 [-]
	 SCS Same-Spin Energy      =      -0.1530611112739084 [Eh]
	 SCS Opposite-Spin Energy  =      -1.6428568710291545 [Eh]
	 SCS Correlation Energy    =      -1.7959179823030629 [Eh]
	 SCS Total Energy          =    -776.0716905992710508 [Eh]
	-----------------------------------------------------------

  Dipole Moment: [D]
     X:     1.1281      Y:     2.4348      Z:     0.0000     Total:     2.6834

*** Psi4 exiting successfully. Buy a developer a beer!
