                               Psi4 1.4a3.dev225

  ==> Input File <==

--------------------------------------------------------------------------
#psi4
#
memory 32 gb

molecule  {
0 1
  S        1.5510760    -1.0871590     0.0000010
  O       -1.4242190    -1.5655850    -0.0000010
  N       -2.0132560     0.6673690     0.0000000
  N        0.6809160     1.3479160    -0.0000010
  C        0.2854510     0.0833790     0.0000000
  C       -1.1339070    -0.3627170    -0.0000010
  C       -3.4470980     0.4588130     0.0000010
  C        2.6913180     0.1894230     0.0000000
  C        2.0463170     1.4081830     0.0000000
  H       -1.6187540     1.6018420     0.0000010
  H       -3.9049180     0.8972840    -0.8911940
  H       -3.9049160     0.8972760     0.8912010
  H       -3.6178680    -0.6175520    -0.0000030
  H        3.8056907    -0.0116149     0.0000010
  H        2.5404020     2.3736430     0.0000000
units angstrom
no_reorient  #important for SAPT in psi4, default
symmetry c1  #important for SAPT in psi4, default
}

set PROPERTIES_ORIGIN ["COM"]
properties('MP2/aug-cc-pvtz', properties = ['dipole'])
--------------------------------------------------------------------------

    Molecular point group: c1
  Charge       = 0
  Multiplicity = 1
  Basis Set: AUG-CC-PVTZ
    Blend: AUG-CC-PVTZ
  Basis Set: (AUG-CC-PVTZ AUX)
    Blend: AUG-CC-PVTZ-JKFIT

    Orbital Energies [Eh]
    ---------------------

    Doubly Occupied:

       1A    -92.013125     2A    -20.529231     3A    -15.597267
       4A    -15.593851     5A    -11.369375     6A    -11.324598
       7A    -11.288151     8A    -11.284911     9A    -11.263774
      10A     -9.012996    11A     -6.693695    12A     -6.693169
      13A     -6.692538    14A     -1.384233    15A     -1.296273
      16A     -1.237976    17A     -1.080192    18A     -1.035613
      19A     -0.959397    20A     -0.847554    21A     -0.800492
      22A     -0.777623    23A     -0.715357    24A     -0.655603
      25A     -0.648160    26A     -0.633645    27A     -0.598261
      28A     -0.584542    29A     -0.563732    30A     -0.552071
      31A     -0.532231    32A     -0.518042    33A     -0.466458
      34A     -0.436744    35A     -0.408679    36A     -0.392580
      37A     -0.348527

  @DF-RHF Final Energy:  -774.27400059910974

   => Energetics <=

    Nuclear Repulsion Energy =            504.5612311055799069
    One-Electron Energy =               -2064.0091288534290470
    Two-Electron Energy =                 785.1738971487393428
    Total Energy =                       -774.2740005991097405
  Basis Set: (AUG-CC-PVTZ AUX)
    Blend: AUG-CC-PVTZ-RI
    Molecular point group: c1

    Geometry (in Angstrom), charge = 0, multiplicity = 1:

       Center              X                  Y                   Z               Mass
    ------------   -----------------  -----------------  -----------------  -----------------
         S            1.503856104773    -1.051432639643     0.000000943522    31.972071174400
         O           -1.471438895227    -1.529858639643    -0.000001056478    15.994914619570
         N           -2.060475895227     0.703095360357    -0.000000056478    14.003074004430
         N            0.633696104773     1.383642360357    -0.000001056478    14.003074004430
         C            0.238231104773     0.119105360357    -0.000000056478    12.000000000000
         C           -1.181126895227    -0.326990639643    -0.000001056478    12.000000000000
         C           -3.494317895227     0.494539360357     0.000000943522    12.000000000000
         C            2.644098104773     0.225149360357    -0.000000056478    12.000000000000
         C            1.999097104773     1.443909360357    -0.000000056478    12.000000000000
         H           -1.665973895227     1.637568360357     0.000000943522     1.007825032230
         H           -3.952137895227     0.933010360357    -0.891194056478     1.007825032230
         H           -3.952135895227     0.933002360357     0.891200943522     1.007825032230
         H           -3.665087895227    -0.581825639643    -0.000003056478     1.007825032230
         H            3.758470804773     0.024111460357     0.000000943522     1.007825032230
         H            2.493182104773     2.409369360357    -0.000000056478     1.007825032230

  Basis Set: AUG-CC-PVTZ
    Blend: AUG-CC-PVTZ
  Basis Set: (AUG-CC-PVTZ AUX)
    Blend: AUG-CC-PVTZ-JKFIT
	 Reference Energy          =    -774.2740005991097405 [Eh]
	 Singles Energy            =      -0.0000000000000000 [Eh]
	 Same-Spin Energy          =      -0.4589683670599462 [Eh]
	 Opposite-Spin Energy      =      -1.3694026105378239 [Eh]
	 Correlation Energy        =      -1.8283709775977701 [Eh]
	 Total Energy              =    -776.1023715767074691 [Eh]

	 ================> DF-SCS-MP2 Energies <==================
	-----------------------------------------------------------
	 SCS Same-Spin Scale       =       0.3333333333333333 [-]
	 SCS Opposite-Spin Scale   =       1.2000000000000000 [-]
	 SCS Same-Spin Energy      =      -0.1529894556866487 [Eh]
	 SCS Opposite-Spin Energy  =      -1.6432831326453885 [Eh]
	 SCS Correlation Energy    =      -1.7962725883320372 [Eh]
	 SCS Total Energy          =    -776.0702731874417850 [Eh]
	-----------------------------------------------------------

  Dipole Moment: [D]
     X:     1.1304      Y:     2.4468      Z:     0.0000     Total:     2.6953

*** Psi4 exiting successfully. Buy a developer a beer!
