                               Psi4 1.3.2 release

  ==> Input File <==

--------------------------------------------------------------------------
#psi4
#
memory 32 gb

molecule  {
0 1
  S        1.5510760    -1.0871590     0.0000010
  O       -1.4242190    -1.5655850    -0.0000010
  N       -2.0132560     0.6673690     0.0000000
  N        0.6809160     1.3479160    -0.0000010
  C        0.2854510     0.0833790     0.0000000
  C       -1.1339070    -0.3627170    -0.0000010
  C       -3.4470980     0.4588130     0.0000010
  C        2.6913180     0.1894230     0.0000000
  C        2.1329046     1.4502072     0.0000001
  H       -1.6187540     1.6018420     0.0000010
  H       -3.9049180     0.8972840    -0.8911940
  H       -3.9049160     0.8972760     0.8912010
  H       -3.6178680    -0.6175520    -0.0000030
  H        3.7564850    -0.0027380     0.0000010
  H        2.5404020     2.3736430     0.0000000
units angstrom
no_reorient  #important for SAPT in psi4, default
symmetry c1  #important for SAPT in psi4, default
}

set PROPERTIES_ORIGIN ["COM"]
properties('MP2/aug-cc-pvtz', properties = ['dipole'])
--------------------------------------------------------------------------

    Molecular point group: c1
  Charge       = 0
  Multiplicity = 1
  Basis Set: AUG-CC-PVTZ
    Blend: AUG-CC-PVTZ
  Basis Set: (AUG-CC-PVTZ AUX)
    Blend: AUG-CC-PVTZ-JKFIT

    Orbital Energies [Eh]
    ---------------------

    Doubly Occupied:

       1A    -92.010910     2A    -20.530593     3A    -15.600158
       4A    -15.593676     5A    -11.370254     6A    -11.324847
       7A    -11.287338     8A    -11.285914     9A    -11.263701
      10A     -9.011051    11A     -6.691845    12A     -6.691198
      13A     -6.690514    14A     -1.384953    15A     -1.276053
      16A     -1.236502    17A     -1.075610    18A     -1.034725
      19A     -0.962233    20A     -0.850245    21A     -0.808863
      22A     -0.777540    23A     -0.712702    24A     -0.662928
      25A     -0.650266    26A     -0.633047    27A     -0.598538
      28A     -0.578192    29A     -0.563124    30A     -0.552007
      31A     -0.531222    32A     -0.528819    33A     -0.462789
      34A     -0.432498    35A     -0.405856    36A     -0.388845
      37A     -0.353921

  @DF-RHF Final Energy:  -774.26492711711398

   => Energetics <=

    Nuclear Repulsion Energy =            502.8062062830538252
    One-Electron Energy =               -2060.5153104920491387
    Two-Electron Energy =                 783.4441770918813290
    Total Energy =                       -774.2649271171139844
  Basis Set: (AUG-CC-PVTZ AUX)
    Blend: AUG-CC-PVTZ-RI
    Molecular point group: c1

    Geometry (in Angstrom), charge = 0, multiplicity = 1:

       Center              X                  Y                   Z               Mass
    ------------   -----------------  -----------------  -----------------  -----------------
         S            1.496889058732    -1.055046471910     0.000000935072    31.972071174400
         O           -1.478405941268    -1.533472471910    -0.000001064928    15.994914619570
         N           -2.067442941268     0.699481528090    -0.000000064928    14.003074004430
         N            0.626729058732     1.380028528090    -0.000001064928    14.003074004430
         C            0.231264058732     0.115491528090    -0.000000064928    12.000000000000
         C           -1.188093941268    -0.330604471910    -0.000001064928    12.000000000000
         C           -3.501284941268     0.490925528090     0.000000935072    12.000000000000
         C            2.637131058732     0.221535528090    -0.000000064928    12.000000000000
         C            2.078717658732     1.482319728090     0.000000035072    12.000000000000
         H           -1.672940941268     1.633954528090     0.000000935072     1.007825032230
         H           -3.959104941268     0.929396528090    -0.891194064928     1.007825032230
         H           -3.959102941268     0.929388528090     0.891200935072     1.007825032230
         H           -3.672054941268    -0.585439471910    -0.000003064928     1.007825032230
         H            3.702298058732     0.029374528090     0.000000935072     1.007825032230
         H            2.486215058732     2.405755528090    -0.000000064928     1.007825032230

  Basis Set: AUG-CC-PVTZ
    Blend: AUG-CC-PVTZ
  Basis Set: (AUG-CC-PVTZ AUX)
    Blend: AUG-CC-PVTZ-JKFIT
	 Reference Energy          =    -774.2649271171139844 [Eh]
	 Singles Energy            =      -0.0000000000000000 [Eh]
	 Same-Spin Energy          =      -0.4577406999170536 [Eh]
	 Opposite-Spin Energy      =      -1.3700107243191995 [Eh]
	 Correlation Energy        =      -1.8277514242362529 [Eh]
	 Total Energy              =    -776.0926785413502103 [Eh]

	 ================> DF-SCS-MP2 Energies <==================
	-----------------------------------------------------------
	 SCS Same-Spin Scale       =       0.3333333333333333 [-]
	 SCS Opposite-Spin Scale   =       1.2000000000000000 [-]
	 SCS Same-Spin Energy      =      -0.1525802333056845 [Eh]
	 SCS Opposite-Spin Energy  =      -1.6440128691830393 [Eh]
	 SCS Correlation Energy    =      -1.7965931024887238 [Eh]
	 SCS Total Energy          =    -776.0615202196026985 [Eh]
	-----------------------------------------------------------

  Dipole Moment: [D]
     X:     1.0750      Y:     2.4904      Z:     0.0000     Total:     2.7125

*** Psi4 exiting successfully. Buy a developer a beer!
