                               Psi4 1.3.2 release

  ==> Input File <==

--------------------------------------------------------------------------
#psi4
#
memory 32 gb

molecule  {
0 1
  S        1.5510760    -1.0871590     0.0000010
  O       -1.4242190    -1.5655850    -0.0000010
  N       -2.0132560     0.6673690     0.0000000
  N        0.8109297     1.2996514    -0.0000008
  C        0.2854510     0.0833790     0.0000000
  C       -1.1339070    -0.3627170    -0.0000010
  C       -3.4470980     0.4588130     0.0000010
  C        2.6913180     0.1894230     0.0000000
  C        2.0463170     1.4081830     0.0000000
  H       -1.6187540     1.6018420     0.0000010
  H       -3.9049180     0.8972840    -0.8911940
  H       -3.9049160     0.8972760     0.8912010
  H       -3.6178680    -0.6175520    -0.0000030
  H        3.7564850    -0.0027380     0.0000010
  H        2.5404020     2.3736430     0.0000000
units angstrom
no_reorient  #important for SAPT in psi4, default
symmetry c1  #important for SAPT in psi4, default
}

set PROPERTIES_ORIGIN ["COM"]
properties('MP2/aug-cc-pvtz', properties = ['dipole'])
--------------------------------------------------------------------------

    Molecular point group: c1
  Charge       = 0
  Multiplicity = 1
  Basis Set: AUG-CC-PVTZ
    Blend: AUG-CC-PVTZ
  Basis Set: (AUG-CC-PVTZ AUX)
    Blend: AUG-CC-PVTZ-JKFIT

    Orbital Energies [Eh]
    ---------------------

    Doubly Occupied:

       1A    -92.013914     2A    -20.528378     3A    -15.595193
       4A    -15.579655     5A    -11.371647     6A    -11.318561
       7A    -11.279720     8A    -11.270693     9A    -11.264370
      10A     -9.013340    11A     -6.693895    12A     -6.693535
      13A     -6.693034    14A     -1.384004    15A     -1.326524
      16A     -1.239925    17A     -1.080115    18A     -1.043621
      19A     -0.961217    20A     -0.848090    21A     -0.816771
      22A     -0.778257    23A     -0.722998    24A     -0.672140
      25A     -0.650746    26A     -0.635106    27A     -0.607883
      28A     -0.595160    29A     -0.564391    30A     -0.551918
      31A     -0.537597    32A     -0.514730    33A     -0.452218
      34A     -0.427738    35A     -0.410277    36A     -0.396551
      37A     -0.340959

  @DF-RHF Final Energy:  -774.25910488985528

   => Energetics <=

    Nuclear Repulsion Energy =            507.0344388699583078
    One-Electron Energy =               -2068.8373536742046781
    Two-Electron Energy =                 787.5438099143912041
    Total Energy =                       -774.2591048898552799
  Basis Set: (AUG-CC-PVTZ AUX)
    Blend: AUG-CC-PVTZ-RI
    Molecular point group: c1

    Geometry (in Angstrom), charge = 0, multiplicity = 1:

       Center              X                  Y                   Z               Mass
    ------------   -----------------  -----------------  -----------------  -----------------
         S            1.491386032395    -1.046736779841     0.000000923802    31.972071174400
         O           -1.483908967605    -1.525162779841    -0.000001076198    15.994914619570
         N           -2.072945967605     0.707791220159    -0.000000076198    14.003074004430
         N            0.751239732395     1.340073620159    -0.000000876198    14.003074004430
         C            0.225761032395     0.123801220159    -0.000000076198    12.000000000000
         C           -1.193596967605    -0.322294779841    -0.000001076198    12.000000000000
         C           -3.506787967605     0.499235220159     0.000000923802    12.000000000000
         C            2.631628032395     0.229845220159    -0.000000076198    12.000000000000
         C            1.986627032395     1.448605220159    -0.000000076198    12.000000000000
         H           -1.678443967605     1.642264220159     0.000000923802     1.007825032230
         H           -3.964607967605     0.937706220159    -0.891194076198     1.007825032230
         H           -3.964605967605     0.937698220159     0.891200923802     1.007825032230
         H           -3.677557967605    -0.577129779841    -0.000003076198     1.007825032230
         H            3.696795032395     0.037684220159     0.000000923802     1.007825032230
         H            2.480712032395     2.414065220159    -0.000000076198     1.007825032230

  Basis Set: AUG-CC-PVTZ
    Blend: AUG-CC-PVTZ
  Basis Set: (AUG-CC-PVTZ AUX)
    Blend: AUG-CC-PVTZ-JKFIT
	 Reference Energy          =    -774.2591048898552799 [Eh]
	 Singles Energy            =      -0.0000000000000000 [Eh]
	 Same-Spin Energy          =      -0.4608995601389061 [Eh]
	 Opposite-Spin Energy      =      -1.3686453963834422 [Eh]
	 Correlation Energy        =      -1.8295449565223483 [Eh]
	 Total Energy              =    -776.0886498463776206 [Eh]

	 ================> DF-SCS-MP2 Energies <==================
	-----------------------------------------------------------
	 SCS Same-Spin Scale       =       0.3333333333333333 [-]
	 SCS Opposite-Spin Scale   =       1.2000000000000000 [-]
	 SCS Same-Spin Energy      =      -0.1536331867129687 [Eh]
	 SCS Opposite-Spin Energy  =      -1.6423744756601306 [Eh]
	 SCS Correlation Energy    =      -1.7960076623730994 [Eh]
	 SCS Total Energy          =    -776.0551125522283655 [Eh]
	-----------------------------------------------------------

  Dipole Moment: [D]
     X:     0.8473      Y:     2.6481      Z:     0.0000     Total:     2.7803

*** Psi4 exiting successfully. Buy a developer a beer!
