                               Psi4 1.3.2 release

  ==> Input File <==

--------------------------------------------------------------------------
#psi4
#
memory 32 gb

molecule  {
0 1
  S        1.5510760    -1.0871590     0.0000010
  O       -1.4242190    -1.5655850    -0.0000010
  N       -2.0132560     0.6673690     0.0000000
  N        0.6809160     1.3479160    -0.0000010
  C        0.1700297    -0.0553272     0.0000001
  C       -1.1339070    -0.3627170    -0.0000010
  C       -3.4470980     0.4588130     0.0000010
  C        2.6913180     0.1894230     0.0000000
  C        2.0463170     1.4081830     0.0000000
  H       -1.6187540     1.6018420     0.0000010
  H       -3.9049180     0.8972840    -0.8911940
  H       -3.9049160     0.8972760     0.8912010
  H       -3.6178680    -0.6175520    -0.0000030
  H        3.7564850    -0.0027380     0.0000010
  H        2.5404020     2.3736430     0.0000000
units angstrom
no_reorient  #important for SAPT in psi4, default
symmetry c1  #important for SAPT in psi4, default
}

set PROPERTIES_ORIGIN ["COM"]
properties('MP2/aug-cc-pvtz', properties = ['dipole'])
--------------------------------------------------------------------------

    Molecular point group: c1
  Charge       = 0
  Multiplicity = 1
  Basis Set: AUG-CC-PVTZ
    Blend: AUG-CC-PVTZ
  Basis Set: (AUG-CC-PVTZ AUX)
    Blend: AUG-CC-PVTZ-JKFIT

    Orbital Energies [Eh]
    ---------------------

    Doubly Occupied:

       1A    -92.028573     2A    -20.520473     3A    -15.608968
       4A    -15.589115     5A    -11.353810     6A    -11.324879
       7A    -11.292369     8A    -11.290921     9A    -11.261119
      10A     -9.026657    11A     -6.707236    12A     -6.706952
      13A     -6.706490    14A     -1.386595    15A     -1.259387
      16A     -1.232862    17A     -1.073885    18A     -1.055186
      19A     -0.958398    20A     -0.878763    21A     -0.788054
      22A     -0.776919    23A     -0.716055    24A     -0.660694
      25A     -0.652118    26A     -0.633997    27A     -0.596029
      28A     -0.578004    29A     -0.573932    30A     -0.549070
      31A     -0.526282    32A     -0.519269    33A     -0.446469
      34A     -0.440142    35A     -0.401627    36A     -0.388761
      37A     -0.342500

  @DF-RHF Final Energy:  -774.22343245009051

   => Energetics <=

    Nuclear Repulsion Energy =            504.5982804507078185
    One-Electron Energy =               -2063.9383060855334406
    Two-Electron Energy =                 785.1165931847351658
    Total Energy =                       -774.2234324500905132
  Basis Set: (AUG-CC-PVTZ AUX)
    Blend: AUG-CC-PVTZ-RI
    Molecular point group: c1

    Geometry (in Angstrom), charge = 0, multiplicity = 1:

       Center              X                  Y                   Z               Mass
    ------------   -----------------  -----------------  -----------------  -----------------
         S            1.513957819233    -1.039775640215     0.000000935072    31.972071174400
         O           -1.461337180767    -1.518201640215    -0.000001064928    15.994914619570
         N           -2.050374180767     0.714752359785    -0.000000064928    14.003074004430
         N            0.643797819233     1.395299359785    -0.000001064928    14.003074004430
         C            0.132911519233    -0.007943840215     0.000000035072    12.000000000000
         C           -1.171025180767    -0.315333640215    -0.000001064928    12.000000000000
         C           -3.484216180767     0.506196359785     0.000000935072    12.000000000000
         C            2.654199819233     0.236806359785    -0.000000064928    12.000000000000
         C            2.009198819233     1.455566359785    -0.000000064928    12.000000000000
         H           -1.655872180767     1.649225359785     0.000000935072     1.007825032230
         H           -3.942036180767     0.944667359785    -0.891194064928     1.007825032230
         H           -3.942034180767     0.944659359785     0.891200935072     1.007825032230
         H           -3.654986180767    -0.570168640215    -0.000003064928     1.007825032230
         H            3.719366819233     0.044645359785     0.000000935072     1.007825032230
         H            2.503283819233     2.421026359785    -0.000000064928     1.007825032230

  Basis Set: AUG-CC-PVTZ
    Blend: AUG-CC-PVTZ
  Basis Set: (AUG-CC-PVTZ AUX)
    Blend: AUG-CC-PVTZ-JKFIT
	 Reference Energy          =    -774.2234324500905132 [Eh]
	 Singles Energy            =      -0.0000000000000000 [Eh]
	 Same-Spin Energy          =      -0.4652999329783065 [Eh]
	 Opposite-Spin Energy      =      -1.3798518170339498 [Eh]
	 Correlation Energy        =      -1.8451517500122563 [Eh]
	 Total Energy              =    -776.0685842001028050 [Eh]

	 ================> DF-SCS-MP2 Energies <==================
	-----------------------------------------------------------
	 SCS Same-Spin Scale       =       0.3333333333333333 [-]
	 SCS Opposite-Spin Scale   =       1.2000000000000000 [-]
	 SCS Same-Spin Energy      =      -0.1550999776594355 [Eh]
	 SCS Opposite-Spin Energy  =      -1.6558221804407396 [Eh]
	 SCS Correlation Energy    =      -1.8109221581001751 [Eh]
	 SCS Total Energy          =    -776.0343546081907107 [Eh]
	-----------------------------------------------------------

  Dipole Moment: [D]
     X:     1.5838      Y:     2.4247      Z:     0.0000     Total:     2.8962

*** Psi4 exiting successfully. Buy a developer a beer!
