                               Psi4 1.3.2 release

  ==> Input File <==

--------------------------------------------------------------------------
#psi4
#
memory 32 gb

molecule  {
0 1
  S        1.6429034    -1.1635886     0.0000010
  O       -1.4242190    -1.5655850    -0.0000010
  N       -2.0132560     0.6673690     0.0000000
  N        0.6809160     1.3479160    -0.0000010
  C        0.2854510     0.0833790     0.0000000
  C       -1.1339070    -0.3627170    -0.0000010
  C       -3.4470980     0.4588130     0.0000010
  C        2.6913180     0.1894230     0.0000000
  C        2.0463170     1.4081830     0.0000000
  H       -1.6187540     1.6018420     0.0000010
  H       -3.9049180     0.8972840    -0.8911940
  H       -3.9049160     0.8972760     0.8912010
  H       -3.6178680    -0.6175520    -0.0000030
  H        3.7564850    -0.0027380     0.0000010
  H        2.5404020     2.3736430     0.0000000
units angstrom
no_reorient  #important for SAPT in psi4, default
symmetry c1  #important for SAPT in psi4, default
}

set PROPERTIES_ORIGIN ["COM"]
properties('MP2/aug-cc-pvtz', properties = ['dipole'])
--------------------------------------------------------------------------

    Molecular point group: c1
  Charge       = 0
  Multiplicity = 1
  Basis Set: AUG-CC-PVTZ
    Blend: AUG-CC-PVTZ
  Basis Set: (AUG-CC-PVTZ AUX)
    Blend: AUG-CC-PVTZ-JKFIT

    Orbital Energies [Eh]
    ---------------------

    Doubly Occupied:

       1A    -92.014790     2A    -20.529313     3A    -15.605388
       4A    -15.594382     5A    -11.369989     6A    -11.335269
       7A    -11.285880     8A    -11.284189     9A    -11.264145
      10A     -9.012596    11A     -6.693286    12A     -6.692508
      13A     -6.692040    14A     -1.383529    15A     -1.292705
      16A     -1.238021    17A     -1.077790    18A     -1.026863
      19A     -0.956848    20A     -0.850602    21A     -0.800770
      22A     -0.776836    23A     -0.719223    24A     -0.655936
      25A     -0.648099    26A     -0.633105    27A     -0.599887
      28A     -0.579204    29A     -0.552559    30A     -0.551902
      31A     -0.530954    32A     -0.522855    33A     -0.466346
      34A     -0.437170    35A     -0.412519    36A     -0.394619
      37A     -0.340879

  @DF-RHF Final Energy:  -774.26663942050573

   => Energetics <=

    Nuclear Repulsion Energy =            499.5829233800001248
    One-Electron Energy =               -2054.0531354538443338
    Two-Electron Energy =                 780.2035726533385969
    Total Energy =                       -774.2666394205057259
  Basis Set: (AUG-CC-PVTZ AUX)
    Blend: AUG-CC-PVTZ-RI
    Molecular point group: c1

    Geometry (in Angstrom), charge = 0, multiplicity = 1:

       Center              X                  Y                   Z               Mass
    ------------   -----------------  -----------------  -----------------  -----------------
         S            1.575360171965    -1.110719127342     0.000000943522    31.972071174400
         O           -1.491762228035    -1.512715527342    -0.000001056478    15.994914619570
         N           -2.080799228035     0.720238472658    -0.000000056478    14.003074004430
         N            0.613372771965     1.400785472658    -0.000001056478    14.003074004430
         C            0.217907771965     0.136248472658    -0.000000056478    12.000000000000
         C           -1.201450228035    -0.309847527342    -0.000001056478    12.000000000000
         C           -3.514641228035     0.511682472658     0.000000943522    12.000000000000
         C            2.623774771965     0.242292472658    -0.000000056478    12.000000000000
         C            1.978773771965     1.461052472658    -0.000000056478    12.000000000000
         H           -1.686297228035     1.654711472658     0.000000943522     1.007825032230
         H           -3.972461228035     0.950153472658    -0.891194056478     1.007825032230
         H           -3.972459228035     0.950145472658     0.891200943522     1.007825032230
         H           -3.685411228035    -0.564682527342    -0.000003056478     1.007825032230
         H            3.688941771965     0.050131472658     0.000000943522     1.007825032230
         H            2.472858771965     2.426512472658    -0.000000056478     1.007825032230

  Basis Set: AUG-CC-PVTZ
    Blend: AUG-CC-PVTZ
  Basis Set: (AUG-CC-PVTZ AUX)
    Blend: AUG-CC-PVTZ-JKFIT
	 Reference Energy          =    -774.2666394205057259 [Eh]
	 Singles Energy            =      -0.0000000000000000 [Eh]
	 Same-Spin Energy          =      -0.4586287606997909 [Eh]
	 Opposite-Spin Energy      =      -1.3712824487721158 [Eh]
	 Correlation Energy        =      -1.8299112094719066 [Eh]
	 Total Energy              =    -776.0965506299776280 [Eh]

	 ================> DF-SCS-MP2 Energies <==================
	-----------------------------------------------------------
	 SCS Same-Spin Scale       =       0.3333333333333333 [-]
	 SCS Opposite-Spin Scale   =       1.2000000000000000 [-]
	 SCS Same-Spin Energy      =      -0.1528762535665970 [Eh]
	 SCS Opposite-Spin Energy  =      -1.6455389385265389 [Eh]
	 SCS Correlation Energy    =      -1.7984151920931359 [Eh]
	 SCS Total Energy          =    -776.0650546125988285 [Eh]
	-----------------------------------------------------------

  Dipole Moment: [D]
     X:     1.0253      Y:     2.5419      Z:     0.0000     Total:     2.7409

*** Psi4 exiting successfully. Buy a developer a beer!
