                               Psi4 1.3.2 release

  ==> Input File <==

--------------------------------------------------------------------------
#psi4
#
memory 32 gb

molecule  {
0 1
  S        1.5510760    -1.0871590     0.0000010
  O       -1.4242190    -1.5655850    -0.0000010
  N       -2.0132560     0.6673690     0.0000000
  N        0.6800380     1.4433084    -0.0000010
  C        0.2854510     0.0833790     0.0000000
  C       -1.1339070    -0.3627170    -0.0000010
  C       -3.4470980     0.4588130     0.0000010
  C        2.6913180     0.1894230     0.0000000
  C        2.0463170     1.4081830     0.0000000
  H       -1.6187540     1.6018420     0.0000010
  H       -3.9049180     0.8972840    -0.8911940
  H       -3.9049160     0.8972760     0.8912010
  H       -3.6178680    -0.6175520    -0.0000030
  H        3.7564850    -0.0027380     0.0000010
  H        2.5404020     2.3736430     0.0000000
units angstrom
no_reorient  #important for SAPT in psi4, default
symmetry c1  #important for SAPT in psi4, default
}

set PROPERTIES_ORIGIN ["COM"]
properties('MP2/aug-cc-pvtz', properties = ['dipole'])
--------------------------------------------------------------------------

    Molecular point group: c1
  Charge       = 0
  Multiplicity = 1
  Basis Set: AUG-CC-PVTZ
    Blend: AUG-CC-PVTZ
  Basis Set: (AUG-CC-PVTZ AUX)
    Blend: AUG-CC-PVTZ-JKFIT

    Orbital Energies [Eh]
    ---------------------

    Doubly Occupied:

       1A    -92.022941     2A    -20.528998     3A    -15.608177
       4A    -15.593741     5A    -11.370046     6A    -11.334738
       7A    -11.286102     8A    -11.281870     9A    -11.263600
      10A     -9.021979    11A     -6.702636    12A     -6.702081
      13A     -6.701585    14A     -1.383807    15A     -1.275273
      16A     -1.237231    17A     -1.084383    18A     -1.031419
      19A     -0.957528    20A     -0.849532    21A     -0.794453
      22A     -0.777896    23A     -0.719876    24A     -0.651717
      25A     -0.645778    26A     -0.632411    27A     -0.590548
      28A     -0.577627    29A     -0.566405    30A     -0.551916
      31A     -0.531023    32A     -0.521434    33A     -0.471799
      34A     -0.441433    35A     -0.407838    36A     -0.393060
      37A     -0.343268

  @DF-RHF Final Energy:  -774.25980236912062

   => Energetics <=

    Nuclear Repulsion Energy =            502.2874425751415401
    One-Electron Energy =               -2059.3821906167586349
    Two-Electron Energy =                 782.8349456724964739
    Total Energy =                       -774.2598023691206208
  Basis Set: (AUG-CC-PVTZ AUX)
    Blend: AUG-CC-PVTZ-RI
    Molecular point group: c1

    Geometry (in Angstrom), charge = 0, multiplicity = 1:

       Center              X                  Y                   Z               Mass
    ------------   -----------------  -----------------  -----------------  -----------------
         S            1.504291856065    -1.060901252538     0.000000943522    31.972071174400
         O           -1.471003143935    -1.539327252538    -0.000001056478    15.994914619570
         N           -2.060040143935     0.693626747462    -0.000000056478    14.003074004430
         N            0.633253856065     1.469566147462    -0.000001056478    14.003074004430
         C            0.238666856065     0.109636747462    -0.000000056478    12.000000000000
         C           -1.180691143935    -0.336459252538    -0.000001056478    12.000000000000
         C           -3.493882143935     0.485070747462     0.000000943522    12.000000000000
         C            2.644533856065     0.215680747462    -0.000000056478    12.000000000000
         C            1.999532856065     1.434440747462    -0.000000056478    12.000000000000
         H           -1.665538143935     1.628099747462     0.000000943522     1.007825032230
         H           -3.951702143935     0.923541747462    -0.891194056478     1.007825032230
         H           -3.951700143935     0.923533747462     0.891200943522     1.007825032230
         H           -3.664652143935    -0.591294252538    -0.000003056478     1.007825032230
         H            3.709700856065     0.023519747462     0.000000943522     1.007825032230
         H            2.493617856065     2.399900747462    -0.000000056478     1.007825032230

  Basis Set: AUG-CC-PVTZ
    Blend: AUG-CC-PVTZ
  Basis Set: (AUG-CC-PVTZ AUX)
    Blend: AUG-CC-PVTZ-JKFIT
	 Reference Energy          =    -774.2598023691206208 [Eh]
	 Singles Energy            =      -0.0000000000000000 [Eh]
	 Same-Spin Energy          =      -0.4615432652477810 [Eh]
	 Opposite-Spin Energy      =      -1.3743926149419816 [Eh]
	 Correlation Energy        =      -1.8359358801897625 [Eh]
	 Total Energy              =    -776.0957382493103296 [Eh]

	 ================> DF-SCS-MP2 Energies <==================
	-----------------------------------------------------------
	 SCS Same-Spin Scale       =       0.3333333333333333 [-]
	 SCS Opposite-Spin Scale   =       1.2000000000000000 [-]
	 SCS Same-Spin Energy      =      -0.1538477550825937 [Eh]
	 SCS Opposite-Spin Energy  =      -1.6492711379303779 [Eh]
	 SCS Correlation Energy    =      -1.8031188930129716 [Eh]
	 SCS Total Energy          =    -776.0629212621336137 [Eh]
	-----------------------------------------------------------

  Dipole Moment: [D]
     X:     1.2680      Y:     2.1803      Z:     0.0000     Total:     2.5222

*** Psi4 exiting successfully. Buy a developer a beer!
