                               Psi4 1.3.2 release

  ==> Input File <==

--------------------------------------------------------------------------
#psi4
#
memory 32 gb

molecule  {
0 1
  S        1.5510760    -1.0871590     0.0000010
  O       -1.4242190    -1.5655850    -0.0000010
  N       -2.0132560     0.6673690     0.0000000
  N        0.6809160     1.3479160    -0.0000010
  C        0.2854510     0.0833790     0.0000000
  C       -1.1339070    -0.3627170    -0.0000010
  C       -3.4470980     0.4588130     0.0000010
  C        2.7124901     0.2008654     0.0000000
  C        2.0463170     1.4081830     0.0000000
  H       -1.6187540     1.6018420     0.0000010
  H       -3.9049180     0.8972840    -0.8911940
  H       -3.9049160     0.8972760     0.8912010
  H       -3.6178680    -0.6175520    -0.0000030
  H        3.7564850    -0.0027380     0.0000010
  H        2.5404020     2.3736430     0.0000000
units angstrom
no_reorient  #important for SAPT in psi4, default
symmetry c1  #important for SAPT in psi4, default
}

set PROPERTIES_ORIGIN ["COM"]
properties('MP2/aug-cc-pvtz', properties = ['dipole'])
--------------------------------------------------------------------------

    Molecular point group: c1
  Charge       = 0
  Multiplicity = 1
  Basis Set: AUG-CC-PVTZ
    Blend: AUG-CC-PVTZ
  Basis Set: (AUG-CC-PVTZ AUX)
    Blend: AUG-CC-PVTZ-JKFIT

    Orbital Energies [Eh]
    ---------------------

    Doubly Occupied:

       1A    -92.012206     2A    -20.529804     3A    -15.597160
       4A    -15.594400     5A    -11.369945     6A    -11.326104
       7A    -11.286097     8A    -11.282953     9A    -11.264107
      10A     -9.011714    11A     -6.692400    12A     -6.691877
      13A     -6.691278    14A     -1.384712    15A     -1.295422
      16A     -1.238360    17A     -1.077347    18A     -1.036658
      19A     -0.960671    20A     -0.848623    21A     -0.807452
      22A     -0.777790    23A     -0.719167    24A     -0.655612
      25A     -0.651802    26A     -0.633935    27A     -0.601072
      28A     -0.583842    29A     -0.570486    30A     -0.552479
      31A     -0.531981    32A     -0.513003    33A     -0.466629
      34A     -0.436840    35A     -0.407602    36A     -0.392064
      37A     -0.349867

  @DF-RHF Final Energy:  -774.27621577818741

   => Energetics <=

    Nuclear Repulsion Energy =            504.2798358495209072
    One-Electron Energy =               -2063.4251817660388042
    Two-Electron Energy =                 784.8691301383305472
    Total Energy =                       -774.2762157781874066
  Basis Set: (AUG-CC-PVTZ AUX)
    Blend: AUG-CC-PVTZ-RI
    Molecular point group: c1

    Geometry (in Angstrom), charge = 0, multiplicity = 1:

       Center              X                  Y                   Z               Mass
    ------------   -----------------  -----------------  -----------------  -----------------
         S            1.502416347394    -1.052462459919     0.000000943522    31.972071174400
         O           -1.472878652606    -1.530888459919    -0.000001056478    15.994914619570
         N           -2.061915652606     0.702065540081    -0.000000056478    14.003074004430
         N            0.632256347394     1.382612540081    -0.000001056478    14.003074004430
         C            0.236791347394     0.118075540081    -0.000000056478    12.000000000000
         C           -1.182566652606    -0.328020459919    -0.000001056478    12.000000000000
         C           -3.495757652606     0.493509540081     0.000000943522    12.000000000000
         C            2.663830447394     0.235561940081    -0.000000056478    12.000000000000
         C            1.997657347394     1.442879540081    -0.000000056478    12.000000000000
         H           -1.667413652606     1.636538540081     0.000000943522     1.007825032230
         H           -3.953577652606     0.931980540081    -0.891194056478     1.007825032230
         H           -3.953575652606     0.931972540081     0.891200943522     1.007825032230
         H           -3.666527652606    -0.582855459919    -0.000003056478     1.007825032230
         H            3.707825347394     0.031958540081     0.000000943522     1.007825032230
         H            2.491742347394     2.408339540081    -0.000000056478     1.007825032230

  Basis Set: AUG-CC-PVTZ
    Blend: AUG-CC-PVTZ
  Basis Set: (AUG-CC-PVTZ AUX)
    Blend: AUG-CC-PVTZ-JKFIT
	 Reference Energy          =    -774.2762157781874066 [Eh]
	 Singles Energy            =      -0.0000000000000000 [Eh]
	 Same-Spin Energy          =      -0.4585651413406761 [Eh]
	 Opposite-Spin Energy      =      -1.3690865886755104 [Eh]
	 Correlation Energy        =      -1.8276517300161865 [Eh]
	 Total Energy              =    -776.1038675082036207 [Eh]

	 ================> DF-SCS-MP2 Energies <==================
	-----------------------------------------------------------
	 SCS Same-Spin Scale       =       0.3333333333333333 [-]
	 SCS Opposite-Spin Scale   =       1.2000000000000000 [-]
	 SCS Same-Spin Energy      =      -0.1528550471135587 [Eh]
	 SCS Opposite-Spin Energy  =      -1.6429039064106123 [Eh]
	 SCS Correlation Energy    =      -1.7957589535241709 [Eh]
	 SCS Total Energy          =    -776.0719747317116344 [Eh]
	-----------------------------------------------------------

  Dipole Moment: [D]
     X:     1.1071      Y:     2.4689      Z:     0.0000     Total:     2.7058

*** Psi4 exiting successfully. Buy a developer a beer!
