                               Psi4 1.4a3.dev225

  ==> Input File <==

--------------------------------------------------------------------------
#psi4
#
memory 32 gb

molecule  {
0 1
  S        1.5510760    -1.0871590     0.0000010
  O       -1.4242190    -1.5655850    -0.0000010
  N       -2.0132560     0.6673690     0.0000000
  N        0.6809160     1.3479160    -0.0000010
  C        0.2854510     0.0833790     0.0000000
  C       -1.1339070    -0.3627170    -0.0000010
  C       -3.4470980     0.4588130     0.0000010
  C        2.6580101     0.1521325     0.0000000
  C        2.0463170     1.4081830     0.0000000
  H       -1.6187540     1.6018420     0.0000010
  H       -3.9049180     0.8972840    -0.8911940
  H       -3.9049160     0.8972760     0.8912010
  H       -3.6178680    -0.6175520    -0.0000030
  H        3.7564850    -0.0027380     0.0000010
  H        2.5404020     2.3736430     0.0000000
units angstrom
no_reorient  #important for SAPT in psi4, default
symmetry c1  #important for SAPT in psi4, default
}

set PROPERTIES_ORIGIN ["COM"]
properties('MP2/aug-cc-pvtz', properties = ['dipole'])
--------------------------------------------------------------------------

    Molecular point group: c1
  Charge       = 0
  Multiplicity = 1
  Basis Set: AUG-CC-PVTZ
    Blend: AUG-CC-PVTZ
  Basis Set: (AUG-CC-PVTZ AUX)
    Blend: AUG-CC-PVTZ-JKFIT

    Orbital Energies [Eh]
    ---------------------

    Doubly Occupied:

       1A    -92.014738     2A    -20.527567     3A    -15.597482
       4A    -15.592491     5A    -11.367910     6A    -11.320856
       7A    -11.285760     8A    -11.283650     9A    -11.262927
      10A     -9.015562    11A     -6.696346    12A     -6.695730
      13A     -6.695084    14A     -1.382852    15A     -1.297011
      16A     -1.236899    17A     -1.091052    18A     -1.032629
      19A     -0.957259    20A     -0.846078    21A     -0.802434
      22A     -0.776894    23A     -0.717971    24A     -0.655265
      25A     -0.647844    26A     -0.632822    27A     -0.597527
      28A     -0.585424    29A     -0.565213    30A     -0.551085
      31A     -0.532115    32A     -0.524629    33A     -0.466140
      34A     -0.436176    35A     -0.411952    36A     -0.393281
      37A     -0.342953

  @DF-RHF Final Energy:  -774.27272046423502

   => Energetics <=

    Nuclear Repulsion Energy =            505.7656929106752841
    One-Electron Energy =               -2066.3976095176240051
    Two-Electron Energy =                 786.3591961427138131
    Total Energy =                       -774.2727204642350216
  Basis Set: (AUG-CC-PVTZ AUX)
    Blend: AUG-CC-PVTZ-RI
    Molecular point group: c1

    Geometry (in Angstrom), charge = 0, multiplicity = 1:

       Center              X                  Y                   Z               Mass
    ------------   -----------------  -----------------  -----------------  -----------------
         S            1.507019639982    -1.048344769072     0.000000943522    31.972071174400
         O           -1.468275360018    -1.526770769072    -0.000001056478    15.994914619570
         N           -2.057312360018     0.706183230928    -0.000000056478    14.003074004430
         N            0.636859639982     1.386730230928    -0.000001056478    14.003074004430
         C            0.241394639982     0.122193230928    -0.000000056478    12.000000000000
         C           -1.177963360018    -0.323902769072    -0.000001056478    12.000000000000
         C           -3.491154360018     0.497627230928     0.000000943522    12.000000000000
         C            2.613953739982     0.190946730928    -0.000000056478    12.000000000000
         C            2.002260639982     1.446997230928    -0.000000056478    12.000000000000
         H           -1.662810360018     1.640656230928     0.000000943522     1.007825032230
         H           -3.948974360018     0.936098230928    -0.891194056478     1.007825032230
         H           -3.948972360018     0.936090230928     0.891200943522     1.007825032230
         H           -3.661924360018    -0.578737769072    -0.000003056478     1.007825032230
         H            3.712428639982     0.036076230928     0.000000943522     1.007825032230
         H            2.496345639982     2.412457230928    -0.000000056478     1.007825032230

  Basis Set: AUG-CC-PVTZ
    Blend: AUG-CC-PVTZ
  Basis Set: (AUG-CC-PVTZ AUX)
    Blend: AUG-CC-PVTZ-JKFIT
	 Reference Energy          =    -774.2727204642350216 [Eh]
	 Singles Energy            =      -0.0000000000000000 [Eh]
	 Same-Spin Energy          =      -0.4598202376642597 [Eh]
	 Opposite-Spin Energy      =      -1.3696021288968208 [Eh]
	 Correlation Energy        =      -1.8294223665610805 [Eh]
	 Total Energy              =    -776.1021428307960832 [Eh]

	 ================> DF-SCS-MP2 Energies <==================
	-----------------------------------------------------------
	 SCS Same-Spin Scale       =       0.3333333333333333 [-]
	 SCS Opposite-Spin Scale   =       1.2000000000000000 [-]
	 SCS Same-Spin Energy      =      -0.1532734125547532 [Eh]
	 SCS Opposite-Spin Energy  =      -1.6435225546761849 [Eh]
	 SCS Correlation Energy    =      -1.7967959672309382 [Eh]
	 SCS Total Energy          =    -776.0695164314660133 [Eh]
	-----------------------------------------------------------

  Dipole Moment: [D]
     X:     1.1626      Y:     2.4152      Z:     0.0000     Total:     2.6804

*** Psi4 exiting successfully. Buy a developer a beer!
