                               Psi4 1.3.2 release

  ==> Input File <==

--------------------------------------------------------------------------
#psi4
#
memory 32 gb

molecule  {
0 1
  S        1.5911562    -1.0422763     0.0000010
  O       -1.4242190    -1.5655850    -0.0000010
  N       -2.0132560     0.6673690     0.0000000
  N        0.6809160     1.3479160    -0.0000010
  C        0.2854510     0.0833790     0.0000000
  C       -1.1339070    -0.3627170    -0.0000010
  C       -3.4470980     0.4588130     0.0000010
  C        2.6913180     0.1894230     0.0000000
  C        2.0463170     1.4081830     0.0000000
  H       -1.6187540     1.6018420     0.0000010
  H       -3.9049180     0.8972840    -0.8911940
  H       -3.9049160     0.8972760     0.8912010
  H       -3.6178680    -0.6175520    -0.0000030
  H        3.7564850    -0.0027380     0.0000010
  H        2.5404020     2.3736430     0.0000000
units angstrom
no_reorient  #important for SAPT in psi4, default
symmetry c1  #important for SAPT in psi4, default
}

set PROPERTIES_ORIGIN ["COM"]
properties('MP2/aug-cc-pvtz', properties = ['dipole'])
--------------------------------------------------------------------------

    Molecular point group: c1
  Charge       = 0
  Multiplicity = 1
  Basis Set: AUG-CC-PVTZ
    Blend: AUG-CC-PVTZ
  Basis Set: (AUG-CC-PVTZ AUX)
    Blend: AUG-CC-PVTZ-JKFIT

    Orbital Energies [Eh]
    ---------------------

    Doubly Occupied:

       1A    -92.011205     2A    -20.528025     3A    -15.597160
       4A    -15.593316     5A    -11.369297     6A    -11.321806
       7A    -11.283506     8A    -11.278913     9A    -11.263448
      10A     -9.012634    11A     -6.693448    12A     -6.692876
      13A     -6.692189    14A     -1.383113    15A     -1.299054
      16A     -1.237684    17A     -1.094484    18A     -1.033850
      19A     -0.959231    20A     -0.848162    21A     -0.804220
      22A     -0.777826    23A     -0.723484    24A     -0.656531
      25A     -0.650846    26A     -0.633375    27A     -0.598372
      28A     -0.586838    29A     -0.572668    30A     -0.551698
      31A     -0.533466    32A     -0.519086    33A     -0.465245
      34A     -0.436139    35A     -0.411553    36A     -0.393493
      37A     -0.346065

  @DF-RHF Final Energy:  -774.27496350000035

   => Energetics <=

    Nuclear Repulsion Energy =            506.0366789209928697
    One-Electron Energy =               -2066.9146749399174041
    Two-Electron Energy =                 786.6030325189241239
    Total Energy =                       -774.2749635000003536
  Basis Set: (AUG-CC-PVTZ AUX)
    Blend: AUG-CC-PVTZ-RI
    Molecular point group: c1

    Geometry (in Angstrom), charge = 0, multiplicity = 1:

       Center              X                  Y                   Z               Mass
    ------------   -----------------  -----------------  -----------------  -----------------
         S            1.535262487406    -1.016717087840     0.000000943522    31.972071174400
         O           -1.480112712594    -1.540025787840    -0.000001056478    15.994914619570
         N           -2.069149712594     0.692928212160    -0.000000056478    14.003074004430
         N            0.625022287406     1.373475212160    -0.000001056478    14.003074004430
         C            0.229557287406     0.108938212160    -0.000000056478    12.000000000000
         C           -1.189800712594    -0.337157787840    -0.000001056478    12.000000000000
         C           -3.502991712594     0.484372212160     0.000000943522    12.000000000000
         C            2.635424287406     0.214982212160    -0.000000056478    12.000000000000
         C            1.990423287406     1.433742212160    -0.000000056478    12.000000000000
         H           -1.674647712594     1.627401212160     0.000000943522     1.007825032230
         H           -3.960811712594     0.922843212160    -0.891194056478     1.007825032230
         H           -3.960809712594     0.922835212160     0.891200943522     1.007825032230
         H           -3.673761712594    -0.591992787840    -0.000003056478     1.007825032230
         H            3.700591287406     0.022821212160     0.000000943522     1.007825032230
         H            2.484508287406     2.399202212160    -0.000000056478     1.007825032230

  Basis Set: AUG-CC-PVTZ
    Blend: AUG-CC-PVTZ
  Basis Set: (AUG-CC-PVTZ AUX)
    Blend: AUG-CC-PVTZ-JKFIT
	 Reference Energy          =    -774.2749635000003536 [Eh]
	 Singles Energy            =      -0.0000000000000000 [Eh]
	 Same-Spin Energy          =      -0.4593952937724362 [Eh]
	 Opposite-Spin Energy      =      -1.3684724653622775 [Eh]
	 Correlation Energy        =      -1.8278677591347137 [Eh]
	 Total Energy              =    -776.1028312591350868 [Eh]

	 ================> DF-SCS-MP2 Energies <==================
	-----------------------------------------------------------
	 SCS Same-Spin Scale       =       0.3333333333333333 [-]
	 SCS Opposite-Spin Scale   =       1.2000000000000000 [-]
	 SCS Same-Spin Energy      =      -0.1531317645908120 [Eh]
	 SCS Opposite-Spin Energy  =      -1.6421669584347329 [Eh]
	 SCS Correlation Energy    =      -1.7952987230255451 [Eh]
	 SCS Total Energy          =    -776.0702622230259067 [Eh]
	-----------------------------------------------------------

  Dipole Moment: [D]
     X:     1.2011      Y:     2.4535      Z:     0.0000     Total:     2.7318

*** Psi4 exiting successfully. Buy a developer a beer!
