                               Psi4 1.3.2 release

  ==> Input File <==

--------------------------------------------------------------------------
#psi4
#
memory 32 gb

molecule  {
0 1
  S        1.5510760    -1.0871590     0.0000010
  O       -1.4242190    -1.5655850    -0.0000010
  N       -2.0132560     0.6673690     0.0000000
  N        0.6820962     1.4909694    -0.0000011
  C        0.2854510     0.0833790     0.0000000
  C       -1.1339070    -0.3627170    -0.0000010
  C       -3.4470980     0.4588130     0.0000010
  C        2.6913180     0.1894230     0.0000000
  C        2.0463170     1.4081830     0.0000000
  H       -1.6187540     1.6018420     0.0000010
  H       -3.9049180     0.8972840    -0.8911940
  H       -3.9049160     0.8972760     0.8912010
  H       -3.6178680    -0.6175520    -0.0000030
  H        3.7564850    -0.0027380     0.0000010
  H        2.5404020     2.3736430     0.0000000
units angstrom
no_reorient  #important for SAPT in psi4, default
symmetry c1  #important for SAPT in psi4, default
}

set PROPERTIES_ORIGIN ["COM"]
properties('MP2/aug-cc-pvtz', properties = ['dipole'])
--------------------------------------------------------------------------

    Molecular point group: c1
  Charge       = 0
  Multiplicity = 1
  Basis Set: AUG-CC-PVTZ
    Blend: AUG-CC-PVTZ
  Basis Set: (AUG-CC-PVTZ AUX)
    Blend: AUG-CC-PVTZ-JKFIT

    Orbital Energies [Eh]
    ---------------------

    Doubly Occupied:

       1A    -92.027726     2A    -20.528930     3A    -15.613088
       4A    -15.593831     5A    -11.370331     6A    -11.339147
       7A    -11.286825     8A    -11.281346     9A    -11.263594
      10A     -9.026362    11A     -6.706987    12A     -6.706428
      13A     -6.705995    14A     -1.383708    15A     -1.266619
      16A     -1.236758    17A     -1.086639    18A     -1.028903
      19A     -0.956555    20A     -0.850431    21A     -0.789281
      22A     -0.778122    23A     -0.720392    24A     -0.651550
      25A     -0.642850    26A     -0.632043    27A     -0.585316
      28A     -0.575019    29A     -0.565757    30A     -0.551739
      31A     -0.530547    32A     -0.522926    33A     -0.474780
      34A     -0.441645    35A     -0.407894    36A     -0.393706
      37A     -0.340226

  @DF-RHF Final Energy:  -774.24689277297432

   => Energetics <=

    Nuclear Repulsion Energy =            501.0691957343681793
    One-Electron Energy =               -2056.9041840386621516
    Two-Electron Energy =                 781.5880955313197092
    Total Energy =                       -774.2468927729743200
  Basis Set: (AUG-CC-PVTZ AUX)
    Blend: AUG-CC-PVTZ-RI
    Molecular point group: c1

    Geometry (in Angstrom), charge = 0, multiplicity = 1:

       Center              X                  Y                   Z               Mass
    ------------   -----------------  -----------------  -----------------  -----------------
         S            1.504088919085    -1.065600591472     0.000000953382    31.972071174400
         O           -1.471206080915    -1.544026591472    -0.000001046618    15.994914619570
         N           -2.060243080915     0.688927408528    -0.000000046618    14.003074004430
         N            0.635109119085     1.512527808528    -0.000001146618    14.003074004430
         C            0.238463919085     0.104937408528    -0.000000046618    12.000000000000
         C           -1.180894080915    -0.341158591472    -0.000001046618    12.000000000000
         C           -3.494085080915     0.480371408528     0.000000953382    12.000000000000
         C            2.644330919085     0.210981408528    -0.000000046618    12.000000000000
         C            1.999329919085     1.429741408528    -0.000000046618    12.000000000000
         H           -1.665741080915     1.623400408528     0.000000953382     1.007825032230
         H           -3.951905080915     0.918842408528    -0.891194046618     1.007825032230
         H           -3.951903080915     0.918834408528     0.891200953382     1.007825032230
         H           -3.664855080915    -0.595993591472    -0.000003046618     1.007825032230
         H            3.709497919085     0.018820408528     0.000000953382     1.007825032230
         H            2.493414919085     2.395201408528    -0.000000046618     1.007825032230

  Basis Set: AUG-CC-PVTZ
    Blend: AUG-CC-PVTZ
  Basis Set: (AUG-CC-PVTZ AUX)
    Blend: AUG-CC-PVTZ-JKFIT
	 Reference Energy          =    -774.2468927729743200 [Eh]
	 Singles Energy            =      -0.0000000000000000 [Eh]
	 Same-Spin Energy          =      -0.4630228515909666 [Eh]
	 Opposite-Spin Energy      =      -1.3774187290309430 [Eh]
	 Correlation Energy        =      -1.8404415806219094 [Eh]
	 Total Energy              =    -776.0873343535962476 [Eh]

	 ================> DF-SCS-MP2 Energies <==================
	-----------------------------------------------------------
	 SCS Same-Spin Scale       =       0.3333333333333333 [-]
	 SCS Opposite-Spin Scale   =       1.2000000000000000 [-]
	 SCS Same-Spin Energy      =      -0.1543409505303222 [Eh]
	 SCS Opposite-Spin Energy  =      -1.6529024748371315 [Eh]
	 SCS Correlation Energy    =      -1.8072434253674536 [Eh]
	 SCS Total Energy          =    -776.0541361983417801 [Eh]
	-----------------------------------------------------------

  Dipole Moment: [D]
     X:     1.3321      Y:     2.0728      Z:     0.0000     Total:     2.4639

*** Psi4 exiting successfully. Buy a developer a beer!
