                               Psi4 1.3.2 release

  ==> Input File <==

--------------------------------------------------------------------------
#psi4
#
memory 32 gb

molecule  {
0 1
  S        1.5510760    -1.0871590     0.0000010
  O       -1.4242190    -1.5655850    -0.0000010
  N       -2.0132560     0.6673690     0.0000000
  N        0.6809160     1.3479160    -0.0000010
  C        0.2854510     0.0833790     0.0000000
  C       -1.1339070    -0.3627170    -0.0000010
  C       -3.4470980     0.4588130     0.0000010
  C        2.6913180     0.1894230     0.0000000
  C        2.0892440     1.4299508     0.0000001
  H       -1.6187540     1.6018420     0.0000010
  H       -3.9049180     0.8972840    -0.8911940
  H       -3.9049160     0.8972760     0.8912010
  H       -3.6178680    -0.6175520    -0.0000030
  H        3.7564850    -0.0027380     0.0000010
  H        2.5404020     2.3736430     0.0000000
units angstrom
no_reorient  #important for SAPT in psi4, default
symmetry c1  #important for SAPT in psi4, default
}

set PROPERTIES_ORIGIN ["COM"]
properties('MP2/aug-cc-pvtz', properties = ['dipole'])
--------------------------------------------------------------------------

    Molecular point group: c1
  Charge       = 0
  Multiplicity = 1
  Basis Set: AUG-CC-PVTZ
    Blend: AUG-CC-PVTZ
  Basis Set: (AUG-CC-PVTZ AUX)
    Blend: AUG-CC-PVTZ-JKFIT

    Orbital Energies [Eh]
    ---------------------

    Doubly Occupied:

       1A    -92.011742     2A    -20.529908     3A    -15.598771
       4A    -15.593739     5A    -11.369796     6A    -11.324700
       7A    -11.285878     8A    -11.284288     9A    -11.263720
      10A     -9.011768    11A     -6.692520    12A     -6.691931
      13A     -6.691276    14A     -1.384558    15A     -1.285264
      16A     -1.237322    17A     -1.077979    18A     -1.035405
      19A     -0.961030    20A     -0.848896    21A     -0.806214
      22A     -0.777781    23A     -0.714925    24A     -0.659865
      25A     -0.650423    26A     -0.633274    27A     -0.599052
      28A     -0.580977    29A     -0.565548    30A     -0.552111
      31A     -0.530470    32A     -0.525179    33A     -0.464580
      34A     -0.434957    35A     -0.406941    36A     -0.390719
      37A     -0.351212

  @DF-RHF Final Energy:  -774.27357668375464

   => Energetics <=

    Nuclear Repulsion Energy =            503.7931338230871461
    One-Electron Energy =               -2062.4839860522301933
    Two-Electron Energy =                 784.4172755453884065
    Total Energy =                       -774.2735766837546407
  Basis Set: (AUG-CC-PVTZ AUX)
    Blend: AUG-CC-PVTZ-RI
    Molecular point group: c1

    Geometry (in Angstrom), charge = 0, multiplicity = 1:

       Center              X                  Y                   Z               Mass
    ------------   -----------------  -----------------  -----------------  -----------------
         S            1.500578165127    -1.053334905537     0.000000935072    31.972071174400
         O           -1.474716834873    -1.531760905537    -0.000001064928    15.994914619570
         N           -2.063753834873     0.701193094463    -0.000000064928    14.003074004430
         N            0.630418165127     1.381740094463    -0.000001064928    14.003074004430
         C            0.234953165127     0.117203094463    -0.000000064928    12.000000000000
         C           -1.184404834873    -0.328892905537    -0.000001064928    12.000000000000
         C           -3.497595834873     0.492637094463     0.000000935072    12.000000000000
         C            2.640820165127     0.223247094463    -0.000000064928    12.000000000000
         C            2.038746165127     1.463774894463     0.000000035072    12.000000000000
         H           -1.669251834873     1.635666094463     0.000000935072     1.007825032230
         H           -3.955415834873     0.931108094463    -0.891194064928     1.007825032230
         H           -3.955413834873     0.931100094463     0.891200935072     1.007825032230
         H           -3.668365834873    -0.583727905537    -0.000003064928     1.007825032230
         H            3.705987165127     0.031086094463     0.000000935072     1.007825032230
         H            2.489904165127     2.407467094463    -0.000000064928     1.007825032230

  Basis Set: AUG-CC-PVTZ
    Blend: AUG-CC-PVTZ
  Basis Set: (AUG-CC-PVTZ AUX)
    Blend: AUG-CC-PVTZ-JKFIT
	 Reference Energy          =    -774.2735766837546407 [Eh]
	 Singles Energy            =      -0.0000000000000000 [Eh]
	 Same-Spin Energy          =      -0.4582349633070835 [Eh]
	 Opposite-Spin Energy      =      -1.3693732722171061 [Eh]
	 Correlation Energy        =      -1.8276082355241896 [Eh]
	 Total Energy              =    -776.1011849192788077 [Eh]

	 ================> DF-SCS-MP2 Energies <==================
	-----------------------------------------------------------
	 SCS Same-Spin Scale       =       0.3333333333333333 [-]
	 SCS Opposite-Spin Scale   =       1.2000000000000000 [-]
	 SCS Same-Spin Energy      =      -0.1527449877690278 [Eh]
	 SCS Opposite-Spin Energy  =      -1.6432479266605273 [Eh]
	 SCS Correlation Energy    =      -1.7959929144295552 [Eh]
	 SCS Total Energy          =    -776.0695695981842164 [Eh]
	-----------------------------------------------------------

  Dipole Moment: [D]
     X:     1.1032      Y:     2.4743      Z:     0.0000     Total:     2.7091

*** Psi4 exiting successfully. Buy a developer a beer!
