                               Psi4 1.3.2 release

  ==> Input File <==

--------------------------------------------------------------------------
#psi4
#
memory 32 gb

molecule  {
0 1
  S        1.4238832    -0.9609780     0.0000007
  O       -1.4242190    -1.5655850    -0.0000010
  N       -2.0132560     0.6673690     0.0000000
  N        0.6809160     1.3479160    -0.0000010
  C        0.2854510     0.0833790     0.0000000
  C       -1.1339070    -0.3627170    -0.0000010
  C       -3.4470980     0.4588130     0.0000010
  C        2.6913180     0.1894230     0.0000000
  C        2.0463170     1.4081830     0.0000000
  H       -1.6187540     1.6018420     0.0000010
  H       -3.9049180     0.8972840    -0.8911940
  H       -3.9049160     0.8972760     0.8912010
  H       -3.6178680    -0.6175520    -0.0000030
  H        3.7564850    -0.0027380     0.0000010
  H        2.5404020     2.3736430     0.0000000
units angstrom
no_reorient  #important for SAPT in psi4, default
symmetry c1  #important for SAPT in psi4, default
}

set PROPERTIES_ORIGIN ["COM"]
properties('MP2/aug-cc-pvtz', properties = ['dipole'])
--------------------------------------------------------------------------

    Molecular point group: c1
  Charge       = 0
  Multiplicity = 1
  Basis Set: AUG-CC-PVTZ
    Blend: AUG-CC-PVTZ
  Basis Set: (AUG-CC-PVTZ AUX)
    Blend: AUG-CC-PVTZ-JKFIT

    Orbital Energies [Eh]
    ---------------------

    Doubly Occupied:

       1A    -92.006364     2A    -20.529540     3A    -15.593973
       4A    -15.583451     5A    -11.370012     6A    -11.305338
       7A    -11.286069     8A    -11.277903     9A    -11.263755
      10A     -9.011975    11A     -6.693263    12A     -6.691929
      13A     -6.691307    14A     -1.386434    15A     -1.308763
      16A     -1.238831    17A     -1.093661    18A     -1.049981
      19A     -0.964424    20A     -0.845713    21A     -0.812629
      22A     -0.778149    23A     -0.717013    24A     -0.660504
      25A     -0.652652    26A     -0.636919    27A     -0.601176
      28A     -0.596797    29A     -0.586902    30A     -0.552097
      31A     -0.534587    32A     -0.506507    33A     -0.462847
      34A     -0.434002    35A     -0.404848    36A     -0.389257
      37A     -0.360874

  @DF-RHF Final Energy:  -774.25702888364219

   => Energetics <=

    Nuclear Repulsion Energy =            513.5395543150019648
    One-Electron Energy =               -2081.8322739534414723
    Two-Electron Energy =                 794.0356907547972014
    Total Energy =                       -774.2570288836421923
  Basis Set: (AUG-CC-PVTZ AUX)
    Blend: AUG-CC-PVTZ-RI
    Molecular point group: c1

    Geometry (in Angstrom), charge = 0, multiplicity = 1:

       Center              X                  Y                   Z               Mass
    ------------   -----------------  -----------------  -----------------  -----------------
         S            1.405646585692    -0.953720953005     0.000000711059    31.972071174400
         O           -1.442455614308    -1.558327953005    -0.000000988941    15.994914619570
         N           -2.031492614308     0.674626046995     0.000000011059    14.003074004430
         N            0.662679385692     1.355173046995    -0.000000988941    14.003074004430
         C            0.267214385692     0.090636046995     0.000000011059    12.000000000000
         C           -1.152143614308    -0.355459953005    -0.000000988941    12.000000000000
         C           -3.465334614308     0.466070046995     0.000001011059    12.000000000000
         C            2.673081385692     0.196680046995     0.000000011059    12.000000000000
         C            2.028080385692     1.415440046995     0.000000011059    12.000000000000
         H           -1.636990614308     1.609099046995     0.000001011059     1.007825032230
         H           -3.923154614308     0.904541046995    -0.891193988941     1.007825032230
         H           -3.923152614308     0.904533046995     0.891201011059     1.007825032230
         H           -3.636104614308    -0.610294953005    -0.000002988941     1.007825032230
         H            3.738248385692     0.004519046995     0.000001011059     1.007825032230
         H            2.522165385692     2.380900046995     0.000000011059     1.007825032230

  Basis Set: AUG-CC-PVTZ
    Blend: AUG-CC-PVTZ
  Basis Set: (AUG-CC-PVTZ AUX)
    Blend: AUG-CC-PVTZ-JKFIT
	 Reference Energy          =    -774.2570288836421923 [Eh]
	 Singles Energy            =      -0.0000000000000000 [Eh]
	 Same-Spin Energy          =      -0.4600809318448214 [Eh]
	 Opposite-Spin Energy      =      -1.3675370469369488 [Eh]
	 Correlation Energy        =      -1.8276179787817701 [Eh]
	 Total Energy              =    -776.0846468624239378 [Eh]

	 ================> DF-SCS-MP2 Energies <==================
	-----------------------------------------------------------
	 SCS Same-Spin Scale       =       0.3333333333333333 [-]
	 SCS Opposite-Spin Scale   =       1.2000000000000000 [-]
	 SCS Same-Spin Energy      =      -0.1533603106149404 [Eh]
	 SCS Opposite-Spin Energy  =      -1.6410444563243385 [Eh]
	 SCS Correlation Energy    =      -1.7944047669392789 [Eh]
	 SCS Total Energy          =    -776.0514336505814299 [Eh]
	-----------------------------------------------------------

  Dipole Moment: [D]
     X:     1.1427      Y:     2.4007      Z:     0.0000     Total:     2.6588

*** Psi4 exiting successfully. Buy a developer a beer!
