                               Psi4 1.3.2 release

  ==> Input File <==

--------------------------------------------------------------------------
#psi4
#
memory 32 gb

molecule  {
0 1
  S        1.5510760    -1.0871590     0.0000010
  O       -1.4242190    -1.5655850    -0.0000010
  N       -2.0132560     0.6673690     0.0000000
  N        0.6809160     1.3479160    -0.0000010
  C        0.2257551    -0.1075042     0.0000002
  C       -1.1339070    -0.3627170    -0.0000010
  C       -3.4470980     0.4588130     0.0000010
  C        2.6913180     0.1894230     0.0000000
  C        2.0463170     1.4081830     0.0000000
  H       -1.6187540     1.6018420     0.0000010
  H       -3.9049180     0.8972840    -0.8911940
  H       -3.9049160     0.8972760     0.8912010
  H       -3.6178680    -0.6175520    -0.0000030
  H        3.7564850    -0.0027380     0.0000010
  H        2.5404020     2.3736430     0.0000000
units angstrom
no_reorient  #important for SAPT in psi4, default
symmetry c1  #important for SAPT in psi4, default
}

set PROPERTIES_ORIGIN ["COM"]
properties('MP2/aug-cc-pvtz', properties = ['dipole'])
--------------------------------------------------------------------------

    Molecular point group: c1
  Charge       = 0
  Multiplicity = 1
  Basis Set: AUG-CC-PVTZ
    Blend: AUG-CC-PVTZ
  Basis Set: (AUG-CC-PVTZ AUX)
    Blend: AUG-CC-PVTZ-JKFIT

    Orbital Energies [Eh]
    ---------------------

    Doubly Occupied:

       1A    -92.031757     2A    -20.520256     3A    -15.603140
       4A    -15.590588     5A    -11.358670     6A    -11.324051
       7A    -11.290434     8A    -11.285197     9A    -11.262059
      10A     -9.031221    11A     -6.711993    12A     -6.711492
      13A     -6.711059    14A     -1.385679    15A     -1.256522
      16A     -1.233082    17A     -1.082570    18A     -1.045040
      19A     -0.958644    20A     -0.871046    21A     -0.787446
      22A     -0.776905    23A     -0.715696    24A     -0.657401
      25A     -0.651171    26A     -0.632810    27A     -0.591881
      28A     -0.578627    29A     -0.576381    30A     -0.549586
      31A     -0.527132    32A     -0.521864    33A     -0.449161
      34A     -0.436113    35A     -0.402906    36A     -0.389978
      37A     -0.340998

  @DF-RHF Final Energy:  -774.22464608575933

   => Energetics <=

    Nuclear Repulsion Energy =            504.9228078546018423
    One-Electron Energy =               -2064.5937941647553089
    Two-Electron Energy =                 785.4463402243941346
    Total Energy =                       -774.2246460857593320
  Basis Set: (AUG-CC-PVTZ AUX)
    Blend: AUG-CC-PVTZ-RI
    Molecular point group: c1

    Geometry (in Angstrom), charge = 0, multiplicity = 1:

       Center              X                  Y                   Z               Mass
    ------------   -----------------  -----------------  -----------------  -----------------
         S            1.509249296458    -1.035366939823     0.000000926623    31.972071174400
         O           -1.466045703542    -1.513792939823    -0.000001073377    15.994914619570
         N           -2.055082703542     0.719161060177    -0.000000073377    14.003074004430
         N            0.639089296458     1.399708060177    -0.000001073377    14.003074004430
         C            0.183928396458    -0.055712139823     0.000000126623    12.000000000000
         C           -1.175733703542    -0.310924939823    -0.000001073377    12.000000000000
         C           -3.488924703542     0.510605060177     0.000000926623    12.000000000000
         C            2.649491296458     0.241215060177    -0.000000073377    12.000000000000
         C            2.004490296458     1.459975060177    -0.000000073377    12.000000000000
         H           -1.660580703542     1.653634060177     0.000000926623     1.007825032230
         H           -3.946744703542     0.949076060177    -0.891194073377     1.007825032230
         H           -3.946742703542     0.949068060177     0.891200926623     1.007825032230
         H           -3.659694703542    -0.565759939823    -0.000003073377     1.007825032230
         H            3.714658296458     0.049054060177     0.000000926623     1.007825032230
         H            2.498575296458     2.425435060177    -0.000000073377     1.007825032230

  Basis Set: AUG-CC-PVTZ
    Blend: AUG-CC-PVTZ
  Basis Set: (AUG-CC-PVTZ AUX)
    Blend: AUG-CC-PVTZ-JKFIT
	 Reference Energy          =    -774.2246460857593320 [Eh]
	 Singles Energy            =      -0.0000000000000000 [Eh]
	 Same-Spin Energy          =      -0.4651062113625495 [Eh]
	 Opposite-Spin Energy      =      -1.3792177678321909 [Eh]
	 Correlation Energy        =      -1.8443239791947403 [Eh]
	 Total Energy              =    -776.0689700649541010 [Eh]

	 ================> DF-SCS-MP2 Energies <==================
	-----------------------------------------------------------
	 SCS Same-Spin Scale       =       0.3333333333333333 [-]
	 SCS Opposite-Spin Scale   =       1.2000000000000000 [-]
	 SCS Same-Spin Energy      =      -0.1550354037875165 [Eh]
	 SCS Opposite-Spin Energy  =      -1.6550613213986289 [Eh]
	 SCS Correlation Energy    =      -1.8100967251861455 [Eh]
	 SCS Total Energy          =    -776.0347428109454313 [Eh]
	-----------------------------------------------------------

  Dipole Moment: [D]
     X:     1.6215      Y:     2.3472      Z:     0.0000     Total:     2.8528

*** Psi4 exiting successfully. Buy a developer a beer!
