                               Psi4 1.3.2 release

  ==> Input File <==

--------------------------------------------------------------------------
#psi4
#
memory 32 gb

molecule  {
0 1
  S        1.5963227    -1.1261752     0.0000011
  O       -1.4242190    -1.5655850    -0.0000010
  N       -2.0132560     0.6673690     0.0000000
  N        0.6809160     1.3479160    -0.0000010
  C        0.2854510     0.0833790     0.0000000
  C       -1.1339070    -0.3627170    -0.0000010
  C       -3.4470980     0.4588130     0.0000010
  C        2.6913180     0.1894230     0.0000000
  C        2.0463170     1.4081830     0.0000000
  H       -1.6187540     1.6018420     0.0000010
  H       -3.9049180     0.8972840    -0.8911940
  H       -3.9049160     0.8972760     0.8912010
  H       -3.6178680    -0.6175520    -0.0000030
  H        3.7564850    -0.0027380     0.0000010
  H        2.5404020     2.3736430     0.0000000
units angstrom
no_reorient  #important for SAPT in psi4, default
symmetry c1  #important for SAPT in psi4, default
}

set PROPERTIES_ORIGIN ["COM"]
properties('MP2/aug-cc-pvtz', properties = ['dipole'])
--------------------------------------------------------------------------

    Molecular point group: c1
  Charge       = 0
  Multiplicity = 1
  Basis Set: AUG-CC-PVTZ
    Blend: AUG-CC-PVTZ
  Basis Set: (AUG-CC-PVTZ AUX)
    Blend: AUG-CC-PVTZ-JKFIT

    Orbital Energies [Eh]
    ---------------------

    Doubly Occupied:

       1A    -92.014004     2A    -20.529219     3A    -15.601303
       4A    -15.594037     5A    -11.369553     6A    -11.330108
       7A    -11.285185     8A    -11.283771     9A    -11.263909
      10A     -9.012726    11A     -6.693420    12A     -6.692773
      13A     -6.692237    14A     -1.383788    15A     -1.294055
      16A     -1.237914    17A     -1.079193    18A     -1.031130
      19A     -0.958313    20A     -0.849263    21A     -0.802745
      22A     -0.777273    23A     -0.718991    24A     -0.655628
      25A     -0.649141    26A     -0.633240    27A     -0.599631
      28A     -0.581538    29A     -0.559984    30A     -0.552236
      31A     -0.531514    32A     -0.520607    33A     -0.466714
      34A     -0.437043    35A     -0.410486    36A     -0.393642
      37A     -0.344520

  @DF-RHF Final Energy:  -774.27314240323869

   => Energetics <=

    Nuclear Repulsion Energy =            502.1526681041042366
    One-Electron Energy =               -2059.1899530979903830
    Two-Electron Energy =                 782.7641425906475661
    Total Energy =                       -774.2731424032386940
  Basis Set: (AUG-CC-PVTZ AUX)
    Blend: AUG-CC-PVTZ-RI
    Molecular point group: c1

    Geometry (in Angstrom), charge = 0, multiplicity = 1:

       Center              X                  Y                   Z               Mass
    ------------   -----------------  -----------------  -----------------  -----------------
         S            1.539265886378    -1.081728366268     0.000001021009    31.972071174400
         O           -1.481275813622    -1.521138166268    -0.000001078991    15.994914619570
         N           -2.070312813622     0.711815833732    -0.000000078991    14.003074004430
         N            0.623859186378     1.392362833732    -0.000001078991    14.003074004430
         C            0.228394186378     0.127825833732    -0.000000078991    12.000000000000
         C           -1.190963813622    -0.318270166268    -0.000001078991    12.000000000000
         C           -3.504154813622     0.503259833732     0.000000921009    12.000000000000
         C            2.634261186378     0.233869833732    -0.000000078991    12.000000000000
         C            1.989260186378     1.452629833732    -0.000000078991    12.000000000000
         H           -1.675810813622     1.646288833732     0.000000921009     1.007825032230
         H           -3.961974813622     0.941730833732    -0.891194078991     1.007825032230
         H           -3.961972813622     0.941722833732     0.891200921009     1.007825032230
         H           -3.674924813622    -0.573105166268    -0.000003078991     1.007825032230
         H            3.699428186378     0.041708833732     0.000000921009     1.007825032230
         H            2.483345186378     2.418089833732    -0.000000078991     1.007825032230

  Basis Set: AUG-CC-PVTZ
    Blend: AUG-CC-PVTZ
  Basis Set: (AUG-CC-PVTZ AUX)
    Blend: AUG-CC-PVTZ-JKFIT
	 Reference Energy          =    -774.2731424032386940 [Eh]
	 Singles Energy            =      -0.0000000000000000 [Eh]
	 Same-Spin Energy          =      -0.4586696782604095 [Eh]
	 Opposite-Spin Energy      =      -1.3700646588496999 [Eh]
	 Correlation Energy        =      -1.8287343371101095 [Eh]
	 Total Energy              =    -776.1018767403487573 [Eh]

	 ================> DF-SCS-MP2 Energies <==================
	-----------------------------------------------------------
	 SCS Same-Spin Scale       =       0.3333333333333333 [-]
	 SCS Opposite-Spin Scale   =       1.2000000000000000 [-]
	 SCS Same-Spin Energy      =      -0.1528898927534698 [Eh]
	 SCS Opposite-Spin Energy  =      -1.6440775906196399 [Eh]
	 SCS Correlation Energy    =      -1.7969674833731097 [Eh]
	 SCS Total Energy          =    -776.0701098866118173 [Eh]
	-----------------------------------------------------------

  Dipole Moment: [D]
     X:     1.0813      Y:     2.4906      Z:     0.0000     Total:     2.7152

*** Psi4 exiting successfully. Buy a developer a beer!
