                               Psi4 1.3.2 release

  ==> Input File <==

--------------------------------------------------------------------------
#psi4
#
memory 32 gb

molecule  {
0 1
  S        1.5510760    -1.0871590     0.0000010
  O       -1.3396040    -1.5829060    -0.0000009
  N       -2.0132560     0.6673690     0.0000000
  N        0.6809160     1.3479160    -0.0000010
  C        0.2854510     0.0833790     0.0000000
  C       -1.1339070    -0.3627170    -0.0000010
  C       -3.4470980     0.4588130     0.0000010
  C        2.6913180     0.1894230     0.0000000
  C        2.0463170     1.4081830     0.0000000
  H       -1.6187540     1.6018420     0.0000010
  H       -3.9049180     0.8972840    -0.8911940
  H       -3.9049160     0.8972760     0.8912010
  H       -3.6178680    -0.6175520    -0.0000030
  H        3.7564850    -0.0027380     0.0000010
  H        2.5404020     2.3736430     0.0000000
units angstrom
no_reorient  #important for SAPT in psi4, default
symmetry c1  #important for SAPT in psi4, default
}

set PROPERTIES_ORIGIN ["COM"]
properties('MP2/aug-cc-pvtz', properties = ['dipole'])
--------------------------------------------------------------------------

    Molecular point group: c1
  Charge       = 0
  Multiplicity = 1
  Basis Set: AUG-CC-PVTZ
    Blend: AUG-CC-PVTZ
  Basis Set: (AUG-CC-PVTZ AUX)
    Blend: AUG-CC-PVTZ-JKFIT

    Orbital Energies [Eh]
    ---------------------

    Doubly Occupied:

       1A    -92.009924     2A    -20.531279     3A    -15.598294
       4A    -15.593954     5A    -11.370481     6A    -11.320710
       7A    -11.282526     8A    -11.279859     9A    -11.267255
      10A     -9.009797    11A     -6.690498    12A     -6.689968
      13A     -6.689338    14A     -1.385249    15A     -1.293426
      16A     -1.243278    17A     -1.078460    18A     -1.033207
      19A     -0.961625    20A     -0.847241    21A     -0.802428
      22A     -0.780401    23A     -0.716544    24A     -0.655638
      25A     -0.651918    26A     -0.635717    27A     -0.599028
      28A     -0.584071    29A     -0.566133    30A     -0.556431
      31A     -0.532626    32A     -0.515359    33A     -0.464277
      34A     -0.436167    35A     -0.409241    36A     -0.393342
      37A     -0.345679

  @DF-RHF Final Energy:  -774.27529474166886

   => Energetics <=

    Nuclear Repulsion Energy =            505.3686698569598548
    One-Electron Energy =               -2065.6451946077327193
    Two-Electron Energy =                 786.0012300091038924
    Total Energy =                       -774.2752947416688585
  Basis Set: (AUG-CC-PVTZ AUX)
    Blend: AUG-CC-PVTZ-RI
    Molecular point group: c1

    Geometry (in Angstrom), charge = 0, multiplicity = 1:

       Center              X                  Y                   Z               Mass
    ------------   -----------------  -----------------  -----------------  -----------------
         S            1.494675579542    -1.049544867530     0.000000932259    31.972071174400
         O           -1.396004420458    -1.545291867530    -0.000000967741    15.994914619570
         N           -2.069656420458     0.704983132470    -0.000000067741    14.003074004430
         N            0.624515579542     1.385530132470    -0.000001067741    14.003074004430
         C            0.229050579542     0.120993132470    -0.000000067741    12.000000000000
         C           -1.190307420458    -0.325102867530    -0.000001067741    12.000000000000
         C           -3.503498420458     0.496427132470     0.000000932259    12.000000000000
         C            2.634917579542     0.227037132470    -0.000000067741    12.000000000000
         C            1.989916579542     1.445797132470    -0.000000067741    12.000000000000
         H           -1.675154420458     1.639456132470     0.000000932259     1.007825032230
         H           -3.961318420458     0.934898132470    -0.891194067741     1.007825032230
         H           -3.961316420458     0.934890132470     0.891200932259     1.007825032230
         H           -3.674268420458    -0.579937867530    -0.000003067741     1.007825032230
         H            3.700084579542     0.034876132470     0.000000932259     1.007825032230
         H            2.484001579542     2.411257132470    -0.000000067741     1.007825032230

  Basis Set: AUG-CC-PVTZ
    Blend: AUG-CC-PVTZ
  Basis Set: (AUG-CC-PVTZ AUX)
    Blend: AUG-CC-PVTZ-JKFIT
	 Reference Energy          =    -774.2752947416688585 [Eh]
	 Singles Energy            =      -0.0000000000000000 [Eh]
	 Same-Spin Energy          =      -0.4587410738618486 [Eh]
	 Opposite-Spin Energy      =      -1.3690684790296459 [Eh]
	 Correlation Energy        =      -1.8278095528914946 [Eh]
	 Total Energy              =    -776.1031042945603531 [Eh]

	 ================> DF-SCS-MP2 Energies <==================
	-----------------------------------------------------------
	 SCS Same-Spin Scale       =       0.3333333333333333 [-]
	 SCS Opposite-Spin Scale   =       1.2000000000000000 [-]
	 SCS Same-Spin Energy      =      -0.1529136912872829 [Eh]
	 SCS Opposite-Spin Energy  =      -1.6428821748355751 [Eh]
	 SCS Correlation Energy    =      -1.7957958661228579 [Eh]
	 SCS Total Energy          =    -776.0710906077916889 [Eh]
	-----------------------------------------------------------

  Dipole Moment: [D]
     X:     0.7870      Y:     2.4617      Z:     0.0000     Total:     2.5845

*** Psi4 exiting successfully. Buy a developer a beer!
