                               Psi4 1.4a3.dev225

  ==> Input File <==

--------------------------------------------------------------------------
#psi4
#
memory 32 gb

molecule  {
0 1
  S        1.5510760    -1.0871590     0.0000010
  O       -1.4242190    -1.5655850    -0.0000010
  N       -2.0132560     0.6673690     0.0000000
  N        0.6809160     1.3479160    -0.0000010
  C        0.3001339     0.0697992     0.0000000
  C       -1.1339070    -0.3627170    -0.0000010
  C       -3.4470980     0.4588130     0.0000010
  C        2.6913180     0.1894230     0.0000000
  C        2.0463170     1.4081830     0.0000000
  H       -1.6187540     1.6018420     0.0000010
  H       -3.9049180     0.8972840    -0.8911940
  H       -3.9049160     0.8972760     0.8912010
  H       -3.6178680    -0.6175520    -0.0000030
  H        3.7564850    -0.0027380     0.0000010
  H        2.5404020     2.3736430     0.0000000
units angstrom
no_reorient  #important for SAPT in psi4, default
symmetry c1  #important for SAPT in psi4, default
}

set PROPERTIES_ORIGIN ["COM"]
properties('MP2/aug-cc-pvtz', properties = ['dipole'])
--------------------------------------------------------------------------

    Molecular point group: c1
  Charge       = 0
  Multiplicity = 1
  Basis Set: AUG-CC-PVTZ
    Blend: AUG-CC-PVTZ
  Basis Set: (AUG-CC-PVTZ AUX)
    Blend: AUG-CC-PVTZ-JKFIT

    Orbital Energies [Eh]
    ---------------------

    Doubly Occupied:

       1A    -92.014239     2A    -20.528503     3A    -15.596326
       4A    -15.593645     5A    -11.369401     6A    -11.324114
       7A    -11.285079     8A    -11.281647     9A    -11.263674
      10A     -9.014457    11A     -6.695180    12A     -6.694647
      13A     -6.694004    14A     -1.383519    15A     -1.294582
      16A     -1.237388    17A     -1.082728    18A     -1.035217
      19A     -0.959573    20A     -0.845942    21A     -0.804024
      22A     -0.777317    23A     -0.718982    24A     -0.654552
      25A     -0.649947    26A     -0.633035    27A     -0.597564
      28A     -0.584350    29A     -0.569005    30A     -0.551873
      31A     -0.532015    32A     -0.518807    33A     -0.467091
      34A     -0.436813    35A     -0.407940    36A     -0.392224
      37A     -0.349009

  @DF-RHF Final Energy:  -774.27598819786363

   => Energetics <=

    Nuclear Repulsion Energy =            504.9285335397768790
    One-Electron Energy =               -2064.7322154799712735
    Two-Electron Energy =                 785.5276937423307118
    Total Energy =                       -774.2759881978636258
  Basis Set: (AUG-CC-PVTZ AUX)
    Blend: AUG-CC-PVTZ-RI
    Molecular point group: c1

    Geometry (in Angstrom), charge = 0, multiplicity = 1:

       Center              X                  Y                   Z               Mass
    ------------   -----------------  -----------------  -----------------  -----------------
         S            1.502964652942    -1.050348206839     0.000000943522    31.972071174400
         O           -1.472330347058    -1.528774206839    -0.000001056478    15.994914619570
         N           -2.061367347058     0.704179793161    -0.000000056478    14.003074004430
         N            0.632804652942     1.384726793161    -0.000001056478    14.003074004430
         C            0.252022552942     0.106609993161    -0.000000056478    12.000000000000
         C           -1.182018347058    -0.325906206839    -0.000001056478    12.000000000000
         C           -3.495209347058     0.495623793161     0.000000943522    12.000000000000
         C            2.643206652942     0.226233793161    -0.000000056478    12.000000000000
         C            1.998205652942     1.444993793161    -0.000000056478    12.000000000000
         H           -1.666865347058     1.638652793161     0.000000943522     1.007825032230
         H           -3.953029347058     0.934094793161    -0.891194056478     1.007825032230
         H           -3.953027347058     0.934086793161     0.891200943522     1.007825032230
         H           -3.665979347058    -0.580741206839    -0.000003056478     1.007825032230
         H            3.708373652942     0.034072793161     0.000000943522     1.007825032230
         H            2.492290652942     2.410453793161    -0.000000056478     1.007825032230

  Basis Set: AUG-CC-PVTZ
    Blend: AUG-CC-PVTZ
  Basis Set: (AUG-CC-PVTZ AUX)
    Blend: AUG-CC-PVTZ-JKFIT
	 Reference Energy          =    -774.2759881978636258 [Eh]
	 Singles Energy            =      -0.0000000000000000 [Eh]
	 Same-Spin Energy          =      -0.4589377174736878 [Eh]
	 Opposite-Spin Energy      =      -1.3691077242124547 [Eh]
	 Correlation Energy        =      -1.8280454416861427 [Eh]
	 Total Energy              =    -776.1040336395498116 [Eh]

	 ================> DF-SCS-MP2 Energies <==================
	-----------------------------------------------------------
	 SCS Same-Spin Scale       =       0.3333333333333333 [-]
	 SCS Opposite-Spin Scale   =       1.2000000000000000 [-]
	 SCS Same-Spin Energy      =      -0.1529792391578959 [Eh]
	 SCS Opposite-Spin Energy  =      -1.6429292690549457 [Eh]
	 SCS Correlation Energy    =      -1.7959085082128416 [Eh]
	 SCS Total Energy          =    -776.0718967060764726 [Eh]
	-----------------------------------------------------------

  Dipole Moment: [D]
     X:     1.1575      Y:     2.4042      Z:     0.0000     Total:     2.6683

*** Psi4 exiting successfully. Buy a developer a beer!
