                               Psi4 1.3.2 release

  ==> Input File <==

--------------------------------------------------------------------------
#psi4
#
memory 32 gb

molecule  {
0 1
  S        1.5510760    -1.0871590     0.0000010
  O       -1.4242190    -1.5655850    -0.0000010
  N       -2.0132560     0.6673690     0.0000000
  N        0.6587866     1.3546252    -0.0000010
  C        0.2854510     0.0833790     0.0000000
  C       -1.1339070    -0.3627170    -0.0000010
  C       -3.4470980     0.4588130     0.0000010
  C        2.6913180     0.1894230     0.0000000
  C        2.0463170     1.4081830     0.0000000
  H       -1.6187540     1.6018420     0.0000010
  H       -3.9049180     0.8972840    -0.8911940
  H       -3.9049160     0.8972760     0.8912010
  H       -3.6178680    -0.6175520    -0.0000030
  H        3.7564850    -0.0027380     0.0000010
  H        2.5404020     2.3736430     0.0000000
units angstrom
no_reorient  #important for SAPT in psi4, default
symmetry c1  #important for SAPT in psi4, default
}

set PROPERTIES_ORIGIN ["COM"]
properties('MP2/aug-cc-pvtz', properties = ['dipole'])
--------------------------------------------------------------------------

    Molecular point group: c1
  Charge       = 0
  Multiplicity = 1
  Basis Set: AUG-CC-PVTZ
    Blend: AUG-CC-PVTZ
  Basis Set: (AUG-CC-PVTZ AUX)
    Blend: AUG-CC-PVTZ-JKFIT

    Orbital Energies [Eh]
    ---------------------

    Doubly Occupied:

       1A    -92.012718     2A    -20.529183     3A    -15.599703
       4A    -15.593421     5A    -11.368815     6A    -11.325427
       7A    -11.287293     8A    -11.283451     9A    -11.263555
      10A     -9.012692    11A     -6.693418    12A     -6.692863
      13A     -6.692216    14A     -1.384123    15A     -1.292106
      16A     -1.237363    17A     -1.082213    18A     -1.034013
      19A     -0.959580    20A     -0.847992    21A     -0.803499
      22A     -0.777320    23A     -0.717725    24A     -0.653814
      25A     -0.649962    26A     -0.633344    27A     -0.597457
      28A     -0.583142    29A     -0.568253    30A     -0.552069
      31A     -0.531232    32A     -0.518633    33A     -0.469032
      34A     -0.436743    35A     -0.408654    36A     -0.391898
      37A     -0.349513

  @DF-RHF Final Energy:  -774.27561837129099

   => Energetics <=

    Nuclear Repulsion Energy =            504.5141197540699523
    One-Electron Energy =               -2063.9106005813418960
    Two-Electron Energy =                 785.1208624559809550
    Total Energy =                       -774.2756183712909888
  Basis Set: (AUG-CC-PVTZ AUX)
    Blend: AUG-CC-PVTZ-RI
    Molecular point group: c1

    Geometry (in Angstrom), charge = 0, multiplicity = 1:

       Center              X                  Y                   Z               Mass
    ------------   -----------------  -----------------  -----------------  -----------------
         S            1.506387228202    -1.052157155383     0.000000943522    31.972071174400
         O           -1.468907771798    -1.530583155383    -0.000001056478    15.994914619570
         N           -2.057944771798     0.702370844617    -0.000000056478    14.003074004430
         N            0.614097828202     1.389627044617    -0.000001056478    14.003074004430
         C            0.240762228202     0.118380844617    -0.000000056478    12.000000000000
         C           -1.178595771798    -0.327715155383    -0.000001056478    12.000000000000
         C           -3.491786771798     0.493814844617     0.000000943522    12.000000000000
         C            2.646629228202     0.224424844617    -0.000000056478    12.000000000000
         C            2.001628228202     1.443184844617    -0.000000056478    12.000000000000
         H           -1.663442771798     1.636843844617     0.000000943522     1.007825032230
         H           -3.949606771798     0.932285844617    -0.891194056478     1.007825032230
         H           -3.949604771798     0.932277844617     0.891200943522     1.007825032230
         H           -3.662556771798    -0.582550155383    -0.000003056478     1.007825032230
         H            3.711796228202     0.032263844617     0.000000943522     1.007825032230
         H            2.495713228202     2.408644844617    -0.000000056478     1.007825032230

  Basis Set: AUG-CC-PVTZ
    Blend: AUG-CC-PVTZ
  Basis Set: (AUG-CC-PVTZ AUX)
    Blend: AUG-CC-PVTZ-JKFIT
	 Reference Energy          =    -774.2756183712909888 [Eh]
	 Singles Energy            =      -0.0000000000000000 [Eh]
	 Same-Spin Energy          =      -0.4585718260639013 [Eh]
	 Opposite-Spin Energy      =      -1.3693605395390862 [Eh]
	 Correlation Energy        =      -1.8279323656029876 [Eh]
	 Total Energy              =    -776.1035507368940216 [Eh]

	 ================> DF-SCS-MP2 Energies <==================
	-----------------------------------------------------------
	 SCS Same-Spin Scale       =       0.3333333333333333 [-]
	 SCS Opposite-Spin Scale   =       1.2000000000000000 [-]
	 SCS Same-Spin Energy      =      -0.1528572753546338 [Eh]
	 SCS Opposite-Spin Energy  =      -1.6432326474469034 [Eh]
	 SCS Correlation Energy    =      -1.7960899228015372 [Eh]
	 SCS Total Energy          =    -776.0717082940925593 [Eh]
	-----------------------------------------------------------

  Dipole Moment: [D]
     X:     1.1599      Y:     2.4274      Z:     0.0000     Total:     2.6902

*** Psi4 exiting successfully. Buy a developer a beer!
