                               Psi4 1.4a3.dev225

  ==> Input File <==

--------------------------------------------------------------------------
#psi4
#
memory 32 gb

molecule  {
0 1
  S        1.5510760    -1.0871590     0.0000010
  O       -1.4242190    -1.5655850    -0.0000010
  N       -2.0132560     0.6673690     0.0000000
  N        0.6809160     1.3479160    -0.0000010
  C        0.2854510     0.0833790     0.0000000
  C       -1.0862074    -0.3477253    -0.0000010
  C       -3.4470980     0.4588130     0.0000010
  C        2.6913180     0.1894230     0.0000000
  C        2.0463170     1.4081830     0.0000000
  H       -1.6187540     1.6018420     0.0000010
  H       -3.9049180     0.8972840    -0.8911940
  H       -3.9049160     0.8972760     0.8912010
  H       -3.6178680    -0.6175520    -0.0000030
  H        3.7564850    -0.0027380     0.0000010
  H        2.5404020     2.3736430     0.0000000
units angstrom
no_reorient  #important for SAPT in psi4, default
symmetry c1  #important for SAPT in psi4, default
}

set PROPERTIES_ORIGIN ["COM"]
properties('MP2/aug-cc-pvtz', properties = ['dipole'])
--------------------------------------------------------------------------

    Molecular point group: c1
  Charge       = 0
  Multiplicity = 1
  Basis Set: AUG-CC-PVTZ
    Blend: AUG-CC-PVTZ
  Basis Set: (AUG-CC-PVTZ AUX)
    Blend: AUG-CC-PVTZ-JKFIT

    Orbital Energies [Eh]
    ---------------------

    Doubly Occupied:

       1A    -92.016764     2A    -20.526011     3A    -15.602076
       4A    -15.591415     5A    -11.369275     6A    -11.324794
       7A    -11.288561     8A    -11.287119     9A    -11.261896
      10A     -9.016562    11A     -6.697243    12A     -6.696707
      13A     -6.696092    14A     -1.368678    15A     -1.299167
      16A     -1.227158    17A     -1.085015    18A     -1.045634
      19A     -0.957945    20A     -0.859283    21A     -0.809112
      22A     -0.768574    23A     -0.721991    24A     -0.654479
      25A     -0.647955    26A     -0.629550    27A     -0.595965
      28A     -0.587074    29A     -0.572189    30A     -0.546958
      31A     -0.524577    32A     -0.521416    33A     -0.466944
      34A     -0.437767    35A     -0.409057    36A     -0.388555
      37A     -0.351443

  @DF-RHF Final Energy:  -774.26939500358424

   => Energetics <=

    Nuclear Repulsion Energy =            505.0232601132708510
    One-Electron Energy =               -2064.8833078776160619
    Two-Electron Energy =                 785.5906527607609178
    Total Energy =                       -774.2693950035842363
  Basis Set: (AUG-CC-PVTZ AUX)
    Blend: AUG-CC-PVTZ-RI
    Molecular point group: c1

    Geometry (in Angstrom), charge = 0, multiplicity = 1:

       Center              X                  Y                   Z               Mass
    ------------   -----------------  -----------------  -----------------  -----------------
         S            1.500174903853    -1.052762358347     0.000000943522    31.972071174400
         O           -1.475120096147    -1.531188358347    -0.000001056478    15.994914619570
         N           -2.064157096147     0.701765641653    -0.000000056478    14.003074004430
         N            0.630014903853     1.382312641653    -0.000001056478    14.003074004430
         C            0.234549903853     0.117775641653    -0.000000056478    12.000000000000
         C           -1.137108496147    -0.313328658347    -0.000001056478    12.000000000000
         C           -3.497999096147     0.493209641653     0.000000943522    12.000000000000
         C            2.640416903853     0.223819641653    -0.000000056478    12.000000000000
         C            1.995415903853     1.442579641653    -0.000000056478    12.000000000000
         H           -1.669655096147     1.636238641653     0.000000943522     1.007825032230
         H           -3.955819096147     0.931680641653    -0.891194056478     1.007825032230
         H           -3.955817096147     0.931672641653     0.891200943522     1.007825032230
         H           -3.668769096147    -0.583155358347    -0.000003056478     1.007825032230
         H            3.705583903853     0.031658641653     0.000000943522     1.007825032230
         H            2.489500903853     2.408039641653    -0.000000056478     1.007825032230

  Basis Set: AUG-CC-PVTZ
    Blend: AUG-CC-PVTZ
  Basis Set: (AUG-CC-PVTZ AUX)
    Blend: AUG-CC-PVTZ-JKFIT
	 Reference Energy          =    -774.2693950035842363 [Eh]
	 Singles Energy            =      -0.0000000000000000 [Eh]
	 Same-Spin Energy          =      -0.4601963446408247 [Eh]
	 Opposite-Spin Energy      =      -1.3715633857914042 [Eh]
	 Correlation Energy        =      -1.8317597304322288 [Eh]
	 Total Energy              =    -776.1011547340165180 [Eh]

	 ================> DF-SCS-MP2 Energies <==================
	-----------------------------------------------------------
	 SCS Same-Spin Scale       =       0.3333333333333333 [-]
	 SCS Opposite-Spin Scale   =       1.2000000000000000 [-]
	 SCS Same-Spin Energy      =      -0.1533987815469415 [Eh]
	 SCS Opposite-Spin Energy  =      -1.6458760629496851 [Eh]
	 SCS Correlation Energy    =      -1.7992748444966267 [Eh]
	 SCS Total Energy          =    -776.0686698480808445 [Eh]
	-----------------------------------------------------------

  Dipole Moment: [D]
     X:     1.4627      Y:     2.5055      Z:     0.0000     Total:     2.9012

*** Psi4 exiting successfully. Buy a developer a beer!
