                               Psi4 1.3.2 release

  ==> Input File <==

--------------------------------------------------------------------------
#psi4
#
memory 32 gb

molecule  {
0 1
  S        1.5510760    -1.0871590     0.0000010
  O       -1.4242190    -1.5655850    -0.0000010
  N       -2.0132560     0.6673690     0.0000000
  N        0.6809160     1.3479160    -0.0000010
  C        0.2854510     0.0833790     0.0000000
  C       -1.1339070    -0.3627170    -0.0000010
  C       -3.4470980     0.4588130     0.0000010
  C        2.6913180     0.1894230     0.0000000
  C        1.9224553     1.3340855    -0.0000002
  H       -1.6187540     1.6018420     0.0000010
  H       -3.9049180     0.8972840    -0.8911940
  H       -3.9049160     0.8972760     0.8912010
  H       -3.6178680    -0.6175520    -0.0000030
  H        3.7564850    -0.0027380     0.0000010
  H        2.5404020     2.3736430     0.0000000
units angstrom
no_reorient  #important for SAPT in psi4, default
symmetry c1  #important for SAPT in psi4, default
}

set PROPERTIES_ORIGIN ["COM"]
properties('MP2/aug-cc-pvtz', properties = ['dipole'])
--------------------------------------------------------------------------

    Molecular point group: c1
  Charge       = 0
  Multiplicity = 1
  Basis Set: AUG-CC-PVTZ
    Blend: AUG-CC-PVTZ
  Basis Set: (AUG-CC-PVTZ AUX)
    Blend: AUG-CC-PVTZ-JKFIT

    Orbital Energies [Eh]
    ---------------------

    Doubly Occupied:

       1A    -92.017896     2A    -20.527226     3A    -15.594407
       4A    -15.591157     5A    -11.368181     6A    -11.324922
       7A    -11.285413     8A    -11.280058     9A    -11.264083
      10A     -9.017363    11A     -6.697893    12A     -6.697569
      13A     -6.697021    14A     -1.384106    15A     -1.338642
      16A     -1.239334    17A     -1.095973    18A     -1.036444
      19A     -0.956661    20A     -0.849150    21A     -0.807300
      22A     -0.774876    23A     -0.735008    24A     -0.652699
      25A     -0.640378    26A     -0.636176    27A     -0.603803
      28A     -0.599831    29A     -0.571026    30A     -0.552000
      31A     -0.537222    32A     -0.496886    33A     -0.463327
      34A     -0.438372    35A     -0.418169    36A     -0.396396
      37A     -0.341075

  @DF-RHF Final Energy:  -774.24706313112904

   => Energetics <=

    Nuclear Repulsion Energy =            508.2290159759019161
    One-Electron Energy =               -2071.0960728322925206
    Two-Electron Energy =                 788.6199937252616792
    Total Energy =                       -774.2470631311290390
  Basis Set: (AUG-CC-PVTZ AUX)
    Blend: AUG-CC-PVTZ-RI
    Molecular point group: c1

    Geometry (in Angstrom), charge = 0, multiplicity = 1:

       Center              X                  Y                   Z               Mass
    ------------   -----------------  -----------------  -----------------  -----------------
         S            1.514670991604    -1.045234758237     0.000000960421    31.972071174400
         O           -1.460624008396    -1.523660758237    -0.000001039579    15.994914619570
         N           -2.049661008396     0.709293241763    -0.000000039579    14.003074004430
         N            0.644510991604     1.389840241763    -0.000001039579    14.003074004430
         C            0.249045991604     0.125303241763    -0.000000039579    12.000000000000
         C           -1.170312008396    -0.320792758237    -0.000001039579    12.000000000000
         C           -3.483503008396     0.500737241763     0.000000960421    12.000000000000
         C            2.654912991604     0.231347241763    -0.000000039579    12.000000000000
         C            1.886050291604     1.376009741763    -0.000000239579    12.000000000000
         H           -1.655159008396     1.643766241763     0.000000960421     1.007825032230
         H           -3.941323008396     0.939208241763    -0.891194039579     1.007825032230
         H           -3.941321008396     0.939200241763     0.891200960421     1.007825032230
         H           -3.654273008396    -0.575627758237    -0.000003039579     1.007825032230
         H            3.720079991604     0.039186241763     0.000000960421     1.007825032230
         H            2.503996991604     2.415567241763    -0.000000039579     1.007825032230

  Basis Set: AUG-CC-PVTZ
    Blend: AUG-CC-PVTZ
  Basis Set: (AUG-CC-PVTZ AUX)
    Blend: AUG-CC-PVTZ-JKFIT
	 Reference Energy          =    -774.2470631311290390 [Eh]
	 Singles Energy            =      -0.0000000000000000 [Eh]
	 Same-Spin Energy          =      -0.4611517786142322 [Eh]
	 Opposite-Spin Energy      =      -1.3702260175762599 [Eh]
	 Correlation Energy        =      -1.8313777961904920 [Eh]
	 Total Energy              =    -776.0784409273195479 [Eh]

	 ================> DF-SCS-MP2 Energies <==================
	-----------------------------------------------------------
	 SCS Same-Spin Scale       =       0.3333333333333333 [-]
	 SCS Opposite-Spin Scale   =       1.2000000000000000 [-]
	 SCS Same-Spin Energy      =      -0.1537172595380774 [Eh]
	 SCS Opposite-Spin Energy  =      -1.6442712210915118 [Eh]
	 SCS Correlation Energy    =      -1.7979884806295892 [Eh]
	 SCS Total Energy          =    -776.0450516117585948 [Eh]
	-----------------------------------------------------------

  Dipole Moment: [D]
     X:     1.0918      Y:     2.3031      Z:     0.0000     Total:     2.5487

*** Psi4 exiting successfully. Buy a developer a beer!
