                               Psi4 1.4a3.dev225

  ==> Input File <==

--------------------------------------------------------------------------
#psi4
#
memory 32 gb

molecule  {
0 1
  S        1.5510760    -1.0871590     0.0000010
  O       -1.4242190    -1.5655850    -0.0000010
  N       -2.0132560     0.6673690     0.0000000
  N        0.6809160     1.3479160    -0.0000010
  C        0.2854510     0.0833790     0.0000000
  C       -1.1339070    -0.3627170    -0.0000010
  C       -3.4470980     0.4588130     0.0000010
  C        2.6779948     0.1745068     0.0000000
  C        2.0463170     1.4081830     0.0000000
  H       -1.6187540     1.6018420     0.0000010
  H       -3.9049180     0.8972840    -0.8911940
  H       -3.9049160     0.8972760     0.8912010
  H       -3.6178680    -0.6175520    -0.0000030
  H        3.7564850    -0.0027380     0.0000010
  H        2.5404020     2.3736430     0.0000000
units angstrom
no_reorient  #important for SAPT in psi4, default
symmetry c1  #important for SAPT in psi4, default
}

set PROPERTIES_ORIGIN ["COM"]
properties('MP2/aug-cc-pvtz', properties = ['dipole'])
--------------------------------------------------------------------------

    Molecular point group: c1
  Charge       = 0
  Multiplicity = 1
  Basis Set: AUG-CC-PVTZ
    Blend: AUG-CC-PVTZ
  Basis Set: (AUG-CC-PVTZ AUX)
    Blend: AUG-CC-PVTZ-JKFIT

    Orbital Energies [Eh]
    ---------------------

    Doubly Occupied:

       1A    -92.013636     2A    -20.528564     3A    -15.597215
       4A    -15.593299     5A    -11.368772     6A    -11.323109
       7A    -11.285343     8A    -11.283014     9A    -11.263428
      10A     -9.013875    11A     -6.694602    12A     -6.694058
      13A     -6.693417    14A     -1.383671    15A     -1.296462
      16A     -1.237533    17A     -1.084940    18A     -1.034643
      19A     -0.958828    20A     -0.847276    21A     -0.803980
      22A     -0.777320    23A     -0.718224    24A     -0.655473
      25A     -0.649413    26A     -0.633296    27A     -0.598740
      28A     -0.584795    29A     -0.566608    30A     -0.551704
      31A     -0.532138    32A     -0.521036    33A     -0.466315
      34A     -0.436511    35A     -0.409814    36A     -0.392911
      37A     -0.346278

  @DF-RHF Final Energy:  -774.27563470685311

   => Energetics <=

    Nuclear Repulsion Energy =            505.1983884796175630
    One-Electron Energy =               -2065.2675669891327743
    Two-Electron Energy =                 785.7935438026621568
    Total Energy =                       -774.2756347068531113
  Basis Set: (AUG-CC-PVTZ AUX)
    Blend: AUG-CC-PVTZ-RI
    Molecular point group: c1

    Geometry (in Angstrom), charge = 0, multiplicity = 1:

       Center              X                  Y                   Z               Mass
    ------------   -----------------  -----------------  -----------------  -----------------
         S            1.505331030926    -1.050235287599     0.000000943522    31.972071174400
         O           -1.469963969074    -1.528661287599    -0.000001056478    15.994914619570
         N           -2.059000969074     0.704292712401    -0.000000056478    14.003074004430
         N            0.635171030926     1.384839712401    -0.000001056478    14.003074004430
         C            0.239706030926     0.120302712401    -0.000000056478    12.000000000000
         C           -1.179651969074    -0.325793287599    -0.000001056478    12.000000000000
         C           -3.492842969074     0.495736712401     0.000000943522    12.000000000000
         C            2.632249830926     0.211430512401    -0.000000056478    12.000000000000
         C            2.000572030926     1.445106712401    -0.000000056478    12.000000000000
         H           -1.664498969074     1.638765712401     0.000000943522     1.007825032230
         H           -3.950662969074     0.934207712401    -0.891194056478     1.007825032230
         H           -3.950660969074     0.934199712401     0.891200943522     1.007825032230
         H           -3.663612969074    -0.580628287599    -0.000003056478     1.007825032230
         H            3.710740030926     0.034185712401     0.000000943522     1.007825032230
         H            2.494657030926     2.410566712401    -0.000000056478     1.007825032230

  Basis Set: AUG-CC-PVTZ
    Blend: AUG-CC-PVTZ
  Basis Set: (AUG-CC-PVTZ AUX)
    Blend: AUG-CC-PVTZ-JKFIT
	 Reference Energy          =    -774.2756347068531113 [Eh]
	 Singles Energy            =      -0.0000000000000000 [Eh]
	 Same-Spin Energy          =      -0.4592160383736958 [Eh]
	 Opposite-Spin Energy      =      -1.3692546501435108 [Eh]
	 Correlation Energy        =      -1.8284706885172066 [Eh]
	 Total Energy              =    -776.1041053953703113 [Eh]

	 ================> DF-SCS-MP2 Energies <==================
	-----------------------------------------------------------
	 SCS Same-Spin Scale       =       0.3333333333333333 [-]
	 SCS Opposite-Spin Scale   =       1.2000000000000000 [-]
	 SCS Same-Spin Energy      =      -0.1530720127912319 [Eh]
	 SCS Opposite-Spin Energy  =      -1.6431055801722130 [Eh]
	 SCS Correlation Energy    =      -1.7961775929634449 [Eh]
	 SCS Total Energy          =    -776.0718122998165427 [Eh]
	-----------------------------------------------------------

  Dipole Moment: [D]
     X:     1.1379      Y:     2.4358      Z:     0.0000     Total:     2.6885

*** Psi4 exiting successfully. Buy a developer a beer!
