                               Psi4 1.3.2 release

  ==> Input File <==

--------------------------------------------------------------------------
#psi4
#
memory 32 gb

molecule  {
0 1
  S        1.5510760    -1.0871590     0.0000010
  O       -1.4242190    -1.5655850    -0.0000010
  N       -2.0132560     0.6673690     0.0000000
  N        0.6809160     1.3479160    -0.0000010
  C        0.2415602     0.0979509    -0.0000000
  C       -1.1339070    -0.3627170    -0.0000010
  C       -3.4470980     0.4588130     0.0000010
  C        2.6913180     0.1894230     0.0000000
  C        2.0463170     1.4081830     0.0000000
  H       -1.6187540     1.6018420     0.0000010
  H       -3.9049180     0.8972840    -0.8911940
  H       -3.9049160     0.8972760     0.8912010
  H       -3.6178680    -0.6175520    -0.0000030
  H        3.7564850    -0.0027380     0.0000010
  H        2.5404020     2.3736430     0.0000000
units angstrom
no_reorient  #important for SAPT in psi4, default
symmetry c1  #important for SAPT in psi4, default
}

set PROPERTIES_ORIGIN ["COM"]
properties('MP2/aug-cc-pvtz', properties = ['dipole'])
--------------------------------------------------------------------------

    Molecular point group: c1
  Charge       = 0
  Multiplicity = 1
  Basis Set: AUG-CC-PVTZ
    Blend: AUG-CC-PVTZ
  Basis Set: (AUG-CC-PVTZ AUX)
    Blend: AUG-CC-PVTZ-JKFIT

    Orbital Energies [Eh]
    ---------------------

    Doubly Occupied:

       1A    -92.011164     2A    -20.529882     3A    -15.600258
       4A    -15.593897     5A    -11.367996     6A    -11.326041
       7A    -11.286367     8A    -11.284973     9A    -11.263750
      10A     -9.010338    11A     -6.691021    12A     -6.690466
      13A     -6.689912    14A     -1.385818    15A     -1.294291
      16A     -1.238940    17A     -1.077810    18A     -1.039406
      19A     -0.960256    20A     -0.855910    21A     -0.805354
      22A     -0.778381    23A     -0.717518    24A     -0.658221
      25A     -0.651687    26A     -0.634970    27A     -0.603338
      28A     -0.583607    29A     -0.566135    30A     -0.552320
      31A     -0.531766    32A     -0.516134    33A     -0.462567
      34A     -0.436971    35A     -0.409106    36A     -0.392607
      37A     -0.346948

  @DF-RHF Final Energy:  -774.27298896646914

   => Energetics <=

    Nuclear Repulsion Energy =            504.5826954528172337
    One-Electron Energy =               -2064.0191184549958052
    Two-Electron Energy =                 785.1634340357094288
    Total Energy =                       -774.2729889664691427
  Basis Set: (AUG-CC-PVTZ AUX)
    Blend: AUG-CC-PVTZ-RI
    Molecular point group: c1

    Geometry (in Angstrom), charge = 0, multiplicity = 1:

       Center              X                  Y                   Z               Mass
    ------------   -----------------  -----------------  -----------------  -----------------
         S            1.507913843087    -1.052726887308     0.000000943522    31.972071174400
         O           -1.467381156913    -1.531152887308    -0.000001056478    15.994914619570
         N           -2.056418156913     0.701801112692    -0.000000056478    14.003074004430
         N            0.637753843087     1.382348112692    -0.000001056478    14.003074004430
         C            0.198398043087     0.132383012692    -0.000000056478    12.000000000000
         C           -1.177069156913    -0.328284887308    -0.000001056478    12.000000000000
         C           -3.490260156913     0.493245112692     0.000000943522    12.000000000000
         C            2.648155843087     0.223855112692    -0.000000056478    12.000000000000
         C            2.003154843087     1.442615112692    -0.000000056478    12.000000000000
         H           -1.661916156913     1.636274112692     0.000000943522     1.007825032230
         H           -3.948080156913     0.931716112692    -0.891194056478     1.007825032230
         H           -3.948078156913     0.931708112692     0.891200943522     1.007825032230
         H           -3.661030156913    -0.583119887308    -0.000003056478     1.007825032230
         H            3.713322843087     0.031694112692     0.000000943522     1.007825032230
         H            2.497239843087     2.408075112692    -0.000000056478     1.007825032230

  Basis Set: AUG-CC-PVTZ
    Blend: AUG-CC-PVTZ
  Basis Set: (AUG-CC-PVTZ AUX)
    Blend: AUG-CC-PVTZ-JKFIT
	 Reference Energy          =    -774.2729889664691427 [Eh]
	 Singles Energy            =      -0.0000000000000000 [Eh]
	 Same-Spin Energy          =      -0.4593880085479967 [Eh]
	 Opposite-Spin Energy      =      -1.3701131847961450 [Eh]
	 Correlation Energy        =      -1.8295011933441416 [Eh]
	 Total Energy              =    -776.1024901598133283 [Eh]

	 ================> DF-SCS-MP2 Energies <==================
	-----------------------------------------------------------
	 SCS Same-Spin Scale       =       0.3333333333333333 [-]
	 SCS Opposite-Spin Scale   =       1.2000000000000000 [-]
	 SCS Same-Spin Energy      =      -0.1531293361826656 [Eh]
	 SCS Opposite-Spin Energy  =      -1.6441358217553739 [Eh]
	 SCS Correlation Energy    =      -1.7972651579380394 [Eh]
	 SCS Total Energy          =    -776.0702541244071426 [Eh]
	-----------------------------------------------------------

  Dipole Moment: [D]
     X:     1.0975      Y:     2.5454      Z:     0.0000     Total:     2.7719

*** Psi4 exiting successfully. Buy a developer a beer!
