                               Psi4 1.3.2 release

  ==> Input File <==

--------------------------------------------------------------------------
#psi4
#
memory 32 gb

molecule  {
0 1
  S        1.5510760    -1.0871590     0.0000010
  O       -1.4242190    -1.5655850    -0.0000010
  N       -2.0132560     0.6673690     0.0000000
  N        0.6809160     1.3479160    -0.0000010
  C        0.2854510     0.0833790     0.0000000
  C       -1.1339070    -0.3627170    -0.0000010
  C       -3.4470980     0.4588130     0.0000010
  C        2.5580865     0.0402608     0.0000001
  C        2.0463170     1.4081830     0.0000000
  H       -1.6187540     1.6018420     0.0000010
  H       -3.9049180     0.8972840    -0.8911940
  H       -3.9049160     0.8972760     0.8912010
  H       -3.6178680    -0.6175520    -0.0000030
  H        3.7564850    -0.0027380     0.0000010
  H        2.5404020     2.3736430     0.0000000
units angstrom
no_reorient  #important for SAPT in psi4, default
symmetry c1  #important for SAPT in psi4, default
}

set PROPERTIES_ORIGIN ["COM"]
properties('MP2/aug-cc-pvtz', properties = ['dipole'])
--------------------------------------------------------------------------

    Molecular point group: c1
  Charge       = 0
  Multiplicity = 1
  Basis Set: AUG-CC-PVTZ
    Blend: AUG-CC-PVTZ
  Basis Set: (AUG-CC-PVTZ AUX)
    Blend: AUG-CC-PVTZ-JKFIT

    Orbital Energies [Eh]
    ---------------------

    Doubly Occupied:

       1A    -92.018371     2A    -20.521555     3A    -15.599251
       4A    -15.587735     5A    -11.362760     6A    -11.307769
       7A    -11.289028     8A    -11.287992     9A    -11.259939
      10A     -9.023867    11A     -6.705358    12A     -6.703475
      13A     -6.703015    14A     -1.377933    15A     -1.301344
      16A     -1.233213    17A     -1.129435    18A     -1.021802
      19A     -0.948505    20A     -0.839822    21A     -0.794715
      22A     -0.773423    23A     -0.722400    24A     -0.653352
      25A     -0.639977    26A     -0.630280    27A     -0.593402
      28A     -0.590719    29A     -0.571989    30A     -0.547962
      31A     -0.532283    32A     -0.514767    33A     -0.464944
      34A     -0.433115    35A     -0.427429    36A     -0.392349
      37A     -0.326393

  @DF-RHF Final Energy:  -774.22496968009148

   => Energetics <=

    Nuclear Repulsion Energy =            508.8745250382304448
    One-Electron Energy =               -2072.5356571844677092
    Two-Electron Energy =                 789.4361624661459018
    Total Energy =                       -774.2249696800914762
  Basis Set: (AUG-CC-PVTZ AUX)
    Blend: AUG-CC-PVTZ-RI
    Molecular point group: c1

    Geometry (in Angstrom), charge = 0, multiplicity = 1:

       Center              X                  Y                   Z               Mass
    ------------   -----------------  -----------------  -----------------  -----------------
         S            1.515462693713    -1.038892159538     0.000000935072    31.972071174400
         O           -1.459832306287    -1.517318159538    -0.000001064928    15.994914619570
         N           -2.048869306287     0.715635840462    -0.000000064928    14.003074004430
         N            0.645302693713     1.396182840462    -0.000001064928    14.003074004430
         C            0.249837693713     0.131645840462    -0.000000064928    12.000000000000
         C           -1.169520306287    -0.314450159538    -0.000001064928    12.000000000000
         C           -3.482711306287     0.507079840462     0.000000935072    12.000000000000
         C            2.522473193713     0.088527640462     0.000000035072    12.000000000000
         C            2.010703693713     1.456449840462    -0.000000064928    12.000000000000
         H           -1.654367306287     1.650108840462     0.000000935072     1.007825032230
         H           -3.940531306287     0.945550840462    -0.891194064928     1.007825032230
         H           -3.940529306287     0.945542840462     0.891200935072     1.007825032230
         H           -3.653481306287    -0.569285159538    -0.000003064928     1.007825032230
         H            3.720871693713     0.045528840462     0.000000935072     1.007825032230
         H            2.504788693713     2.421909840462    -0.000000064928     1.007825032230

  Basis Set: AUG-CC-PVTZ
    Blend: AUG-CC-PVTZ
  Basis Set: (AUG-CC-PVTZ AUX)
    Blend: AUG-CC-PVTZ-JKFIT
	 Reference Energy          =    -774.2249696800914762 [Eh]
	 Singles Energy            =      -0.0000000000000000 [Eh]
	 Same-Spin Energy          =      -0.4634239475114734 [Eh]
	 Opposite-Spin Energy      =      -1.3725625336375582 [Eh]
	 Correlation Energy        =      -1.8359864811490316 [Eh]
	 Total Energy              =    -776.0609561612404832 [Eh]

	 ================> DF-SCS-MP2 Energies <==================
	-----------------------------------------------------------
	 SCS Same-Spin Scale       =       0.3333333333333333 [-]
	 SCS Opposite-Spin Scale   =       1.2000000000000000 [-]
	 SCS Same-Spin Energy      =      -0.1544746491704911 [Eh]
	 SCS Opposite-Spin Energy  =      -1.6470750403650698 [Eh]
	 SCS Correlation Energy    =      -1.8015496895355609 [Eh]
	 SCS Total Energy          =    -776.0265193696270671 [Eh]
	-----------------------------------------------------------

  Dipole Moment: [D]
     X:     1.3184      Y:     2.3309      Z:     0.0000     Total:     2.6779

*** Psi4 exiting successfully. Buy a developer a beer!
