                               Psi4 1.3.2 release

  ==> Input File <==

--------------------------------------------------------------------------
#psi4
#
memory 32 gb

molecule  {
0 1
  S        1.5510760    -1.0871590     0.0000010
  O       -1.4242190    -1.5655850    -0.0000010
  N       -2.0132560     0.6673690     0.0000000
  N        0.6809160     1.3479160    -0.0000010
  C        0.2854510     0.0833790     0.0000000
  C       -1.1339070    -0.3627170    -0.0000010
  C       -3.4470980     0.4588130     0.0000010
  C        2.6913180     0.1894230     0.0000000
  C        1.9995410     1.4965685     0.0000000
  H       -1.6187540     1.6018420     0.0000010
  H       -3.9049180     0.8972840    -0.8911940
  H       -3.9049160     0.8972760     0.8912010
  H       -3.6178680    -0.6175520    -0.0000030
  H        3.7564850    -0.0027380     0.0000010
  H        2.5404020     2.3736430     0.0000000
units angstrom
no_reorient  #important for SAPT in psi4, default
symmetry c1  #important for SAPT in psi4, default
}

set PROPERTIES_ORIGIN ["COM"]
properties('MP2/aug-cc-pvtz', properties = ['dipole'])
--------------------------------------------------------------------------

    Molecular point group: c1
  Charge       = 0
  Multiplicity = 1
  Basis Set: AUG-CC-PVTZ
    Blend: AUG-CC-PVTZ
  Basis Set: (AUG-CC-PVTZ AUX)
    Blend: AUG-CC-PVTZ-JKFIT

    Orbital Energies [Eh]
    ---------------------

    Doubly Occupied:

       1A    -92.019745     2A    -20.526003     3A    -15.596544
       4A    -15.591357     5A    -11.367072     6A    -11.319948
       7A    -11.294411     8A    -11.290993     9A    -11.262225
      10A     -9.018800    11A     -6.699430    12A     -6.698918
      13A     -6.698466    14A     -1.381578    15A     -1.298921
      16A     -1.235844    17A     -1.080747    18A     -1.031398
      19A     -0.954999    20A     -0.843700    21A     -0.814159
      22A     -0.776435    23A     -0.712712    24A     -0.672587
      25A     -0.647057    26A     -0.631997    27A     -0.608400
      28A     -0.583577    29A     -0.564947    30A     -0.550155
      31A     -0.529823    32A     -0.514479    33A     -0.460305
      34A     -0.434721    35A     -0.412121    36A     -0.393481
      37A     -0.332481

  @DF-RHF Final Energy:  -774.26073707883961

   => Energetics <=

    Nuclear Repulsion Energy =            503.8549173983475384
    One-Electron Energy =               -2062.5302325803186250
    Two-Electron Energy =                 784.4145781031315892
    Total Energy =                       -774.2607370788396111
  Basis Set: (AUG-CC-PVTZ AUX)
    Blend: AUG-CC-PVTZ-RI
    Molecular point group: c1

    Geometry (in Angstrom), charge = 0, multiplicity = 1:

       Center              X                  Y                   Z               Mass
    ------------   -----------------  -----------------  -----------------  -----------------
         S            1.508157628325    -1.058963774198     0.000000943522    31.972071174400
         O           -1.467137371675    -1.537389774198    -0.000001056478    15.994914619570
         N           -2.056174371675     0.695564225802    -0.000000056478    14.003074004430
         N            0.637997628325     1.376111225802    -0.000001056478    14.003074004430
         C            0.242532628325     0.111574225802    -0.000000056478    12.000000000000
         C           -1.176825371675    -0.334521774198    -0.000001056478    12.000000000000
         C           -3.490016371675     0.487008225802     0.000000943522    12.000000000000
         C            2.648399628325     0.217618225802    -0.000000056478    12.000000000000
         C            1.956622628325     1.524763725802    -0.000000056478    12.000000000000
         H           -1.661672371675     1.630037225802     0.000000943522     1.007825032230
         H           -3.947836371675     0.925479225802    -0.891194056478     1.007825032230
         H           -3.947834371675     0.925471225802     0.891200943522     1.007825032230
         H           -3.660786371675    -0.589356774198    -0.000003056478     1.007825032230
         H            3.713566628325     0.025457225802     0.000000943522     1.007825032230
         H            2.497483628325     2.401838225802    -0.000000056478     1.007825032230

  Basis Set: AUG-CC-PVTZ
    Blend: AUG-CC-PVTZ
  Basis Set: (AUG-CC-PVTZ AUX)
    Blend: AUG-CC-PVTZ-JKFIT
	 Reference Energy          =    -774.2607370788396111 [Eh]
	 Singles Energy            =      -0.0000000000000000 [Eh]
	 Same-Spin Energy          =      -0.4613592348171940 [Eh]
	 Opposite-Spin Energy      =      -1.3720293018165775 [Eh]
	 Correlation Energy        =      -1.8333885366337714 [Eh]
	 Total Energy              =    -776.0941256154733310 [Eh]

	 ================> DF-SCS-MP2 Energies <==================
	-----------------------------------------------------------
	 SCS Same-Spin Scale       =       0.3333333333333333 [-]
	 SCS Opposite-Spin Scale   =       1.2000000000000000 [-]
	 SCS Same-Spin Energy      =      -0.1537864116057313 [Eh]
	 SCS Opposite-Spin Energy  =      -1.6464351621798929 [Eh]
	 SCS Correlation Energy    =      -1.8002215737856242 [Eh]
	 SCS Total Energy          =    -776.0609586526252315 [Eh]
	-----------------------------------------------------------

  Dipole Moment: [D]
     X:     1.1781      Y:     2.5403      Z:     0.0000     Total:     2.8002

*** Psi4 exiting successfully. Buy a developer a beer!
