                               Psi4 1.3.2 release

  ==> Input File <==

--------------------------------------------------------------------------
#psi4
#
memory 32 gb

molecule  {
0 1
  S        1.5510760    -1.0871590     0.0000010
  O       -1.4242190    -1.5655850    -0.0000010
  N       -2.0132560     0.6673690     0.0000000
  N        0.6809160     1.3479160    -0.0000010
  C        0.2854510     0.0833790     0.0000000
  C       -1.1339070    -0.3627170    -0.0000010
  C       -3.4470980     0.4588130     0.0000010
  C        2.7334592     0.2126756     0.0000000
  C        2.0463170     1.4081830     0.0000000
  H       -1.6187540     1.6018420     0.0000010
  H       -3.9049180     0.8972840    -0.8911940
  H       -3.9049160     0.8972760     0.8912010
  H       -3.6178680    -0.6175520    -0.0000030
  H        3.7564850    -0.0027380     0.0000010
  H        2.5404020     2.3736430     0.0000000
units angstrom
no_reorient  #important for SAPT in psi4, default
symmetry c1  #important for SAPT in psi4, default
}

set PROPERTIES_ORIGIN ["COM"]
properties('MP2/aug-cc-pvtz', properties = ['dipole'])
--------------------------------------------------------------------------

    Molecular point group: c1
  Charge       = 0
  Multiplicity = 1
  Basis Set: AUG-CC-PVTZ
    Blend: AUG-CC-PVTZ
  Basis Set: (AUG-CC-PVTZ AUX)
    Blend: AUG-CC-PVTZ-JKFIT

    Orbital Energies [Eh]
    ---------------------

    Doubly Occupied:

       1A    -92.011494     2A    -20.530404     3A    -15.597283
       4A    -15.594978     5A    -11.370556     6A    -11.327641
       7A    -11.287173     8A    -11.283309     9A    -11.264461
      10A     -9.010654    11A     -6.691331    12A     -6.690794
      13A     -6.690227    14A     -1.385226    15A     -1.294813
      16A     -1.238779    17A     -1.073754    18A     -1.037365
      19A     -0.961501    20A     -0.849256    21A     -0.810004
      22A     -0.778009    23A     -0.720009    24A     -0.655772
      25A     -0.652965    26A     -0.634271    27A     -0.602566
      28A     -0.583332    29A     -0.572780    30A     -0.552855
      31A     -0.531820    32A     -0.507925    33A     -0.466822
      34A     -0.436952    35A     -0.406768    36A     -0.391480
      37A     -0.351267

  @DF-RHF Final Energy:  -774.27463286382431

   => Energetics <=

    Nuclear Repulsion Energy =            503.7435418266680927
    One-Electron Energy =               -2062.3431565826163023
    Two-Electron Energy =                 784.3249818921237875
    Total Energy =                       -774.2746328638243085
  Basis Set: (AUG-CC-PVTZ AUX)
    Blend: AUG-CC-PVTZ-RI
    Molecular point group: c1

    Geometry (in Angstrom), charge = 0, multiplicity = 1:

       Center              X                  Y                   Z               Mass
    ------------   -----------------  -----------------  -----------------  -----------------
         S            1.500644561370    -1.053460363849     0.000000943522    31.972071174400
         O           -1.474650438630    -1.531886363849    -0.000001056478    15.994914619570
         N           -2.063687438630     0.701067636151    -0.000000056478    14.003074004430
         N            0.630484561370     1.381614636151    -0.000001056478    14.003074004430
         C            0.235019561370     0.117077636151    -0.000000056478    12.000000000000
         C           -1.184338438630    -0.329018363849    -0.000001056478    12.000000000000
         C           -3.497529438630     0.492511636151     0.000000943522    12.000000000000
         C            2.683027761370     0.246374236151    -0.000000056478    12.000000000000
         C            1.995885561370     1.441881636151    -0.000000056478    12.000000000000
         H           -1.669185438630     1.635540636151     0.000000943522     1.007825032230
         H           -3.955349438630     0.930982636151    -0.891194056478     1.007825032230
         H           -3.955347438630     0.930974636151     0.891200943522     1.007825032230
         H           -3.668299438630    -0.583853363849    -0.000003056478     1.007825032230
         H            3.706053561370     0.030960636151     0.000000943522     1.007825032230
         H            2.489970561370     2.407341636151    -0.000000056478     1.007825032230

  Basis Set: AUG-CC-PVTZ
    Blend: AUG-CC-PVTZ
  Basis Set: (AUG-CC-PVTZ AUX)
    Blend: AUG-CC-PVTZ-JKFIT
	 Reference Energy          =    -774.2746328638243085 [Eh]
	 Singles Energy            =      -0.0000000000000000 [Eh]
	 Same-Spin Energy          =      -0.4583186839977511 [Eh]
	 Opposite-Spin Energy      =      -1.3691677703586398 [Eh]
	 Correlation Energy        =      -1.8274864543563909 [Eh]
	 Total Energy              =    -776.1021193181807121 [Eh]

	 ================> DF-SCS-MP2 Energies <==================
	-----------------------------------------------------------
	 SCS Same-Spin Scale       =       0.3333333333333333 [-]
	 SCS Opposite-Spin Scale   =       1.2000000000000000 [-]
	 SCS Same-Spin Energy      =      -0.1527728946659170 [Eh]
	 SCS Opposite-Spin Energy  =      -1.6430013244303676 [Eh]
	 SCS Correlation Energy    =      -1.7957742190962847 [Eh]
	 SCS Total Energy          =    -776.0704070829206103 [Eh]
	-----------------------------------------------------------

  Dipole Moment: [D]
     X:     1.0917      Y:     2.4878      Z:     0.0000     Total:     2.7168

*** Psi4 exiting successfully. Buy a developer a beer!
