                               Psi4 1.3.2 release

  ==> Input File <==

--------------------------------------------------------------------------
#psi4
#
memory 32 gb

molecule  {
0 1
  S        1.5510760    -1.0871590     0.0000010
  O       -1.4242190    -1.5655850    -0.0000010
  N       -2.0132560     0.6673690     0.0000000
  N        0.6809160     1.3479160    -0.0000010
  C        0.2854510     0.0833790     0.0000000
  C       -1.3247053    -0.4226838    -0.0000011
  C       -3.4470980     0.4588130     0.0000010
  C        2.6913180     0.1894230     0.0000000
  C        2.0463170     1.4081830     0.0000000
  H       -1.6187540     1.6018420     0.0000010
  H       -3.9049180     0.8972840    -0.8911940
  H       -3.9049160     0.8972760     0.8912010
  H       -3.6178680    -0.6175520    -0.0000030
  H        3.7564850    -0.0027380     0.0000010
  H        2.5404020     2.3736430     0.0000000
units angstrom
no_reorient  #important for SAPT in psi4, default
symmetry c1  #important for SAPT in psi4, default
}

set PROPERTIES_ORIGIN ["COM"]
properties('MP2/aug-cc-pvtz', properties = ['dipole'])
--------------------------------------------------------------------------

    Molecular point group: c1
  Charge       = 0
  Multiplicity = 1
  Basis Set: AUG-CC-PVTZ
    Blend: AUG-CC-PVTZ
  Basis Set: (AUG-CC-PVTZ AUX)
    Blend: AUG-CC-PVTZ-JKFIT

    Orbital Energies [Eh]
    ---------------------

    Doubly Occupied:

       1A    -91.995515     2A    -20.547820     3A    -15.606464
       4A    -15.576141     5A    -11.376591     6A    -11.308106
       7A    -11.272941     8A    -11.271585     9A    -11.264893
      10A     -8.995902    11A     -6.676696    12A     -6.676154
      13A     -6.675520    14A     -1.451981    15A     -1.290962
      16A     -1.270408    17A     -1.064773    18A     -1.007683
      19A     -0.965810    20A     -0.832729    21A     -0.797461
      22A     -0.779901    23A     -0.706021    24A     -0.683748
      25A     -0.659112    26A     -0.650221    27A     -0.607303
      28A     -0.583955    29A     -0.569623    30A     -0.556040
      31A     -0.550460    32A     -0.502372    33A     -0.460135
      34A     -0.426321    35A     -0.407648    36A     -0.388067
      37A     -0.333400

  @DF-RHF Final Energy:  -774.24418726908402

   => Energetics <=

    Nuclear Repulsion Energy =            504.2454963892701585
    One-Electron Energy =               -2063.3984420403635340
    Two-Electron Energy =                 784.9087583820094096
    Total Energy =                       -774.2441872690840228
  Basis Set: (AUG-CC-PVTZ AUX)
    Blend: AUG-CC-PVTZ-RI
    Molecular point group: c1

    Geometry (in Angstrom), charge = 0, multiplicity = 1:

       Center              X                  Y                   Z               Mass
    ------------   -----------------  -----------------  -----------------  -----------------
         S            1.520326805749    -1.046428733027     0.000000951971    31.972071174400
         O           -1.454968194251    -1.524854733027    -0.000001048029    15.994914619570
         N           -2.044005194251     0.708099266973    -0.000000048029    14.003074004430
         N            0.650166805749     1.388646266973    -0.000001048029    14.003074004430
         C            0.254701805749     0.124109266973    -0.000000048029    12.000000000000
         C           -1.355454494251    -0.381953533027    -0.000001148029    12.000000000000
         C           -3.477847194251     0.499543266973     0.000000951971    12.000000000000
         C            2.660568805749     0.230153266973    -0.000000048029    12.000000000000
         C            2.015567805749     1.448913266973    -0.000000048029    12.000000000000
         H           -1.649503194251     1.642572266973     0.000000951971     1.007825032230
         H           -3.935667194251     0.938014266973    -0.891194048029     1.007825032230
         H           -3.935665194251     0.938006266973     0.891200951971     1.007825032230
         H           -3.648617194251    -0.576821733027    -0.000003048029     1.007825032230
         H            3.725735805749     0.037992266973     0.000000951971     1.007825032230
         H            2.509652805749     2.414373266973    -0.000000048029     1.007825032230

  Basis Set: AUG-CC-PVTZ
    Blend: AUG-CC-PVTZ
  Basis Set: (AUG-CC-PVTZ AUX)
    Blend: AUG-CC-PVTZ-JKFIT
	 Reference Energy          =    -774.2441872690840228 [Eh]
	 Singles Energy            =      -0.0000000000000000 [Eh]
	 Same-Spin Energy          =      -0.4568087182371963 [Eh]
	 Opposite-Spin Energy      =      -1.3649926036771276 [Eh]
	 Correlation Energy        =      -1.8218013219143239 [Eh]
	 Total Energy              =    -776.0659885909983586 [Eh]

	 ================> DF-SCS-MP2 Energies <==================
	-----------------------------------------------------------
	 SCS Same-Spin Scale       =       0.3333333333333333 [-]
	 SCS Opposite-Spin Scale   =       1.2000000000000000 [-]
	 SCS Same-Spin Energy      =      -0.1522695727457321 [Eh]
	 SCS Opposite-Spin Energy  =      -1.6379911244125531 [Eh]
	 SCS Correlation Energy    =      -1.7902606971582853 [Eh]
	 SCS Total Energy          =    -776.0344479662422827 [Eh]
	-----------------------------------------------------------

  Dipole Moment: [D]
     X:    -0.4674      Y:     2.1056      Z:     0.0000     Total:     2.1569

*** Psi4 exiting successfully. Buy a developer a beer!
