                               Psi4 1.3.2 release

  ==> Input File <==

--------------------------------------------------------------------------
#psi4
#
memory 32 gb

molecule  {
0 1
  S        1.5735291    -1.1068645     0.0000010
  O       -1.4242190    -1.5655850    -0.0000010
  N       -2.0132560     0.6673690     0.0000000
  N        0.6809160     1.3479160    -0.0000010
  C        0.2854510     0.0833790     0.0000000
  C       -1.1339070    -0.3627170    -0.0000010
  C       -3.4470980     0.4588130     0.0000010
  C        2.6913180     0.1894230     0.0000000
  C        2.0463170     1.4081830     0.0000000
  H       -1.6187540     1.6018420     0.0000010
  H       -3.9049180     0.8972840    -0.8911940
  H       -3.9049160     0.8972760     0.8912010
  H       -3.6178680    -0.6175520    -0.0000030
  H        3.7564850    -0.0027380     0.0000010
  H        2.5404020     2.3736430     0.0000000
units angstrom
no_reorient  #important for SAPT in psi4, default
symmetry c1  #important for SAPT in psi4, default
}

set PROPERTIES_ORIGIN ["COM"]
properties('MP2/aug-cc-pvtz', properties = ['dipole'])
--------------------------------------------------------------------------

    Molecular point group: c1
  Charge       = 0
  Multiplicity = 1
  Basis Set: AUG-CC-PVTZ
    Blend: AUG-CC-PVTZ
  Basis Set: (AUG-CC-PVTZ AUX)
    Blend: AUG-CC-PVTZ-JKFIT

    Orbital Energies [Eh]
    ---------------------

    Doubly Occupied:

       1A    -92.013470     2A    -20.529196     3A    -15.599197
       4A    -15.593908     5A    -11.369408     6A    -11.327378
       7A    -11.285104     8A    -11.283284     9A    -11.263817
      10A     -9.012745    11A     -6.693442    12A     -6.692860
      13A     -6.692280    14A     -1.383968    15A     -1.294991
      16A     -1.237908    17A     -1.080107    18A     -1.033476
      19A     -0.959068    20A     -0.848640    21A     -0.803857
      22A     -0.777440    23A     -0.718836    24A     -0.655563
      25A     -0.649754    26A     -0.633388    27A     -0.599581
      28A     -0.582911    29A     -0.563944    30A     -0.552149
      31A     -0.531827    32A     -0.519307    33A     -0.466641
      34A     -0.436890    35A     -0.409521    36A     -0.393099
      37A     -0.346465

  @DF-RHF Final Energy:  -774.27528987823803

   => Energetics <=

    Nuclear Repulsion Energy =            503.4769870970616239
    One-Electron Energy =               -2061.8337108475625428
    Two-Electron Energy =                 784.0814338722627781
    Total Energy =                       -774.2752898782380271
  Basis Set: (AUG-CC-PVTZ AUX)
    Blend: AUG-CC-PVTZ-RI
    Molecular point group: c1

    Geometry (in Angstrom), charge = 0, multiplicity = 1:

       Center              X                  Y                   Z               Mass
    ------------   -----------------  -----------------  -----------------  -----------------
         S            1.521603663441    -1.066764960379     0.000000943522    31.972071174400
         O           -1.476144436559    -1.525485460379    -0.000001056478    15.994914619570
         N           -2.065181436559     0.707468539621    -0.000000056478    14.003074004430
         N            0.628990563441     1.388015539621    -0.000001056478    14.003074004430
         C            0.233525563441     0.123478539621    -0.000000056478    12.000000000000
         C           -1.185832436559    -0.322617460379    -0.000001056478    12.000000000000
         C           -3.499023436559     0.498912539621     0.000000943522    12.000000000000
         C            2.639392563441     0.229522539621    -0.000000056478    12.000000000000
         C            1.994391563441     1.448282539621    -0.000000056478    12.000000000000
         H           -1.670679436559     1.641941539621     0.000000943522     1.007825032230
         H           -3.956843436559     0.937383539621    -0.891194056478     1.007825032230
         H           -3.956841436559     0.937375539621     0.891200943522     1.007825032230
         H           -3.669793436559    -0.577452460379    -0.000003056478     1.007825032230
         H            3.704559563441     0.037361539621     0.000000943522     1.007825032230
         H            2.488476563441     2.413742539621    -0.000000056478     1.007825032230

  Basis Set: AUG-CC-PVTZ
    Blend: AUG-CC-PVTZ
  Basis Set: (AUG-CC-PVTZ AUX)
    Blend: AUG-CC-PVTZ-JKFIT
	 Reference Energy          =    -774.2752898782380271 [Eh]
	 Singles Energy            =      -0.0000000000000000 [Eh]
	 Same-Spin Energy          =      -0.4587399687945940 [Eh]
	 Opposite-Spin Energy      =      -1.3695388051415818 [Eh]
	 Correlation Energy        =      -1.8282787739361757 [Eh]
	 Total Energy              =    -776.1035686521742036 [Eh]

	 ================> DF-SCS-MP2 Energies <==================
	-----------------------------------------------------------
	 SCS Same-Spin Scale       =       0.3333333333333333 [-]
	 SCS Opposite-Spin Scale   =       1.2000000000000000 [-]
	 SCS Same-Spin Energy      =      -0.1529133229315313 [Eh]
	 SCS Opposite-Spin Energy  =      -1.6434465661698980 [Eh]
	 SCS Correlation Energy    =      -1.7963598891014294 [Eh]
	 SCS Total Energy          =    -776.0716497673394088 [Eh]
	-----------------------------------------------------------

  Dipole Moment: [D]
     X:     1.1040      Y:     2.4691      Z:     0.0000     Total:     2.7046

*** Psi4 exiting successfully. Buy a developer a beer!
