                               Psi4 1.4a3.dev225

  ==> Input File <==

--------------------------------------------------------------------------
#psi4
#
memory 32 gb

molecule  {
0 1
  S        1.5510760    -1.0871590     0.0000010
  O       -1.4242190    -1.5655850    -0.0000010
  N       -2.0132560     0.6673690     0.0000000
  N        0.6809160     1.3479160    -0.0000010
  C        0.2705270     0.0356582     0.0000000
  C       -1.1339070    -0.3627170    -0.0000010
  C       -3.4470980     0.4588130     0.0000010
  C        2.6913180     0.1894230     0.0000000
  C        2.0463170     1.4081830     0.0000000
  H       -1.6187540     1.6018420     0.0000010
  H       -3.9049180     0.8972840    -0.8911940
  H       -3.9049160     0.8972760     0.8912010
  H       -3.6178680    -0.6175520    -0.0000030
  H        3.7564850    -0.0027380     0.0000010
  H        2.5404020     2.3736430     0.0000000
units angstrom
no_reorient  #important for SAPT in psi4, default
symmetry c1  #important for SAPT in psi4, default
}

set PROPERTIES_ORIGIN ["COM"]
properties('MP2/aug-cc-pvtz', properties = ['dipole'])
--------------------------------------------------------------------------

    Molecular point group: c1
  Charge       = 0
  Multiplicity = 1
  Basis Set: AUG-CC-PVTZ
    Blend: AUG-CC-PVTZ
  Basis Set: (AUG-CC-PVTZ AUX)
    Blend: AUG-CC-PVTZ-JKFIT

    Orbital Energies [Eh]
    ---------------------

    Doubly Occupied:

       1A    -92.017847     2A    -20.526807     3A    -15.599475
       4A    -15.592926     5A    -11.366762     6A    -11.324966
       7A    -11.286339     8A    -11.283245     9A    -11.263294
      10A     -9.017654    11A     -6.698351    12A     -6.697878
      13A     -6.697278    14A     -1.384107    15A     -1.283342
      16A     -1.236715    17A     -1.080017    18A     -1.039642
      19A     -0.959448    20A     -0.853846    21A     -0.799527
      22A     -0.777898    23A     -0.718010    24A     -0.655468
      25A     -0.650519    26A     -0.633161    27A     -0.596283
      28A     -0.581786    29A     -0.572152    30A     -0.551387
      31A     -0.530580    32A     -0.519320    33A     -0.460858
      34A     -0.440224    35A     -0.405809    36A     -0.391051
      37A     -0.348099

  @DF-RHF Final Energy:  -774.27017472642558

   => Energetics <=

    Nuclear Repulsion Energy =            504.8120581084225478
    One-Electron Energy =               -2064.4803238514618897
    Two-Electron Energy =                 785.3980910166136482
    Total Energy =                       -774.2701747264255800
  Basis Set: (AUG-CC-PVTZ AUX)
    Blend: AUG-CC-PVTZ-RI
    Molecular point group: c1

    Geometry (in Angstrom), charge = 0, multiplicity = 1:

       Center              X                  Y                   Z               Mass
    ------------   -----------------  -----------------  -----------------  -----------------
         S            1.505466290668    -1.047463459918     0.000000943522    31.972071174400
         O           -1.469828709332    -1.525889459918    -0.000001056478    15.994914619570
         N           -2.058865709332     0.707064540082    -0.000000056478    14.003074004430
         N            0.635306290668     1.387611540082    -0.000001056478    14.003074004430
         C            0.224917290668     0.075353740082    -0.000000056478    12.000000000000
         C           -1.179516709332    -0.323021459918    -0.000001056478    12.000000000000
         C           -3.492707709332     0.498508540082     0.000000943522    12.000000000000
         C            2.645708290668     0.229118540082    -0.000000056478    12.000000000000
         C            2.000707290668     1.447878540082    -0.000000056478    12.000000000000
         H           -1.664363709332     1.641537540082     0.000000943522     1.007825032230
         H           -3.950527709332     0.936979540082    -0.891194056478     1.007825032230
         H           -3.950525709332     0.936971540082     0.891200943522     1.007825032230
         H           -3.663477709332    -0.577856459918    -0.000003056478     1.007825032230
         H            3.710875290668     0.036957540082     0.000000943522     1.007825032230
         H            2.494792290668     2.413338540082    -0.000000056478     1.007825032230

  Basis Set: AUG-CC-PVTZ
    Blend: AUG-CC-PVTZ
  Basis Set: (AUG-CC-PVTZ AUX)
    Blend: AUG-CC-PVTZ-JKFIT
	 Reference Energy          =    -774.2701747264255800 [Eh]
	 Singles Energy            =      -0.0000000000000000 [Eh]
	 Same-Spin Energy          =      -0.4602915154216084 [Eh]
	 Opposite-Spin Energy      =      -1.3711740357553006 [Eh]
	 Correlation Energy        =      -1.8314655511769091 [Eh]
	 Total Energy              =    -776.1016402776025416 [Eh]

	 ================> DF-SCS-MP2 Energies <==================
	-----------------------------------------------------------
	 SCS Same-Spin Scale       =       0.3333333333333333 [-]
	 SCS Opposite-Spin Scale   =       1.2000000000000000 [-]
	 SCS Same-Spin Energy      =      -0.1534305051405361 [Eh]
	 SCS Opposite-Spin Energy  =      -1.6454088429063607 [Eh]
	 SCS Correlation Energy    =      -1.7988393480468967 [Eh]
	 SCS Total Energy          =    -776.0690140744724204 [Eh]
	-----------------------------------------------------------

  Dipole Moment: [D]
     X:     1.2823      Y:     2.3983      Z:     0.0000     Total:     2.7196

*** Psi4 exiting successfully. Buy a developer a beer!
