                               Psi4 1.4a3.dev225

  ==> Input File <==

--------------------------------------------------------------------------
#psi4
#
memory 32 gb

molecule  {
0 1
  S        1.5510760    -1.0871590     0.0000010
  O       -1.4242190    -1.5655850    -0.0000010
  N       -2.0132560     0.6673690     0.0000000
  N        0.6809160     1.3479160    -0.0000010
  C        0.2487436     0.1173285    -0.0000000
  C       -1.1339070    -0.3627170    -0.0000010
  C       -3.4470980     0.4588130     0.0000010
  C        2.6913180     0.1894230     0.0000000
  C        2.0463170     1.4081830     0.0000000
  H       -1.6187540     1.6018420     0.0000010
  H       -3.9049180     0.8972840    -0.8911940
  H       -3.9049160     0.8972760     0.8912010
  H       -3.6178680    -0.6175520    -0.0000030
  H        3.7564850    -0.0027380     0.0000010
  H        2.5404020     2.3736430     0.0000000
units angstrom
no_reorient  #important for SAPT in psi4, default
symmetry c1  #important for SAPT in psi4, default
}

set PROPERTIES_ORIGIN ["COM"]
properties('MP2/aug-cc-pvtz', properties = ['dipole'])
--------------------------------------------------------------------------

    Molecular point group: c1
  Charge       = 0
  Multiplicity = 1
  Basis Set: AUG-CC-PVTZ
    Blend: AUG-CC-PVTZ
  Basis Set: (AUG-CC-PVTZ AUX)
    Blend: AUG-CC-PVTZ-JKFIT

    Orbital Energies [Eh]
    ---------------------

    Doubly Occupied:

       1A    -92.008875     2A    -20.530991     3A    -15.598919
       4A    -15.594414     5A    -11.369376     6A    -11.325777
       7A    -11.285895     8A    -11.284461     9A    -11.264020
      10A     -9.008144    11A     -6.688838    12A     -6.688249
      13A     -6.687687    14A     -1.385951    15A     -1.300214
      16A     -1.239580    17A     -1.078838    18A     -1.037168
      19A     -0.960487    20A     -0.853284    21A     -0.807760
      22A     -0.778325    23A     -0.717737    24A     -0.658259
      25A     -0.651699    26A     -0.635243    27A     -0.604468
      28A     -0.585008    29A     -0.564710    30A     -0.552694
      31A     -0.532607    32A     -0.515496    33A     -0.464727
      34A     -0.434927    35A     -0.410615    36A     -0.393437
      37A     -0.346707

  @DF-RHF Final Energy:  -774.27449700988507

   => Energetics <=

    Nuclear Repulsion Energy =            504.6017304320028529
    One-Electron Energy =               -2064.0612765294249584
    Two-Electron Energy =                 785.1850490875370951
    Total Energy =                       -774.2744970098850672
  Basis Set: (AUG-CC-PVTZ AUX)
    Blend: AUG-CC-PVTZ-RI
    Molecular point group: c1

    Geometry (in Angstrom), charge = 0, multiplicity = 1:

       Center              X                  Y                   Z               Mass
    ------------   -----------------  -----------------  -----------------  -----------------
         S            1.507306881046    -1.054364199394     0.000000943522    31.972071174400
         O           -1.467988118954    -1.532790199394    -0.000001056478    15.994914619570
         N           -2.057025118954     0.700163800606    -0.000000056478    14.003074004430
         N            0.637146881046     1.380710800606    -0.000001056478    14.003074004430
         C            0.204974481046     0.150123300606    -0.000000056478    12.000000000000
         C           -1.177676118954    -0.329922199394    -0.000001056478    12.000000000000
         C           -3.490867118954     0.491607800606     0.000000943522    12.000000000000
         C            2.647548881046     0.222217800606    -0.000000056478    12.000000000000
         C            2.002547881046     1.440977800606    -0.000000056478    12.000000000000
         H           -1.662523118954     1.634636800606     0.000000943522     1.007825032230
         H           -3.948687118954     0.930078800606    -0.891194056478     1.007825032230
         H           -3.948685118954     0.930070800606     0.891200943522     1.007825032230
         H           -3.661637118954    -0.584757199394    -0.000003056478     1.007825032230
         H            3.712715881046     0.030056800606     0.000000943522     1.007825032230
         H            2.496632881046     2.406437800606    -0.000000056478     1.007825032230

  Basis Set: AUG-CC-PVTZ
    Blend: AUG-CC-PVTZ
  Basis Set: (AUG-CC-PVTZ AUX)
    Blend: AUG-CC-PVTZ-JKFIT
	 Reference Energy          =    -774.2744970098850672 [Eh]
	 Singles Energy            =      -0.0000000000000000 [Eh]
	 Same-Spin Energy          =      -0.4587893405134462 [Eh]
	 Opposite-Spin Energy      =      -1.3692584891055404 [Eh]
	 Correlation Energy        =      -1.8280478296189866 [Eh]
	 Total Energy              =    -776.1025448395040485 [Eh]

	 ================> DF-SCS-MP2 Energies <==================
	-----------------------------------------------------------
	 SCS Same-Spin Scale       =       0.3333333333333333 [-]
	 SCS Opposite-Spin Scale   =       1.2000000000000000 [-]
	 SCS Same-Spin Energy      =      -0.1529297801711487 [Eh]
	 SCS Opposite-Spin Energy  =      -1.6431101869266485 [Eh]
	 SCS Correlation Energy    =      -1.7960399670977971 [Eh]
	 SCS Total Energy          =    -776.0705369769829076 [Eh]
	-----------------------------------------------------------

  Dipole Moment: [D]
     X:     1.0180      Y:     2.5761      Z:     0.0000     Total:     2.7699

*** Psi4 exiting successfully. Buy a developer a beer!
