                               Psi4 1.3.2 release

  ==> Input File <==

--------------------------------------------------------------------------
#psi4
#
memory 32 gb

molecule  {
0 1
  S        1.5510760    -1.0871590     0.0000010
  O       -1.4242190    -1.5655850    -0.0000010
  N       -2.0132560     0.6673690     0.0000000
  N        0.6809160     1.3479160    -0.0000010
  C        0.2854510     0.0833790     0.0000000
  C       -1.1339070    -0.3627170    -0.0000010
  C       -3.4470980     0.4588130     0.0000010
  C        2.6913180     0.1894230     0.0000000
  C        2.1772455     1.4689275     0.0000002
  H       -1.6187540     1.6018420     0.0000010
  H       -3.9049180     0.8972840    -0.8911940
  H       -3.9049160     0.8972760     0.8912010
  H       -3.6178680    -0.6175520    -0.0000030
  H        3.7564850    -0.0027380     0.0000010
  H        2.5404020     2.3736430     0.0000000
units angstrom
no_reorient  #important for SAPT in psi4, default
symmetry c1  #important for SAPT in psi4, default
}

set PROPERTIES_ORIGIN ["COM"]
properties('MP2/aug-cc-pvtz', properties = ['dipole'])
--------------------------------------------------------------------------

    Molecular point group: c1
  Charge       = 0
  Multiplicity = 1
  Basis Set: AUG-CC-PVTZ
    Blend: AUG-CC-PVTZ
  Basis Set: (AUG-CC-PVTZ AUX)
    Blend: AUG-CC-PVTZ-JKFIT

    Orbital Energies [Eh]
    ---------------------

    Doubly Occupied:

       1A    -92.010316     2A    -20.531208     3A    -15.601120
       4A    -15.593592     5A    -11.370653     6A    -11.324908
       7A    -11.289661     8A    -11.287446     9A    -11.263668
      10A     -9.010560    11A     -6.691392    12A     -6.690689
      13A     -6.689978    14A     -1.385323    15A     -1.268424
      16A     -1.235380    17A     -1.074025    18A     -1.033972
      19A     -0.963403    20A     -0.852080    21A     -0.812944
      22A     -0.777017    23A     -0.712115    24A     -0.664076
      25A     -0.650066    26A     -0.632861    27A     -0.597926
      28A     -0.575942    29A     -0.561138    30A     -0.551570
      31A     -0.535712    32A     -0.527239    33A     -0.461236
      34A     -0.429210    35A     -0.405168    36A     -0.387085
      37A     -0.356532

  @DF-RHF Final Energy:  -774.25109960748739

   => Energetics <=

    Nuclear Repulsion Energy =            501.8657949767875266
    One-Electron Energy =               -2058.6225222683565335
    Two-Electron Energy =                 782.5056276840815599
    Total Energy =                       -774.2510996074873901
  Basis Set: (AUG-CC-PVTZ AUX)
    Blend: AUG-CC-PVTZ-RI
    Molecular point group: c1

    Geometry (in Angstrom), charge = 0, multiplicity = 1:

       Center              X                  Y                   Z               Mass
    ------------   -----------------  -----------------  -----------------  -----------------
         S            1.493142470327    -1.056628245372     0.000000926623    31.972071174400
         O           -1.482152529673    -1.535054245372    -0.000001073377    15.994914619570
         N           -2.071189529673     0.697899754628    -0.000000073377    14.003074004430
         N            0.622982470327     1.378446754628    -0.000001073377    14.003074004430
         C            0.227517470327     0.113909754628    -0.000000073377    12.000000000000
         C           -1.191840529673    -0.332186245372    -0.000001073377    12.000000000000
         C           -3.505031529673     0.489343754628     0.000000926623    12.000000000000
         C            2.633384470327     0.219953754628    -0.000000073377    12.000000000000
         C            2.119311970327     1.499458254628     0.000000126623    12.000000000000
         H           -1.676687529673     1.632372754628     0.000000926623     1.007825032230
         H           -3.962851529673     0.927814754628    -0.891194073377     1.007825032230
         H           -3.962849529673     0.927806754628     0.891200926623     1.007825032230
         H           -3.675801529673    -0.587021245372    -0.000003073377     1.007825032230
         H            3.698551470327     0.027792754628     0.000000926623     1.007825032230
         H            2.482468470327     2.404173754628    -0.000000073377     1.007825032230

  Basis Set: AUG-CC-PVTZ
    Blend: AUG-CC-PVTZ
  Basis Set: (AUG-CC-PVTZ AUX)
    Blend: AUG-CC-PVTZ-JKFIT
	 Reference Energy          =    -774.2510996074873901 [Eh]
	 Singles Energy            =      -0.0000000000000000 [Eh]
	 Same-Spin Energy          =      -0.4573747489002172 [Eh]
	 Opposite-Spin Energy      =      -1.3709621051745300 [Eh]
	 Correlation Energy        =      -1.8283368540747471 [Eh]
	 Total Energy              =    -776.0794364615621816 [Eh]

	 ================> DF-SCS-MP2 Energies <==================
	-----------------------------------------------------------
	 SCS Same-Spin Scale       =       0.3333333333333333 [-]
	 SCS Opposite-Spin Scale   =       1.2000000000000000 [-]
	 SCS Same-Spin Energy      =      -0.1524582496334057 [Eh]
	 SCS Opposite-Spin Energy  =      -1.6451545262094360 [Eh]
	 SCS Correlation Energy    =      -1.7976127758428417 [Eh]
	 SCS Total Energy          =    -776.0487123833302121 [Eh]
	-----------------------------------------------------------

  Dipole Moment: [D]
     X:     1.0407      Y:     2.5005      Z:     0.0000     Total:     2.7085

*** Psi4 exiting successfully. Buy a developer a beer!
