                               Psi4 1.4a3.dev225

  ==> Input File <==

--------------------------------------------------------------------------
#psi4
#
memory 32 gb

molecule  {
0 1
  S        1.5510760    -1.0871590     0.0000010
  O       -1.4242190    -1.5655850    -0.0000010
  N       -2.0132560     0.6673690     0.0000000
  N        0.6809160     1.3479160    -0.0000010
  C        0.2854510     0.0833790     0.0000000
  C       -1.1339070    -0.3627170    -0.0000010
  C       -3.4470980     0.4588130     0.0000010
  C        2.6913180     0.1894230     0.0000000
  C        2.0463170     1.4081830     0.0000000
  H       -1.6187540     1.6018420     0.0000010
  H       -3.9049180     0.8972840    -0.8911940
  H       -3.9049160     0.8972760     0.8912010
  H       -3.6178680    -0.6175520    -0.0000030
  H        3.7072793     0.0061389     0.0000010
  H        2.5404020     2.3736430     0.0000000
units angstrom
no_reorient  #important for SAPT in psi4, default
symmetry c1  #important for SAPT in psi4, default
}

set PROPERTIES_ORIGIN ["COM"]
properties('MP2/aug-cc-pvtz', properties = ['dipole'])
--------------------------------------------------------------------------

    Molecular point group: c1
  Charge       = 0
  Multiplicity = 1
  Basis Set: AUG-CC-PVTZ
    Blend: AUG-CC-PVTZ
  Basis Set: (AUG-CC-PVTZ AUX)
    Blend: AUG-CC-PVTZ-JKFIT

    Orbital Energies [Eh]
    ---------------------

    Doubly Occupied:

       1A    -92.012589     2A    -20.529167     3A    -15.596860
       4A    -15.593791     5A    -11.369281     6A    -11.324535
       7A    -11.284923     8A    -11.277464     9A    -11.263730
      10A     -9.012513    11A     -6.693222    12A     -6.692692
      13A     -6.692070    14A     -1.384158    15A     -1.296028
      16A     -1.237915    17A     -1.082509    18A     -1.036340
      19A     -0.960392    20A     -0.848850    21A     -0.810434
      22A     -0.777556    23A     -0.722107    24A     -0.655662
      25A     -0.652605    26A     -0.633571    27A     -0.601030
      28A     -0.584346    29A     -0.571136    30A     -0.552083
      31A     -0.532116    32A     -0.517751    33A     -0.466390
      34A     -0.436641    35A     -0.408563    36A     -0.392478
      37A     -0.348486

  @DF-RHF Final Energy:  -774.27573210038702

   => Energetics <=

    Nuclear Repulsion Energy =            505.1114935843630747
    One-Electron Energy =               -2065.0704899382421900
    Two-Electron Energy =                 785.6832642534922115
    Total Energy =                       -774.2757321003870175
  Basis Set: (AUG-CC-PVTZ AUX)
    Blend: AUG-CC-PVTZ-RI
    Molecular point group: c1

    Geometry (in Angstrom), charge = 0, multiplicity = 1:

       Center              X                  Y                   Z               Mass
    ------------   -----------------  -----------------  -----------------  -----------------
         S            1.504554467072    -1.051558626923     0.000000943522    31.972071174400
         O           -1.470740532928    -1.529984626923    -0.000001056478    15.994914619570
         N           -2.059777532928     0.702969373077    -0.000000056478    14.003074004430
         N            0.634394467072     1.383516373077    -0.000001056478    14.003074004430
         C            0.238929467072     0.118979373077    -0.000000056478    12.000000000000
         C           -1.180428532928    -0.327116626923    -0.000001056478    12.000000000000
         C           -3.493619532928     0.494413373077     0.000000943522    12.000000000000
         C            2.644796467072     0.225023373077    -0.000000056478    12.000000000000
         C            1.999795467072     1.443783373077    -0.000000056478    12.000000000000
         H           -1.665275532928     1.637442373077     0.000000943522     1.007825032230
         H           -3.951439532928     0.932884373077    -0.891194056478     1.007825032230
         H           -3.951437532928     0.932876373077     0.891200943522     1.007825032230
         H           -3.664389532928    -0.581951626923    -0.000003056478     1.007825032230
         H            3.660757767072     0.041739273077     0.000000943522     1.007825032230
         H            2.493880467072     2.409243373077    -0.000000056478     1.007825032230

  Basis Set: AUG-CC-PVTZ
    Blend: AUG-CC-PVTZ
  Basis Set: (AUG-CC-PVTZ AUX)
    Blend: AUG-CC-PVTZ-JKFIT
	 Reference Energy          =    -774.2757321003870175 [Eh]
	 Singles Energy            =      -0.0000000000000000 [Eh]
	 Same-Spin Energy          =      -0.4587364574538179 [Eh]
	 Opposite-Spin Energy      =      -1.3688604013824490 [Eh]
	 Correlation Energy        =      -1.8275968588362670 [Eh]
	 Total Energy              =    -776.1033289592232904 [Eh]

	 ================> DF-SCS-MP2 Energies <==================
	-----------------------------------------------------------
	 SCS Same-Spin Scale       =       0.3333333333333333 [-]
	 SCS Opposite-Spin Scale   =       1.2000000000000000 [-]
	 SCS Same-Spin Energy      =      -0.1529121524846060 [Eh]
	 SCS Opposite-Spin Energy  =      -1.6426324816589388 [Eh]
	 SCS Correlation Energy    =      -1.7955446341435448 [Eh]
	 SCS Total Energy          =    -776.0712767345305565 [Eh]
	-----------------------------------------------------------

  Dipole Moment: [D]
     X:     1.1126      Y:     2.4541      Z:     0.0000     Total:     2.6945

*** Psi4 exiting successfully. Buy a developer a beer!
