                               Psi4 1.4a3.dev225

  ==> Input File <==

--------------------------------------------------------------------------
#psi4
#
memory 32 gb

molecule  {
0 1
  S        1.5510760    -1.0871590     0.0000010
  O       -1.4242190    -1.5655850    -0.0000010
  N       -2.0132560     0.6673690     0.0000000
  N        0.6809160     1.3479160    -0.0000010
  C        0.2854510     0.0833790     0.0000000
  C       -1.1339070    -0.3627170    -0.0000010
  C       -3.4470980     0.4588130     0.0000010
  C        2.6913180     0.1894230     0.0000000
  C        2.0962684     1.4103878     0.0000000
  H       -1.6187540     1.6018420     0.0000010
  H       -3.9049180     0.8972840    -0.8911940
  H       -3.9049160     0.8972760     0.8912010
  H       -3.6178680    -0.6175520    -0.0000030
  H        3.7564850    -0.0027380     0.0000010
  H        2.5404020     2.3736430     0.0000000
units angstrom
no_reorient  #important for SAPT in psi4, default
symmetry c1  #important for SAPT in psi4, default
}

set PROPERTIES_ORIGIN ["COM"]
properties('MP2/aug-cc-pvtz', properties = ['dipole'])
--------------------------------------------------------------------------

    Molecular point group: c1
  Charge       = 0
  Multiplicity = 1
  Basis Set: AUG-CC-PVTZ
    Blend: AUG-CC-PVTZ
  Basis Set: (AUG-CC-PVTZ AUX)
    Blend: AUG-CC-PVTZ-JKFIT

    Orbital Energies [Eh]
    ---------------------

    Doubly Occupied:

       1A    -92.010460     2A    -20.530363     3A    -15.598716
       4A    -15.594129     5A    -11.370091     6A    -11.325351
       7A    -11.284328     8A    -11.281586     9A    -11.263959
      10A     -9.010638    11A     -6.691400    12A     -6.690811
      13A     -6.690124    14A     -1.384937    15A     -1.285542
      16A     -1.237696    17A     -1.079340    18A     -1.035896
      19A     -0.961970    20A     -0.849739    21A     -0.803754
      22A     -0.778070    23A     -0.716442    24A     -0.656790
      25A     -0.651005    26A     -0.633546    27A     -0.596487
      28A     -0.581439    29A     -0.565846    30A     -0.552459
      31A     -0.531146    32A     -0.525522    33A     -0.465335
      34A     -0.435154    35A     -0.406821    36A     -0.390377
      37A     -0.354585

  @DF-RHF Final Energy:  -774.27479839621753

   => Energetics <=

    Nuclear Repulsion Energy =            504.0691669382714508
    One-Electron Energy =               -2063.0442208703084361
    Two-Electron Energy =                 784.7002555358195650
    Total Energy =                       -774.2747983962175340
  Basis Set: (AUG-CC-PVTZ AUX)
    Blend: AUG-CC-PVTZ-RI
    Molecular point group: c1

    Geometry (in Angstrom), charge = 0, multiplicity = 1:

       Center              X                  Y                   Z               Mass
    ------------   -----------------  -----------------  -----------------  -----------------
         S            1.499984637806    -1.051681928061     0.000000943522    31.972071174400
         O           -1.475310362194    -1.530107928061    -0.000001056478    15.994914619570
         N           -2.064347362194     0.702846071939    -0.000000056478    14.003074004430
         N            0.629824637806     1.383393071939    -0.000001056478    14.003074004430
         C            0.234359637806     0.118856071939    -0.000000056478    12.000000000000
         C           -1.184998362194    -0.327239928061    -0.000001056478    12.000000000000
         C           -3.498189362194     0.494290071939     0.000000943522    12.000000000000
         C            2.640226637806     0.224900071939    -0.000000056478    12.000000000000
         C            2.045177037806     1.445864871939    -0.000000056478    12.000000000000
         H           -1.669845362194     1.637319071939     0.000000943522     1.007825032230
         H           -3.956009362194     0.932761071939    -0.891194056478     1.007825032230
         H           -3.956007362194     0.932753071939     0.891200943522     1.007825032230
         H           -3.668959362194    -0.582074928061    -0.000003056478     1.007825032230
         H            3.705393637806     0.032739071939     0.000000943522     1.007825032230
         H            2.489310637806     2.409120071939    -0.000000056478     1.007825032230

  Basis Set: AUG-CC-PVTZ
    Blend: AUG-CC-PVTZ
  Basis Set: (AUG-CC-PVTZ AUX)
    Blend: AUG-CC-PVTZ-JKFIT
	 Reference Energy          =    -774.2747983962175340 [Eh]
	 Singles Energy            =      -0.0000000000000000 [Eh]
	 Same-Spin Energy          =      -0.4577822455965080 [Eh]
	 Opposite-Spin Energy      =      -1.3688220261824566 [Eh]
	 Correlation Energy        =      -1.8266042717789648 [Eh]
	 Total Energy              =    -776.1014026679964672 [Eh]

	 ================> DF-SCS-MP2 Energies <==================
	-----------------------------------------------------------
	 SCS Same-Spin Scale       =       0.3333333333333333 [-]
	 SCS Opposite-Spin Scale   =       1.2000000000000000 [-]
	 SCS Same-Spin Energy      =      -0.1525940818655027 [Eh]
	 SCS Opposite-Spin Energy  =      -1.6425864314189480 [Eh]
	 SCS Correlation Energy    =      -1.7951805132844507 [Eh]
	 SCS Total Energy          =    -776.0699789095019696 [Eh]
	-----------------------------------------------------------

  Dipole Moment: [D]
     X:     1.0881      Y:     2.4659      Z:     0.0000     Total:     2.6953

*** Psi4 exiting successfully. Buy a developer a beer!
