                               Psi4 1.4a3.dev225

  ==> Input File <==

--------------------------------------------------------------------------
#psi4
#
memory 32 gb

molecule  {
0 1
  S        1.5510760    -1.0871590     0.0000010
  O       -1.4242190    -1.5655850    -0.0000010
  N       -2.0132560     0.6673690     0.0000000
  N        0.6809160     1.3479160    -0.0000010
  C        0.2854510     0.0833790     0.0000000
  C       -1.1339070    -0.3627170    -0.0000010
  C       -3.4470980     0.4588130     0.0000010
  C        2.6913180     0.1894230     0.0000000
  C        1.9963656     1.4059782    -0.0000000
  H       -1.6187540     1.6018420     0.0000010
  H       -3.9049180     0.8972840    -0.8911940
  H       -3.9049160     0.8972760     0.8912010
  H       -3.6178680    -0.6175520    -0.0000030
  H        3.7564850    -0.0027380     0.0000010
  H        2.5404020     2.3736430     0.0000000
units angstrom
no_reorient  #important for SAPT in psi4, default
symmetry c1  #important for SAPT in psi4, default
}

set PROPERTIES_ORIGIN ["COM"]
properties('MP2/aug-cc-pvtz', properties = ['dipole'])
--------------------------------------------------------------------------

    Molecular point group: c1
  Charge       = 0
  Multiplicity = 1
  Basis Set: AUG-CC-PVTZ
    Blend: AUG-CC-PVTZ
  Basis Set: (AUG-CC-PVTZ AUX)
    Blend: AUG-CC-PVTZ-JKFIT

    Orbital Energies [Eh]
    ---------------------

    Doubly Occupied:

       1A    -92.015673     2A    -20.527768     3A    -15.594847
       4A    -15.593350     5A    -11.368357     6A    -11.323383
       7A    -11.286159     8A    -11.283995     9A    -11.263442
      10A     -9.015243    11A     -6.695883    12A     -6.695416
      13A     -6.694860    14A     -1.383308    15A     -1.308743
      16A     -1.237907    17A     -1.084451    18A     -1.035240
      19A     -0.957494    20A     -0.846334    21A     -0.807211
      22A     -0.776651    23A     -0.721991    24A     -0.654440
      25A     -0.649109    26A     -0.633692    27A     -0.602836
      28A     -0.588179    29A     -0.568600    30A     -0.551607
      31A     -0.533201    32A     -0.510491    33A     -0.466373
      34A     -0.437399    35A     -0.411665    36A     -0.394177
      37A     -0.342168

  @DF-RHF Final Energy:  -774.27256658474687

   => Energetics <=

    Nuclear Repulsion Energy =            505.6245255253074333
    One-Electron Energy =               -2066.0708977872309333
    Two-Electron Energy =                 786.1738056771765741
    Total Energy =                       -774.2725665847468690
  Basis Set: (AUG-CC-PVTZ AUX)
    Blend: AUG-CC-PVTZ-RI
    Molecular point group: c1

    Geometry (in Angstrom), charge = 0, multiplicity = 1:

       Center              X                  Y                   Z               Mass
    ------------   -----------------  -----------------  -----------------  -----------------
         S            1.508425934038    -1.051309338505     0.000000943522    31.972071174400
         O           -1.466869065962    -1.529735338505    -0.000001056478    15.994914619570
         N           -2.055906065962     0.703218661495    -0.000000056478    14.003074004430
         N            0.638265934038     1.383765661495    -0.000001056478    14.003074004430
         C            0.242800934038     0.119228661495    -0.000000056478    12.000000000000
         C           -1.176557065962    -0.326867338505    -0.000001056478    12.000000000000
         C           -3.489748065962     0.494662661495     0.000000943522    12.000000000000
         C            2.648667934038     0.225272661495    -0.000000056478    12.000000000000
         C            1.953715534038     1.441827861495    -0.000000056478    12.000000000000
         H           -1.661404065962     1.637691661495     0.000000943522     1.007825032230
         H           -3.947568065962     0.933133661495    -0.891194056478     1.007825032230
         H           -3.947566065962     0.933125661495     0.891200943522     1.007825032230
         H           -3.660518065962    -0.581702338505    -0.000003056478     1.007825032230
         H            3.713834934038     0.033111661495     0.000000943522     1.007825032230
         H            2.497751934038     2.409492661495    -0.000000056478     1.007825032230

  Basis Set: AUG-CC-PVTZ
    Blend: AUG-CC-PVTZ
  Basis Set: (AUG-CC-PVTZ AUX)
    Blend: AUG-CC-PVTZ-JKFIT
	 Reference Energy          =    -774.2725665847468690 [Eh]
	 Singles Energy            =      -0.0000000000000000 [Eh]
	 Same-Spin Energy          =      -0.4600202943352991 [Eh]
	 Opposite-Spin Energy      =      -1.3696416324647613 [Eh]
	 Correlation Energy        =      -1.8296619268000605 [Eh]
	 Total Energy              =    -776.1022285115469685 [Eh]

	 ================> DF-SCS-MP2 Energies <==================
	-----------------------------------------------------------
	 SCS Same-Spin Scale       =       0.3333333333333333 [-]
	 SCS Opposite-Spin Scale   =       1.2000000000000000 [-]
	 SCS Same-Spin Energy      =      -0.1533400981117664 [Eh]
	 SCS Opposite-Spin Energy  =      -1.6435699589577135 [Eh]
	 SCS Correlation Energy    =      -1.7969100570694798 [Eh]
	 SCS Total Energy          =    -776.0694766418163226 [Eh]
	-----------------------------------------------------------

  Dipole Moment: [D]
     X:     1.1493      Y:     2.4410      Z:     0.0000     Total:     2.6980

*** Psi4 exiting successfully. Buy a developer a beer!
