                               Psi4 1.3.2 release

  ==> Input File <==

--------------------------------------------------------------------------
#psi4
#
memory 32 gb

molecule  {
0 1
  S        1.5510760    -1.0871590     0.0000010
  O       -1.4242190    -1.5655850    -0.0000010
  N       -2.0132560     0.6673690     0.0000000
  N        0.7248068     1.3333441    -0.0000009
  C        0.2854510     0.0833790     0.0000000
  C       -1.1339070    -0.3627170    -0.0000010
  C       -3.4470980     0.4588130     0.0000010
  C        2.6913180     0.1894230     0.0000000
  C        2.0463170     1.4081830     0.0000000
  H       -1.6187540     1.6018420     0.0000010
  H       -3.9049180     0.8972840    -0.8911940
  H       -3.9049160     0.8972760     0.8912010
  H       -3.6178680    -0.6175520    -0.0000030
  H        3.7564850    -0.0027380     0.0000010
  H        2.5404020     2.3736430     0.0000000
units angstrom
no_reorient  #important for SAPT in psi4, default
symmetry c1  #important for SAPT in psi4, default
}

set PROPERTIES_ORIGIN ["COM"]
properties('MP2/aug-cc-pvtz', properties = ['dipole'])
--------------------------------------------------------------------------

    Molecular point group: c1
  Charge       = 0
  Multiplicity = 1
  Basis Set: AUG-CC-PVTZ
    Blend: AUG-CC-PVTZ
  Basis Set: (AUG-CC-PVTZ AUX)
    Blend: AUG-CC-PVTZ-JKFIT

    Orbital Energies [Eh]
    ---------------------

    Doubly Occupied:

       1A    -92.013133     2A    -20.529077     3A    -15.594452
       4A    -15.591504     5A    -11.370223     6A    -11.322679
       7A    -11.281891     8A    -11.280029     9A    -11.264049
      10A     -9.012878    11A     -6.693537    12A     -6.693062
      13A     -6.692478    14A     -1.384220    15A     -1.305096
      16A     -1.238857    17A     -1.079732    18A     -1.039390
      19A     -0.960321    20A     -0.848129    21A     -0.808548
      22A     -0.777953    23A     -0.720337    24A     -0.660239
      25A     -0.650768    26A     -0.634087    27A     -0.603176
      28A     -0.587388    29A     -0.566818    30A     -0.552081
      31A     -0.534023    32A     -0.516604    33A     -0.460981
      34A     -0.435689    35A     -0.408767    36A     -0.393855
      37A     -0.346195

  @DF-RHF Final Energy:  -774.27549387454292

   => Energetics <=

    Nuclear Repulsion Energy =            505.5027068426140318
    One-Electron Energy =               -2065.8519119085985949
    Two-Electron Energy =                 786.0737111914415891
    Total Energy =                       -774.2754938745429172
  Basis Set: (AUG-CC-PVTZ AUX)
    Blend: AUG-CC-PVTZ-RI
    Molecular point group: c1

    Geometry (in Angstrom), charge = 0, multiplicity = 1:

       Center              X                  Y                   Z               Mass
    ------------   -----------------  -----------------  -----------------  -----------------
         S            1.499877685887    -1.050058854848     0.000000933662    31.972071174400
         O           -1.475417314113    -1.528484854848    -0.000001066338    15.994914619570
         N           -2.064454314113     0.704469145152    -0.000000066338    14.003074004430
         N            0.673608485887     1.370444245152    -0.000000966338    14.003074004430
         C            0.234252685887     0.120479145152    -0.000000066338    12.000000000000
         C           -1.185105314113    -0.325616854848    -0.000001066338    12.000000000000
         C           -3.498296314113     0.495913145152     0.000000933662    12.000000000000
         C            2.640119685887     0.226523145152    -0.000000066338    12.000000000000
         C            1.995118685887     1.445283145152    -0.000000066338    12.000000000000
         H           -1.669952314113     1.638942145152     0.000000933662     1.007825032230
         H           -3.956116314113     0.934384145152    -0.891194066338     1.007825032230
         H           -3.956114314113     0.934376145152     0.891200933662     1.007825032230
         H           -3.669066314113    -0.580451854848    -0.000003066338     1.007825032230
         H            3.705286685887     0.034362145152     0.000000933662     1.007825032230
         H            2.489203685887     2.410743145152    -0.000000066338     1.007825032230

  Basis Set: AUG-CC-PVTZ
    Blend: AUG-CC-PVTZ
  Basis Set: (AUG-CC-PVTZ AUX)
    Blend: AUG-CC-PVTZ-JKFIT
	 Reference Energy          =    -774.2754938745429172 [Eh]
	 Singles Energy            =      -0.0000000000000000 [Eh]
	 Same-Spin Energy          =      -0.4594595122333683 [Eh]
	 Opposite-Spin Energy      =      -1.3686827816935545 [Eh]
	 Correlation Energy        =      -1.8281422939269230 [Eh]
	 Total Energy              =    -776.1036361684698477 [Eh]

	 ================> DF-SCS-MP2 Energies <==================
	-----------------------------------------------------------
	 SCS Same-Spin Scale       =       0.3333333333333333 [-]
	 SCS Opposite-Spin Scale   =       1.2000000000000000 [-]
	 SCS Same-Spin Energy      =      -0.1531531707444561 [Eh]
	 SCS Opposite-Spin Energy  =      -1.6424193380322654 [Eh]
	 SCS Correlation Energy    =      -1.7955725087767216 [Eh]
	 SCS Total Energy          =    -776.0710663833195895 [Eh]
	-----------------------------------------------------------

  Dipole Moment: [D]
     X:     1.0426      Y:     2.5049      Z:     0.0000     Total:     2.7132

*** Psi4 exiting successfully. Buy a developer a beer!
