                               Psi4 1.4a3.dev225

  ==> Input File <==

--------------------------------------------------------------------------
#psi4
#
memory 32 gb

molecule  {
0 1
  S        1.5510760    -1.0871590     0.0000010
  O       -1.4242190    -1.5655850    -0.0000010
  N       -2.0132560     0.6673690     0.0000000
  N        0.6809160     1.3479160    -0.0000010
  C        0.2854510     0.0833790     0.0000000
  C       -1.1339070    -0.3627170    -0.0000010
  C       -3.4470980     0.4588130     0.0000010
  C        2.6913180     0.1894230     0.0000000
  C        2.0463170     1.4081830     0.0000000
  H       -1.6187540     1.6018420     0.0000010
  H       -3.9049180     0.8972840    -0.8911940
  H       -3.9049160     0.8972760     0.8912010
  H       -3.6178680    -0.6175520    -0.0000030
  H        3.7761673    -0.0062888     0.0000010
  H        2.5404020     2.3736430     0.0000000
units angstrom
no_reorient  #important for SAPT in psi4, default
symmetry c1  #important for SAPT in psi4, default
}

set PROPERTIES_ORIGIN ["COM"]
properties('MP2/aug-cc-pvtz', properties = ['dipole'])
--------------------------------------------------------------------------

    Molecular point group: c1
  Charge       = 0
  Multiplicity = 1
  Basis Set: AUG-CC-PVTZ
    Blend: AUG-CC-PVTZ
  Basis Set: (AUG-CC-PVTZ AUX)
    Blend: AUG-CC-PVTZ-JKFIT

    Orbital Energies [Eh]
    ---------------------

    Doubly Occupied:

       1A    -92.012945     2A    -20.529203     3A    -15.597133
       4A    -15.593824     5A    -11.369336     6A    -11.324561
       7A    -11.285638     8A    -11.284294     9A    -11.263754
      10A     -9.012834    11A     -6.693536    12A     -6.693008
      13A     -6.692380    14A     -1.384201    15A     -1.296184
      16A     -1.237949    17A     -1.080765    18A     -1.035791
      19A     -0.959644    20A     -0.847826    21A     -0.803115
      22A     -0.777594    23A     -0.717310    24A     -0.655594
      25A     -0.649503    26A     -0.633615    27A     -0.599041
      28A     -0.584472    29A     -0.566277    30A     -0.552078
      31A     -0.532186    32A     -0.517944    33A     -0.466433
      34A     -0.436704    35A     -0.408633    36A     -0.392540
      37A     -0.348496

  @DF-RHF Final Energy:  -774.27588589726247

   => Energetics <=

    Nuclear Repulsion Energy =            504.7196785525115388
    One-Electron Energy =               -2064.3184517369145397
    Two-Electron Energy =                 785.3228872871404747
    Total Energy =                       -774.2758858972624694
  Basis Set: (AUG-CC-PVTZ AUX)
    Blend: AUG-CC-PVTZ-RI
    Molecular point group: c1

    Geometry (in Angstrom), charge = 0, multiplicity = 1:

       Center              X                  Y                   Z               Mass
    ------------   -----------------  -----------------  -----------------  -----------------
         S            1.504065613320    -1.051470435543     0.000000943522    31.972071174400
         O           -1.471229386680    -1.529896435543    -0.000001056478    15.994914619570
         N           -2.060266386680     0.703057564457    -0.000000056478    14.003074004430
         N            0.633905613320     1.383604564457    -0.000001056478    14.003074004430
         C            0.238440613320     0.119067564457    -0.000000056478    12.000000000000
         C           -1.180917386680    -0.327028435543    -0.000001056478    12.000000000000
         C           -3.494108386680     0.494501564457     0.000000943522    12.000000000000
         C            2.644307613320     0.225111564457    -0.000000056478    12.000000000000
         C            1.999306613320     1.443871564457    -0.000000056478    12.000000000000
         H           -1.665764386680     1.637530564457     0.000000943522     1.007825032230
         H           -3.951928386680     0.932972564457    -0.891194056478     1.007825032230
         H           -3.951926386680     0.932964564457     0.891200943522     1.007825032230
         H           -3.664878386680    -0.581863435543    -0.000003056478     1.007825032230
         H            3.729156913320     0.029399764457     0.000000943522     1.007825032230
         H            2.493391613320     2.409331564457    -0.000000056478     1.007825032230

  Basis Set: AUG-CC-PVTZ
    Blend: AUG-CC-PVTZ
  Basis Set: (AUG-CC-PVTZ AUX)
    Blend: AUG-CC-PVTZ-JKFIT
	 Reference Energy          =    -774.2758858972624694 [Eh]
	 Singles Energy            =      -0.0000000000000000 [Eh]
	 Same-Spin Energy          =      -0.4588908761680536 [Eh]
	 Opposite-Spin Energy      =      -1.3691884954427684 [Eh]
	 Correlation Energy        =      -1.8280793716108219 [Eh]
	 Total Energy              =    -776.1039652688732531 [Eh]

	 ================> DF-SCS-MP2 Energies <==================
	-----------------------------------------------------------
	 SCS Same-Spin Scale       =       0.3333333333333333 [-]
	 SCS Opposite-Spin Scale   =       1.2000000000000000 [-]
	 SCS Same-Spin Energy      =      -0.1529636253893512 [Eh]
	 SCS Opposite-Spin Energy  =      -1.6430261945313220 [Eh]
	 SCS Correlation Energy    =      -1.7959898199206732 [Eh]
	 SCS Total Energy          =    -776.0718757171831612 [Eh]
	-----------------------------------------------------------

  Dipole Moment: [D]
     X:     1.1261      Y:     2.4489      Z:     0.0000     Total:     2.6954

*** Psi4 exiting successfully. Buy a developer a beer!
