                               Psi4 1.3.2 release

  ==> Input File <==

--------------------------------------------------------------------------
#psi4
#
memory 32 gb

molecule  {
0 1
  S        1.5510760    -1.0871590     0.0000010
  O       -1.4242190    -1.5655850    -0.0000010
  N       -2.0132560     0.6673690     0.0000000
  N        0.6809160     1.3479160    -0.0000010
  C        0.2854510     0.0833790     0.0000000
  C       -1.1339070    -0.3627170    -0.0000010
  C       -3.4470980     0.4588130     0.0000010
  C        2.8151797     0.2635205     0.0000000
  C        2.0463170     1.4081830     0.0000000
  H       -1.6187540     1.6018420     0.0000010
  H       -3.9049180     0.8972840    -0.8911940
  H       -3.9049160     0.8972760     0.8912010
  H       -3.6178680    -0.6175520    -0.0000030
  H        3.7564850    -0.0027380     0.0000010
  H        2.5404020     2.3736430     0.0000000
units angstrom
no_reorient  #important for SAPT in psi4, default
symmetry c1  #important for SAPT in psi4, default
}

set PROPERTIES_ORIGIN ["COM"]
properties('MP2/aug-cc-pvtz', properties = ['dipole'])
--------------------------------------------------------------------------

    Molecular point group: c1
  Charge       = 0
  Multiplicity = 1
  Basis Set: AUG-CC-PVTZ
    Blend: AUG-CC-PVTZ
  Basis Set: (AUG-CC-PVTZ AUX)
    Blend: AUG-CC-PVTZ-JKFIT

    Orbital Energies [Eh]
    ---------------------

    Doubly Occupied:

       1A    -92.007667     2A    -20.532589     3A    -15.597829
       4A    -15.597142     5A    -11.372771     6A    -11.333520
       7A    -11.292569     8A    -11.285778     9A    -11.265773
      10A     -9.005857    11A     -6.686531    12A     -6.685858
      13A     -6.685417    14A     -1.387093    15A     -1.293209
      16A     -1.240352    17A     -1.062303    18A     -1.039660
      19A     -0.964668    20A     -0.852522    21A     -0.821515
      22A     -0.779047    23A     -0.726277    24A     -0.658960
      25A     -0.653511    26A     -0.635560    27A     -0.607995
      28A     -0.581918    29A     -0.578627    30A     -0.554202
      31A     -0.531373    32A     -0.486742    33A     -0.467281
      34A     -0.436676    35A     -0.404894    36A     -0.388041
      37A     -0.357064

  @DF-RHF Final Energy:  -774.25676896380719

   => Energetics <=

    Nuclear Repulsion Energy =            501.7163082947636781
    One-Electron Energy =               -2058.2285704640398762
    Two-Electron Energy =                 782.2554932054690653
    Total Energy =                       -774.2567689638071897
  Basis Set: (AUG-CC-PVTZ AUX)
    Blend: AUG-CC-PVTZ-RI
    Molecular point group: c1

    Geometry (in Angstrom), charge = 0, multiplicity = 1:

       Center              X                  Y                   Z               Mass
    ------------   -----------------  -----------------  -----------------  -----------------
         S            1.493739580240    -1.057756508330     0.000000943522    31.972071174400
         O           -1.481555419760    -1.536182508330    -0.000001056478    15.994914619570
         N           -2.070592419760     0.696771491670    -0.000000056478    14.003074004430
         N            0.623579580240     1.377318491670    -0.000001056478    14.003074004430
         C            0.228114580240     0.112781491670    -0.000000056478    12.000000000000
         C           -1.191243419760    -0.333314508330    -0.000001056478    12.000000000000
         C           -3.504434419760     0.488215491670     0.000000943522    12.000000000000
         C            2.757843280240     0.292922991670    -0.000000056478    12.000000000000
         C            1.988980580240     1.437585491670    -0.000000056478    12.000000000000
         H           -1.676090419760     1.631244491670     0.000000943522     1.007825032230
         H           -3.962254419760     0.926686491670    -0.891194056478     1.007825032230
         H           -3.962252419760     0.926678491670     0.891200943522     1.007825032230
         H           -3.675204419760    -0.588149508330    -0.000003056478     1.007825032230
         H            3.699148580240     0.026664491670     0.000000943522     1.007825032230
         H            2.483065580240     2.403045491670    -0.000000056478     1.007825032230

  Basis Set: AUG-CC-PVTZ
    Blend: AUG-CC-PVTZ
  Basis Set: (AUG-CC-PVTZ AUX)
    Blend: AUG-CC-PVTZ-JKFIT
	 Reference Energy          =    -774.2567689638071897 [Eh]
	 Singles Energy            =      -0.0000000000000000 [Eh]
	 Same-Spin Energy          =      -0.4576371228829197 [Eh]
	 Opposite-Spin Energy      =      -1.3700656541800338 [Eh]
	 Correlation Energy        =      -1.8277027770629535 [Eh]
	 Total Energy              =    -776.0844717408701854 [Eh]

	 ================> DF-SCS-MP2 Energies <==================
	-----------------------------------------------------------
	 SCS Same-Spin Scale       =       0.3333333333333333 [-]
	 SCS Opposite-Spin Scale   =       1.2000000000000000 [-]
	 SCS Same-Spin Energy      =      -0.1525457076276399 [Eh]
	 SCS Opposite-Spin Energy  =      -1.6440787850160405 [Eh]
	 SCS Correlation Energy    =      -1.7966244926436805 [Eh]
	 SCS Total Energy          =    -776.0533934564508627 [Eh]
	-----------------------------------------------------------

  Dipole Moment: [D]
     X:     1.0347      Y:     2.5679      Z:     0.0000     Total:     2.7685

*** Psi4 exiting successfully. Buy a developer a beer!
