                               Psi4 1.3.2 release

  ==> Input File <==

--------------------------------------------------------------------------
#psi4
#
memory 32 gb

molecule  {
0 1
  S        1.5510760    -1.0871590     0.0000010
  O       -1.4242190    -1.5655850    -0.0000010
  N       -2.0132560     0.6673690     0.0000000
  N        0.6796445     1.3956045    -0.0000010
  C        0.2854510     0.0833790     0.0000000
  C       -1.1339070    -0.3627170    -0.0000010
  C       -3.4470980     0.4588130     0.0000010
  C        2.6913180     0.1894230     0.0000000
  C        2.0463170     1.4081830     0.0000000
  H       -1.6187540     1.6018420     0.0000010
  H       -3.9049180     0.8972840    -0.8911940
  H       -3.9049160     0.8972760     0.8912010
  H       -3.6178680    -0.6175520    -0.0000030
  H        3.7564850    -0.0027380     0.0000010
  H        2.5404020     2.3736430     0.0000000
units angstrom
no_reorient  #important for SAPT in psi4, default
symmetry c1  #important for SAPT in psi4, default
}

set PROPERTIES_ORIGIN ["COM"]
properties('MP2/aug-cc-pvtz', properties = ['dipole'])
--------------------------------------------------------------------------

    Molecular point group: c1
  Charge       = 0
  Multiplicity = 1
  Basis Set: AUG-CC-PVTZ
    Blend: AUG-CC-PVTZ
  Basis Set: (AUG-CC-PVTZ AUX)
    Blend: AUG-CC-PVTZ-JKFIT

    Orbital Energies [Eh]
    ---------------------

    Doubly Occupied:

       1A    -92.017972     2A    -20.529088     3A    -15.602822
       4A    -15.593733     5A    -11.369715     6A    -11.329855
       7A    -11.285532     8A    -11.282308     9A    -11.263650
      10A     -9.017432    11A     -6.698116    12A     -6.697570
      13A     -6.697010    14A     -1.383962    15A     -1.285124
      16A     -1.237606    17A     -1.082500    18A     -1.033833
      19A     -0.958621    20A     -0.848730    21A     -0.799744
      22A     -0.777703    23A     -0.719287    24A     -0.652489
      25A     -0.648886    26A     -0.632915    27A     -0.595424
      28A     -0.580741    29A     -0.567049    30A     -0.552015
      31A     -0.531565    32A     -0.519725    33A     -0.468848
      34A     -0.439925    35A     -0.408076    36A     -0.392645
      37A     -0.346065

  @DF-RHF Final Energy:  -774.26995045299907

   => Energetics <=

    Nuclear Repulsion Energy =            503.5403880140953561
    One-Electron Energy =               -2061.9241109355502886
    Two-Electron Energy =                 784.1137724684559771
    Total Energy =                       -774.2699504529990691
  Basis Set: (AUG-CC-PVTZ AUX)
    Blend: AUG-CC-PVTZ-RI
    Molecular point group: c1

    Geometry (in Angstrom), charge = 0, multiplicity = 1:

       Center              X                  Y                   Z               Mass
    ------------   -----------------  -----------------  -----------------  -----------------
         S            1.504330654871    -1.056197683697     0.000000943522    31.972071174400
         O           -1.470964345129    -1.534623683697    -0.000001056478    15.994914619570
         N           -2.060001345129     0.698330316303    -0.000000056478    14.003074004430
         N            0.632899154871     1.426565816303    -0.000001056478    14.003074004430
         C            0.238705654871     0.114340316303    -0.000000056478    12.000000000000
         C           -1.180652345129    -0.331755683697    -0.000001056478    12.000000000000
         C           -3.493843345129     0.489774316303     0.000000943522    12.000000000000
         C            2.644572654871     0.220384316303    -0.000000056478    12.000000000000
         C            1.999571654871     1.439144316303    -0.000000056478    12.000000000000
         H           -1.665499345129     1.632803316303     0.000000943522     1.007825032230
         H           -3.951663345129     0.928245316303    -0.891194056478     1.007825032230
         H           -3.951661345129     0.928237316303     0.891200943522     1.007825032230
         H           -3.664613345129    -0.586590683697    -0.000003056478     1.007825032230
         H            3.709739654871     0.028223316303     0.000000943522     1.007825032230
         H            2.493656654871     2.404604316303    -0.000000056478     1.007825032230

  Basis Set: AUG-CC-PVTZ
    Blend: AUG-CC-PVTZ
  Basis Set: (AUG-CC-PVTZ AUX)
    Blend: AUG-CC-PVTZ-JKFIT
	 Reference Energy          =    -774.2699504529990691 [Eh]
	 Singles Energy            =      -0.0000000000000000 [Eh]
	 Same-Spin Energy          =      -0.4601384179109876 [Eh]
	 Opposite-Spin Energy      =      -1.3715942397602761 [Eh]
	 Correlation Energy        =      -1.8317326576712638 [Eh]
	 Total Energy              =    -776.1016831106703648 [Eh]

	 ================> DF-SCS-MP2 Energies <==================
	-----------------------------------------------------------
	 SCS Same-Spin Scale       =       0.3333333333333333 [-]
	 SCS Opposite-Spin Scale   =       1.2000000000000000 [-]
	 SCS Same-Spin Energy      =      -0.1533794726369959 [Eh]
	 SCS Opposite-Spin Energy  =      -1.6459130877123311 [Eh]
	 SCS Correlation Energy    =      -1.7992925603493271 [Eh]
	 SCS Total Energy          =    -776.0692430133483413 [Eh]
	-----------------------------------------------------------

  Dipole Moment: [D]
     X:     1.1987      Y:     2.3059      Z:     0.0000     Total:     2.5989

*** Psi4 exiting successfully. Buy a developer a beer!
