                               Psi4 1.3.2 release

  ==> Input File <==

--------------------------------------------------------------------------
#psi4
#
memory 32 gb

molecule  {
0 1
  S        1.4648037    -1.0045100     0.0000008
  O       -1.4242190    -1.5655850    -0.0000010
  N       -2.0132560     0.6673690     0.0000000
  N        0.6809160     1.3479160    -0.0000010
  C        0.2854510     0.0833790     0.0000000
  C       -1.1339070    -0.3627170    -0.0000010
  C       -3.4470980     0.4588130     0.0000010
  C        2.6913180     0.1894230     0.0000000
  C        2.0463170     1.4081830     0.0000000
  H       -1.6187540     1.6018420     0.0000010
  H       -3.9049180     0.8972840    -0.8911940
  H       -3.9049160     0.8972760     0.8912010
  H       -3.6178680    -0.6175520    -0.0000030
  H        3.7564850    -0.0027380     0.0000010
  H        2.5404020     2.3736430     0.0000000
units angstrom
no_reorient  #important for SAPT in psi4, default
symmetry c1  #important for SAPT in psi4, default
}

set PROPERTIES_ORIGIN ["COM"]
properties('MP2/aug-cc-pvtz', properties = ['dipole'])
--------------------------------------------------------------------------

    Molecular point group: c1
  Charge       = 0
  Multiplicity = 1
  Basis Set: AUG-CC-PVTZ
    Blend: AUG-CC-PVTZ
  Basis Set: (AUG-CC-PVTZ AUX)
    Blend: AUG-CC-PVTZ-JKFIT

    Orbital Energies [Eh]
    ---------------------

    Doubly Occupied:

       1A    -92.009097     2A    -20.529337     3A    -15.593766
       4A    -15.588079     5A    -11.369522     6A    -11.312148
       7A    -11.285667     8A    -11.279663     9A    -11.263660
      10A     -9.012365    11A     -6.693339    12A     -6.692528
      13A     -6.691846    14A     -1.385471    15A     -1.303254
      16A     -1.238390    17A     -1.088158    18A     -1.045815
      19A     -0.962906    20A     -0.846216    21A     -0.810105
      22A     -0.777962    23A     -0.717666    24A     -0.657837
      25A     -0.652347    26A     -0.635297    27A     -0.600320
      28A     -0.592060    29A     -0.581542    30A     -0.552001
      31A     -0.533699    32A     -0.510844    33A     -0.464349
      34A     -0.435231    35A     -0.405721    36A     -0.390060
      37A     -0.356943

  @DF-RHF Final Energy:  -774.26991571720907

   => Energetics <=

    Nuclear Repulsion Energy =            510.5164945472508293
    One-Electron Energy =               -2075.8424001528624103
    Two-Electron Energy =                 791.0559898884024506
    Total Energy =                       -774.2699157172090736
  Basis Set: (AUG-CC-PVTZ AUX)
    Blend: AUG-CC-PVTZ-RI
    Molecular point group: c1

    Geometry (in Angstrom), charge = 0, multiplicity = 1:

       Center              X                  Y                   Z               Mass
    ------------   -----------------  -----------------  -----------------  -----------------
         S            1.437354915824    -0.987452872881     0.000000788547    31.972071174400
         O           -1.451667784176    -1.548527872881    -0.000001011453    15.994914619570
         N           -2.040704784176     0.684426127119    -0.000000011453    14.003074004430
         N            0.653467215824     1.364973127119    -0.000001011453    14.003074004430
         C            0.258002215824     0.100436127119    -0.000000011453    12.000000000000
         C           -1.161355784176    -0.345659872881    -0.000001011453    12.000000000000
         C           -3.474546784176     0.475870127119     0.000000988547    12.000000000000
         C            2.663869215824     0.206480127119    -0.000000011453    12.000000000000
         C            2.018868215824     1.425240127119    -0.000000011453    12.000000000000
         H           -1.646202784176     1.618899127119     0.000000988547     1.007825032230
         H           -3.932366784176     0.914341127119    -0.891194011453     1.007825032230
         H           -3.932364784176     0.914333127119     0.891200988547     1.007825032230
         H           -3.645316784176    -0.600494872881    -0.000003011453     1.007825032230
         H            3.729036215824     0.014319127119     0.000000988547     1.007825032230
         H            2.512953215824     2.390700127119    -0.000000011453     1.007825032230

  Basis Set: AUG-CC-PVTZ
    Blend: AUG-CC-PVTZ
  Basis Set: (AUG-CC-PVTZ AUX)
    Blend: AUG-CC-PVTZ-JKFIT
	 Reference Energy          =    -774.2699157172090736 [Eh]
	 Singles Energy            =      -0.0000000000000000 [Eh]
	 Same-Spin Energy          =      -0.4595581700365068 [Eh]
	 Opposite-Spin Energy      =      -1.3677942764572839 [Eh]
	 Correlation Energy        =      -1.8273524464937907 [Eh]
	 Total Energy              =    -776.0972681637028927 [Eh]

	 ================> DF-SCS-MP2 Energies <==================
	-----------------------------------------------------------
	 SCS Same-Spin Scale       =       0.3333333333333333 [-]
	 SCS Opposite-Spin Scale   =       1.2000000000000000 [-]
	 SCS Same-Spin Energy      =      -0.1531860566788356 [Eh]
	 SCS Opposite-Spin Energy  =      -1.6413531317487406 [Eh]
	 SCS Correlation Energy    =      -1.7945391884275763 [Eh]
	 SCS Total Energy          =    -776.0644549056366941 [Eh]
	-----------------------------------------------------------

  Dipole Moment: [D]
     X:     1.1549      Y:     2.4052      Z:     0.0000     Total:     2.6681

*** Psi4 exiting successfully. Buy a developer a beer!
