                               Psi4 1.3.2 release

  ==> Input File <==

--------------------------------------------------------------------------
#psi4
#
memory 32 gb

molecule  {
0 1
  S        1.5510760    -1.0871590     0.0000010
  O       -1.4242190    -1.5655850    -0.0000010
  N       -2.0486698     0.6360527    -0.0000000
  N        0.6809160     1.3479160    -0.0000010
  C        0.2854510     0.0833790     0.0000000
  C       -1.1339070    -0.3627170    -0.0000010
  C       -3.4470980     0.4588130     0.0000010
  C        2.6913180     0.1894230     0.0000000
  C        2.0463170     1.4081830     0.0000000
  H       -1.6187540     1.6018420     0.0000010
  H       -3.9049180     0.8972840    -0.8911940
  H       -3.9049160     0.8972760     0.8912010
  H       -3.6178680    -0.6175520    -0.0000030
  H        3.7564850    -0.0027380     0.0000010
  H        2.5404020     2.3736430     0.0000000
units angstrom
no_reorient  #important for SAPT in psi4, default
symmetry c1  #important for SAPT in psi4, default
}

set PROPERTIES_ORIGIN ["COM"]
properties('MP2/aug-cc-pvtz', properties = ['dipole'])
--------------------------------------------------------------------------

    Molecular point group: c1
  Charge       = 0
  Multiplicity = 1
  Basis Set: AUG-CC-PVTZ
    Blend: AUG-CC-PVTZ
  Basis Set: (AUG-CC-PVTZ AUX)
    Blend: AUG-CC-PVTZ-JKFIT

    Orbital Energies [Eh]
    ---------------------

    Doubly Occupied:

       1A    -92.014387     2A    -20.527100     3A    -15.598693
       4A    -15.595020     5A    -11.368891     6A    -11.326707
       7A    -11.286245     8A    -11.283987     9A    -11.259992
      10A     -9.014229    11A     -6.694926    12A     -6.694404
      13A     -6.693771    14A     -1.384405    15A     -1.297142
      16A     -1.239879    17A     -1.082624    18A     -1.038299
      19A     -0.962630    20A     -0.845470    21A     -0.806014
      22A     -0.769037    23A     -0.720143    24A     -0.657308
      25A     -0.655317    26A     -0.637024    27A     -0.599695
      28A     -0.585642    29A     -0.572074    30A     -0.543773
      31A     -0.531112    32A     -0.518913    33A     -0.467099
      34A     -0.436721    35A     -0.407991    36A     -0.390072
      37A     -0.349723

  @DF-RHF Final Energy:  -774.27253198244989

   => Energetics <=

    Nuclear Repulsion Energy =            504.9083097498544248
    One-Electron Energy =               -2064.6487677697464278
    Two-Electron Energy =                 785.4679260374421119
    Total Energy =                       -774.2725319824498911
  Basis Set: (AUG-CC-PVTZ AUX)
    Blend: AUG-CC-PVTZ-RI
    Molecular point group: c1

    Geometry (in Angstrom), charge = 0, multiplicity = 1:

       Center              X                  Y                   Z               Mass
    ------------   -----------------  -----------------  -----------------  -----------------
         S            1.507697060101    -1.048407869538     0.000000943522    31.972071174400
         O           -1.467597939899    -1.526833869538    -0.000001056478    15.994914619570
         N           -2.092048739899     0.674803830462    -0.000000056478    14.003074004430
         N            0.637537060101     1.386667130462    -0.000001056478    14.003074004430
         C            0.242072060101     0.122130130462    -0.000000056478    12.000000000000
         C           -1.177285939899    -0.323965869538    -0.000001056478    12.000000000000
         C           -3.490476939899     0.497564130462     0.000000943522    12.000000000000
         C            2.647939060101     0.228174130462    -0.000000056478    12.000000000000
         C            2.002938060101     1.446934130462    -0.000000056478    12.000000000000
         H           -1.662132939899     1.640593130462     0.000000943522     1.007825032230
         H           -3.948296939899     0.936035130462    -0.891194056478     1.007825032230
         H           -3.948294939899     0.936027130462     0.891200943522     1.007825032230
         H           -3.661246939899    -0.578800869538    -0.000003056478     1.007825032230
         H            3.713106060101     0.036013130462     0.000000943522     1.007825032230
         H            2.497023060101     2.412394130462    -0.000000056478     1.007825032230

  Basis Set: AUG-CC-PVTZ
    Blend: AUG-CC-PVTZ
  Basis Set: (AUG-CC-PVTZ AUX)
    Blend: AUG-CC-PVTZ-JKFIT
	 Reference Energy          =    -774.2725319824498911 [Eh]
	 Singles Energy            =      -0.0000000000000000 [Eh]
	 Same-Spin Energy          =      -0.4593363797252580 [Eh]
	 Opposite-Spin Energy      =      -1.3696893430968584 [Eh]
	 Correlation Energy        =      -1.8290257228221165 [Eh]
	 Total Energy              =    -776.1015577052720573 [Eh]

	 ================> DF-SCS-MP2 Energies <==================
	-----------------------------------------------------------
	 SCS Same-Spin Scale       =       0.3333333333333333 [-]
	 SCS Opposite-Spin Scale   =       1.2000000000000000 [-]
	 SCS Same-Spin Energy      =      -0.1531121265750860 [Eh]
	 SCS Opposite-Spin Energy  =      -1.6436272117162301 [Eh]
	 SCS Correlation Energy    =      -1.7967393382913159 [Eh]
	 SCS Total Energy          =    -776.0692713207412226 [Eh]
	-----------------------------------------------------------

  Dipole Moment: [D]
     X:     1.2697      Y:     2.4855      Z:     0.0000     Total:     2.7910

*** Psi4 exiting successfully. Buy a developer a beer!
