                               Psi4 1.3.2 release

  ==> Input File <==

--------------------------------------------------------------------------
#psi4
#
memory 32 gb

molecule  {
0 1
  S        1.5510760    -1.0871590     0.0000010
  O       -1.4242190    -1.5655850    -0.0000010
  N       -2.0132560     0.6673690     0.0000000
  N        0.6809160     1.3479160    -0.0000010
  C        0.4197975     0.0489689     0.0000001
  C       -1.1339070    -0.3627170    -0.0000010
  C       -3.4470980     0.4588130     0.0000010
  C        2.6913180     0.1894230     0.0000000
  C        2.0463170     1.4081830     0.0000000
  H       -1.6187540     1.6018420     0.0000010
  H       -3.9049180     0.8972840    -0.8911940
  H       -3.9049160     0.8972760     0.8912010
  H       -3.6178680    -0.6175520    -0.0000030
  H        3.7564850    -0.0027380     0.0000010
  H        2.5404020     2.3736430     0.0000000
units angstrom
no_reorient  #important for SAPT in psi4, default
symmetry c1  #important for SAPT in psi4, default
}

set PROPERTIES_ORIGIN ["COM"]
properties('MP2/aug-cc-pvtz', properties = ['dipole'])
--------------------------------------------------------------------------

    Molecular point group: c1
  Charge       = 0
  Multiplicity = 1
  Basis Set: AUG-CC-PVTZ
    Blend: AUG-CC-PVTZ
  Basis Set: (AUG-CC-PVTZ AUX)
    Blend: AUG-CC-PVTZ-JKFIT

    Orbital Energies [Eh]
    ---------------------

    Doubly Occupied:

       1A    -92.016009     2A    -20.526586     3A    -15.593329
       4A    -15.589222     5A    -11.371527     6A    -11.320789
       7A    -11.284133     8A    -11.274479     9A    -11.263498
      10A     -9.019060    11A     -6.700069    12A     -6.699067
      13A     -6.698382    14A     -1.379035    15A     -1.304630
      16A     -1.235209    17A     -1.100500    18A     -1.025725
      19A     -0.957776    20A     -0.825327    21A     -0.805023
      22A     -0.773816    23A     -0.722551    24A     -0.648347
      25A     -0.646967    26A     -0.630355    27A     -0.591445
      28A     -0.590290    29A     -0.565444    30A     -0.551144
      31A     -0.532414    32A     -0.522043    33A     -0.478986
      34A     -0.426995    35A     -0.408875    36A     -0.392389
      37A     -0.351557

  @DF-RHF Final Energy:  -774.25787015616618

   => Energetics <=

    Nuclear Repulsion Energy =            505.7936724068466106
    One-Electron Energy =               -2066.4570983603889545
    Two-Electron Energy =                 786.4055557973762234
    Total Energy =                       -774.2578701561661774
  Basis Set: (AUG-CC-PVTZ AUX)
    Blend: AUG-CC-PVTZ-RI
    Molecular point group: c1

    Geometry (in Angstrom), charge = 0, multiplicity = 1:

       Center              X                  Y                   Z               Mass
    ------------   -----------------  -----------------  -----------------  -----------------
         S            1.492853666104    -1.048588148733     0.000000935072    31.972071174400
         O           -1.482441333896    -1.527014148733    -0.000001064928    15.994914619570
         N           -2.071478333896     0.705939851267    -0.000000064928    14.003074004430
         N            0.622693666104     1.386486851267    -0.000001064928    14.003074004430
         C            0.361575166104     0.087539751267     0.000000035072    12.000000000000
         C           -1.192129333896    -0.324146148733    -0.000001064928    12.000000000000
         C           -3.505320333896     0.497383851267     0.000000935072    12.000000000000
         C            2.633095666104     0.227993851267    -0.000000064928    12.000000000000
         C            1.988094666104     1.446753851267    -0.000000064928    12.000000000000
         H           -1.676976333896     1.640412851267     0.000000935072     1.007825032230
         H           -3.963140333896     0.935854851267    -0.891194064928     1.007825032230
         H           -3.963138333896     0.935846851267     0.891200935072     1.007825032230
         H           -3.676090333896    -0.578981148733    -0.000003064928     1.007825032230
         H            3.698262666104     0.035832851267     0.000000935072     1.007825032230
         H            2.482179666104     2.412213851267    -0.000000064928     1.007825032230

  Basis Set: AUG-CC-PVTZ
    Blend: AUG-CC-PVTZ
  Basis Set: (AUG-CC-PVTZ AUX)
    Blend: AUG-CC-PVTZ-JKFIT
	 Reference Energy          =    -774.2578701561661774 [Eh]
	 Singles Energy            =      -0.0000000000000000 [Eh]
	 Same-Spin Energy          =      -0.4586754461972210 [Eh]
	 Opposite-Spin Energy      =      -1.3684766834298605 [Eh]
	 Correlation Energy        =      -1.8271521296270814 [Eh]
	 Total Energy              =    -776.0850222857932295 [Eh]

	 ================> DF-SCS-MP2 Energies <==================
	-----------------------------------------------------------
	 SCS Same-Spin Scale       =       0.3333333333333333 [-]
	 SCS Opposite-Spin Scale   =       1.2000000000000000 [-]
	 SCS Same-Spin Energy      =      -0.1528918153990736 [Eh]
	 SCS Opposite-Spin Energy  =      -1.6421720201158325 [Eh]
	 SCS Correlation Energy    =      -1.7950638355149062 [Eh]
	 SCS Total Energy          =    -776.0529339916811296 [Eh]
	-----------------------------------------------------------

  Dipole Moment: [D]
     X:     1.1527      Y:     2.1834      Z:     0.0000     Total:     2.4690

*** Psi4 exiting successfully. Buy a developer a beer!
