                               Psi4 1.4a3.dev225

  ==> Input File <==

--------------------------------------------------------------------------
#psi4
#
memory 32 gb

molecule  {
0 1
  S        1.5510760    -1.0871590     0.0000010
  O       -1.4242190    -1.5655850    -0.0000010
  N       -2.0132560     0.6673690     0.0000000
  N        0.6809160     1.3479160    -0.0000010
  C        0.2854510     0.0833790     0.0000000
  C       -1.1339070    -0.3627170    -0.0000010
  C       -3.4470980     0.4588130     0.0000010
  C        2.6913180     0.1894230     0.0000000
  C        2.0463170     1.4081830     0.0000000
  H       -1.6187540     1.6018420     0.0000010
  H       -3.9049180     0.8972840    -0.8911940
  H       -3.9049160     0.8972760     0.8912010
  H       -3.6178680    -0.6175520    -0.0000030
  H        3.7564850    -0.0027380     0.0000010
  H        2.5176235     2.3291330     0.0000000
units angstrom
no_reorient  #important for SAPT in psi4, default
symmetry c1  #important for SAPT in psi4, default
}

set PROPERTIES_ORIGIN ["COM"]
properties('MP2/aug-cc-pvtz', properties = ['dipole'])
--------------------------------------------------------------------------

    Molecular point group: c1
  Charge       = 0
  Multiplicity = 1
  Basis Set: AUG-CC-PVTZ
    Blend: AUG-CC-PVTZ
  Basis Set: (AUG-CC-PVTZ AUX)
    Blend: AUG-CC-PVTZ-JKFIT

    Orbital Energies [Eh]
    ---------------------

    Doubly Occupied:

       1A    -92.012627     2A    -20.529058     3A    -15.596657
       4A    -15.593701     5A    -11.369157     6A    -11.324238
       7A    -11.282807     8A    -11.279187     9A    -11.263674
      10A     -9.012534    11A     -6.693239    12A     -6.692711
      13A     -6.692087    14A     -1.384057    15A     -1.295967
      16A     -1.237836    17A     -1.080964    18A     -1.037475
      19A     -0.960536    20A     -0.848990    21A     -0.808995
      22A     -0.778129    23A     -0.719318    24A     -0.661392
      25A     -0.650541    26A     -0.633493    27A     -0.601587
      28A     -0.584241    29A     -0.567661    30A     -0.552043
      31A     -0.532022    32A     -0.519579    33A     -0.466519
      34A     -0.436510    35A     -0.408442    36A     -0.392384
      37A     -0.348408

  @DF-RHF Final Energy:  -774.27577226003916

   => Energetics <=

    Nuclear Repulsion Energy =            505.1068694703589586
    One-Electron Energy =               -2065.0677489261779556
    Two-Electron Energy =                 785.6851071957797785
    Total Energy =                       -774.2757722600391617
  Basis Set: (AUG-CC-PVTZ AUX)
    Blend: AUG-CC-PVTZ-RI
    Molecular point group: c1

    Geometry (in Angstrom), charge = 0, multiplicity = 1:

       Center              X                  Y                   Z               Mass
    ------------   -----------------  -----------------  -----------------  -----------------
         S            1.504366930260    -1.051179774491     0.000000943522    31.972071174400
         O           -1.470928069740    -1.529605774491    -0.000001056478    15.994914619570
         N           -2.059965069740     0.703348225509    -0.000000056478    14.003074004430
         N            0.634206930260     1.383895225509    -0.000001056478    14.003074004430
         C            0.238741930260     0.119358225509    -0.000000056478    12.000000000000
         C           -1.180616069740    -0.326737774491    -0.000001056478    12.000000000000
         C           -3.493807069740     0.494792225509     0.000000943522    12.000000000000
         C            2.644608930260     0.225402225509    -0.000000056478    12.000000000000
         C            1.999607930260     1.444162225509    -0.000000056478    12.000000000000
         H           -1.665463069740     1.637821225509     0.000000943522     1.007825032230
         H           -3.951627069740     0.933263225509    -0.891194056478     1.007825032230
         H           -3.951625069740     0.933255225509     0.891200943522     1.007825032230
         H           -3.664577069740    -0.581572774491    -0.000003056478     1.007825032230
         H            3.709775930260     0.033241225509     0.000000943522     1.007825032230
         H            2.470914430260     2.365112225509    -0.000000056478     1.007825032230

  Basis Set: AUG-CC-PVTZ
    Blend: AUG-CC-PVTZ
  Basis Set: (AUG-CC-PVTZ AUX)
    Blend: AUG-CC-PVTZ-JKFIT
	 Reference Energy          =    -774.2757722600391617 [Eh]
	 Singles Energy            =      -0.0000000000000000 [Eh]
	 Same-Spin Energy          =      -0.4587324242185075 [Eh]
	 Opposite-Spin Energy      =      -1.3688051970992956 [Eh]
	 Correlation Energy        =      -1.8275376213178030 [Eh]
	 Total Energy              =    -776.1033098813569495 [Eh]

	 ================> DF-SCS-MP2 Energies <==================
	-----------------------------------------------------------
	 SCS Same-Spin Scale       =       0.3333333333333333 [-]
	 SCS Opposite-Spin Scale   =       1.2000000000000000 [-]
	 SCS Same-Spin Energy      =      -0.1529108080728358 [Eh]
	 SCS Opposite-Spin Energy  =      -1.6425662365191547 [Eh]
	 SCS Correlation Energy    =      -1.7954770445919905 [Eh]
	 SCS Total Energy          =    -776.0712493046311238 [Eh]
	-----------------------------------------------------------

  Dipole Moment: [D]
     X:     1.1321      Y:     2.4513      Z:     0.0000     Total:     2.7002

*** Psi4 exiting successfully. Buy a developer a beer!
