                               Psi4 1.4a3.dev225

  ==> Input File <==

--------------------------------------------------------------------------
#psi4
#
memory 32 gb

molecule  {
0 1
  S        1.5510760    -1.0871590     0.0000010
  O       -1.4242190    -1.5655850    -0.0000010
  N       -2.0132560     0.6673690     0.0000000
  N        0.6809160     1.3479160    -0.0000010
  C        0.2854510     0.0833790     0.0000000
  C       -1.1339070    -0.3627170    -0.0000010
  C       -3.4470980     0.4588130     0.0000010
  C        2.6913180     0.1894230     0.0000000
  C        2.0697050     1.3639902     0.0000000
  H       -1.6187540     1.6018420     0.0000010
  H       -3.9049180     0.8972840    -0.8911940
  H       -3.9049160     0.8972760     0.8912010
  H       -3.6178680    -0.6175520    -0.0000030
  H        3.7564850    -0.0027380     0.0000010
  H        2.5404020     2.3736430     0.0000000
units angstrom
no_reorient  #important for SAPT in psi4, default
symmetry c1  #important for SAPT in psi4, default
}

set PROPERTIES_ORIGIN ["COM"]
properties('MP2/aug-cc-pvtz', properties = ['dipole'])
--------------------------------------------------------------------------

    Molecular point group: c1
  Charge       = 0
  Multiplicity = 1
  Basis Set: AUG-CC-PVTZ
    Blend: AUG-CC-PVTZ
  Basis Set: (AUG-CC-PVTZ AUX)
    Blend: AUG-CC-PVTZ-JKFIT

    Orbital Energies [Eh]
    ---------------------

    Doubly Occupied:

       1A    -92.009531     2A    -20.530552     3A    -15.597606
       4A    -15.594848     5A    -11.370225     6A    -11.326419
       7A    -11.281851     8A    -11.276222     9A    -11.264390
      10A     -9.009846    11A     -6.690581    12A     -6.690048
      13A     -6.689332    14A     -1.385287    15A     -1.294870
      16A     -1.238843    17A     -1.084435    18A     -1.037140
      19A     -0.962556    20A     -0.850969    21A     -0.799533
      22A     -0.778251    23A     -0.721371    24A     -0.652133
      25A     -0.649834    26A     -0.634293    27A     -0.592850
      28A     -0.585158    29A     -0.569110    30A     -0.552893
      31A     -0.533582    32A     -0.518034    33A     -0.468244
      34A     -0.436908    35A     -0.407855    36A     -0.391560
      37A     -0.357339

  @DF-RHF Final Energy:  -774.27533216598579

   => Energetics <=

    Nuclear Repulsion Energy =            505.3527330946756138
    One-Electron Energy =               -2065.5871369962937933
    Two-Electron Energy =                 785.9590717356323921
    Total Energy =                       -774.2753321659857875
  Basis Set: (AUG-CC-PVTZ AUX)
    Blend: AUG-CC-PVTZ-RI
    Molecular point group: c1

    Geometry (in Angstrom), charge = 0, multiplicity = 1:

       Center              X                  Y                   Z               Mass
    ------------   -----------------  -----------------  -----------------  -----------------
         S            1.502229114721    -1.047761558601     0.000000943522    31.972071174400
         O           -1.473065885279    -1.526187558601    -0.000001056478    15.994914619570
         N           -2.062102885279     0.706766441399    -0.000000056478    14.003074004430
         N            0.632069114721     1.387313441399    -0.000001056478    14.003074004430
         C            0.236604114721     0.122776441399    -0.000000056478    12.000000000000
         C           -1.182753885279    -0.323319558601    -0.000001056478    12.000000000000
         C           -3.495944885279     0.498210441399     0.000000943522    12.000000000000
         C            2.642471114721     0.228820441399    -0.000000056478    12.000000000000
         C            2.020858114721     1.403387641399    -0.000000056478    12.000000000000
         H           -1.667600885279     1.641239441399     0.000000943522     1.007825032230
         H           -3.953764885279     0.936681441399    -0.891194056478     1.007825032230
         H           -3.953762885279     0.936673441399     0.891200943522     1.007825032230
         H           -3.666714885279    -0.578154558601    -0.000003056478     1.007825032230
         H            3.707638114721     0.036659441399     0.000000943522     1.007825032230
         H            2.491555114721     2.413040441399    -0.000000056478     1.007825032230

  Basis Set: AUG-CC-PVTZ
    Blend: AUG-CC-PVTZ
  Basis Set: (AUG-CC-PVTZ AUX)
    Blend: AUG-CC-PVTZ-JKFIT
	 Reference Energy          =    -774.2753321659857875 [Eh]
	 Singles Energy            =      -0.0000000000000000 [Eh]
	 Same-Spin Energy          =      -0.4577005707163709 [Eh]
	 Opposite-Spin Energy      =      -1.3679554022217015 [Eh]
	 Correlation Energy        =      -1.8256559729380726 [Eh]
	 Total Energy              =    -776.1009881389238672 [Eh]

	 ================> DF-SCS-MP2 Energies <==================
	-----------------------------------------------------------
	 SCS Same-Spin Scale       =       0.3333333333333333 [-]
	 SCS Opposite-Spin Scale   =       1.2000000000000000 [-]
	 SCS Same-Spin Energy      =      -0.1525668569054570 [Eh]
	 SCS Opposite-Spin Energy  =      -1.6415464826660418 [Eh]
	 SCS Correlation Energy    =      -1.7941133395714988 [Eh]
	 SCS Total Energy          =    -776.0694455055572689 [Eh]
	-----------------------------------------------------------

  Dipole Moment: [D]
     X:     1.0748      Y:     2.4225      Z:     0.0000     Total:     2.6502

*** Psi4 exiting successfully. Buy a developer a beer!
