                               Psi4 1.3.2 release

  ==> Input File <==

--------------------------------------------------------------------------
#psi4
#
memory 32 gb

molecule  {
0 1
  S        1.5510760    -1.0871590     0.0000010
  O       -1.4242190    -1.5655850    -0.0000010
  N       -2.0132560     0.6673690     0.0000000
  N        0.6809160     1.3479160    -0.0000010
  C        0.2854510     0.0833790     0.0000000
  C       -1.2293061    -0.3927004    -0.0000011
  C       -3.4470980     0.4588130     0.0000010
  C        2.6913180     0.1894230     0.0000000
  C        2.0463170     1.4081830     0.0000000
  H       -1.6187540     1.6018420     0.0000010
  H       -3.9049180     0.8972840    -0.8911940
  H       -3.9049160     0.8972760     0.8912010
  H       -3.6178680    -0.6175520    -0.0000030
  H        3.7564850    -0.0027380     0.0000010
  H        2.5404020     2.3736430     0.0000000
units angstrom
no_reorient  #important for SAPT in psi4, default
symmetry c1  #important for SAPT in psi4, default
}

set PROPERTIES_ORIGIN ["COM"]
properties('MP2/aug-cc-pvtz', properties = ['dipole'])
--------------------------------------------------------------------------

    Molecular point group: c1
  Charge       = 0
  Multiplicity = 1
  Basis Set: AUG-CC-PVTZ
    Blend: AUG-CC-PVTZ
  Basis Set: (AUG-CC-PVTZ AUX)
    Blend: AUG-CC-PVTZ-JKFIT

    Orbital Energies [Eh]
    ---------------------

    Doubly Occupied:

       1A    -92.004754     2A    -20.536690     3A    -15.599125
       4A    -15.587034     5A    -11.370780     6A    -11.319610
       7A    -11.278699     8A    -11.273948     9A    -11.267713
      10A     -9.004872    11A     -6.685620    12A     -6.685095
      13A     -6.684457    14A     -1.417193    15A     -1.289581
      16A     -1.258665    17A     -1.073454    18A     -1.019946
      19A     -0.963301    20A     -0.830316    21A     -0.800691
      22A     -0.787791    23A     -0.712126    24A     -0.666780
      25A     -0.651294    26A     -0.644401    27A     -0.603169
      28A     -0.580533    29A     -0.563213    30A     -0.558793
      31A     -0.545443    32A     -0.510412    33A     -0.465297
      34A     -0.426577    35A     -0.414524    36A     -0.393404
      37A     -0.341693

  @DF-RHF Final Energy:  -774.27124830132686

   => Energetics <=

    Nuclear Repulsion Energy =            504.5156890005261516
    One-Electron Energy =               -2063.9398893348025013
    Two-Electron Energy =                 785.1529520329494289
    Total Energy =                       -774.2712483013268638
  Basis Set: (AUG-CC-PVTZ AUX)
    Blend: AUG-CC-PVTZ-RI
    Molecular point group: c1

    Geometry (in Angstrom), charge = 0, multiplicity = 1:

       Center              X                  Y                   Z               Mass
    ------------   -----------------  -----------------  -----------------  -----------------
         S            1.512266041611    -1.048962183155     0.000000951971    31.972071174400
         O           -1.463028958389    -1.527388183155    -0.000001048029    15.994914619570
         N           -2.052065958389     0.705565816845    -0.000000048029    14.003074004430
         N            0.642106041611     1.386112816845    -0.000001048029    14.003074004430
         C            0.246641041611     0.121575816845    -0.000000048029    12.000000000000
         C           -1.268116058389    -0.354503583155    -0.000001148029    12.000000000000
         C           -3.485907958389     0.497009816845     0.000000951971    12.000000000000
         C            2.652508041611     0.227619816845    -0.000000048029    12.000000000000
         C            2.007507041611     1.446379816845    -0.000000048029    12.000000000000
         H           -1.657563958389     1.640038816845     0.000000951971     1.007825032230
         H           -3.943727958389     0.935480816845    -0.891194048029     1.007825032230
         H           -3.943725958389     0.935472816845     0.891200951971     1.007825032230
         H           -3.656677958389    -0.579355183155    -0.000003048029     1.007825032230
         H            3.717675041611     0.035458816845     0.000000951971     1.007825032230
         H            2.501592041611     2.411839816845    -0.000000048029     1.007825032230

  Basis Set: AUG-CC-PVTZ
    Blend: AUG-CC-PVTZ
  Basis Set: (AUG-CC-PVTZ AUX)
    Blend: AUG-CC-PVTZ-JKFIT
	 Reference Energy          =    -774.2712483013268638 [Eh]
	 Singles Energy            =      -0.0000000000000000 [Eh]
	 Same-Spin Energy          =      -0.4571857807932007 [Eh]
	 Opposite-Spin Energy      =      -1.3659180792212111 [Eh]
	 Correlation Energy        =      -1.8231038600144118 [Eh]
	 Total Energy              =    -776.0943521613412486 [Eh]

	 ================> DF-SCS-MP2 Energies <==================
	-----------------------------------------------------------
	 SCS Same-Spin Scale       =       0.3333333333333333 [-]
	 SCS Opposite-Spin Scale   =       1.2000000000000000 [-]
	 SCS Same-Spin Energy      =      -0.1523952602644002 [Eh]
	 SCS Opposite-Spin Energy  =      -1.6391016950654533 [Eh]
	 SCS Correlation Energy    =      -1.7914969553298534 [Eh]
	 SCS Total Energy          =    -776.0627452566567399 [Eh]
	-----------------------------------------------------------

  Dipole Moment: [D]
     X:     0.3889      Y:     2.3045      Z:     0.0000     Total:     2.3370

*** Psi4 exiting successfully. Buy a developer a beer!
