                               Psi4 1.3.2 release

  ==> Input File <==

--------------------------------------------------------------------------
#psi4
#
memory 32 gb

molecule  {
0 1
  S        1.5510760    -1.0871590     0.0000010
  O       -1.4242190    -1.5655850    -0.0000010
  N       -2.0132560     0.6673690     0.0000000
  N        0.7681623     1.3172494    -0.0000009
  C        0.2854510     0.0833790     0.0000000
  C       -1.1339070    -0.3627170    -0.0000010
  C       -3.4470980     0.4588130     0.0000010
  C        2.6913180     0.1894230     0.0000000
  C        2.0463170     1.4081830     0.0000000
  H       -1.6187540     1.6018420     0.0000010
  H       -3.9049180     0.8972840    -0.8911940
  H       -3.9049160     0.8972760     0.8912010
  H       -3.6178680    -0.6175520    -0.0000030
  H        3.7564850    -0.0027380     0.0000010
  H        2.5404020     2.3736430     0.0000000
units angstrom
no_reorient  #important for SAPT in psi4, default
symmetry c1  #important for SAPT in psi4, default
}

set PROPERTIES_ORIGIN ["COM"]
properties('MP2/aug-cc-pvtz', properties = ['dipole'])
--------------------------------------------------------------------------

    Molecular point group: c1
  Charge       = 0
  Multiplicity = 1
  Basis Set: AUG-CC-PVTZ
    Blend: AUG-CC-PVTZ
  Basis Set: (AUG-CC-PVTZ AUX)
    Blend: AUG-CC-PVTZ-JKFIT

    Orbital Energies [Eh]
    ---------------------

    Doubly Occupied:

       1A    -92.013503     2A    -20.528804     3A    -15.594910
       4A    -15.585681     5A    -11.370999     6A    -11.320679
       7A    -11.280618     8A    -11.275467     9A    -11.264256
      10A     -9.013089    11A     -6.693697    12A     -6.693279
      13A     -6.692737    14A     -1.384151    15A     -1.315251
      16A     -1.239509    17A     -1.079275    18A     -1.042061
      19A     -0.960783    20A     -0.848140    21A     -0.812521
      22A     -0.778167    23A     -0.721771    24A     -0.665843
      25A     -0.650838    26A     -0.634571    27A     -0.605901
      28A     -0.590935    29A     -0.565668    30A     -0.552033
      31A     -0.535851    32A     -0.515577    33A     -0.455964
      34A     -0.432945    35A     -0.409303    36A     -0.395243
      37A     -0.343656

  @DF-RHF Final Energy:  -774.26993457495496

   => Energetics <=

    Nuclear Repulsion Energy =            506.2382237200828285
    One-Electron Energy =               -2067.2889591551661397
    Two-Electron Energy =                 786.7808008601284655
    Total Energy =                       -774.2699345749549593
  Basis Set: (AUG-CC-PVTZ AUX)
    Blend: AUG-CC-PVTZ-RI
    Molecular point group: c1

    Geometry (in Angstrom), charge = 0, multiplicity = 1:

       Center              X                  Y                   Z               Mass
    ------------   -----------------  -----------------  -----------------  -----------------
         S            1.495602866031    -1.048471929472     0.000000933662    31.972071174400
         O           -1.479692133969    -1.526897929472    -0.000001066338    15.994914619570
         N           -2.068729133969     0.706056070528    -0.000000066338    14.003074004430
         N            0.712689166031     1.355936470528    -0.000000966338    14.003074004430
         C            0.229977866031     0.122066070528    -0.000000066338    12.000000000000
         C           -1.189380133969    -0.324029929472    -0.000001066338    12.000000000000
         C           -3.502571133969     0.497500070528     0.000000933662    12.000000000000
         C            2.635844866031     0.228110070528    -0.000000066338    12.000000000000
         C            1.990843866031     1.446870070528    -0.000000066338    12.000000000000
         H           -1.674227133969     1.640529070528     0.000000933662     1.007825032230
         H           -3.960391133969     0.935971070528    -0.891194066338     1.007825032230
         H           -3.960389133969     0.935963070528     0.891200933662     1.007825032230
         H           -3.673341133969    -0.578864929472    -0.000003066338     1.007825032230
         H            3.701011866031     0.035949070528     0.000000933662     1.007825032230
         H            2.484928866031     2.412330070528    -0.000000066338     1.007825032230

  Basis Set: AUG-CC-PVTZ
    Blend: AUG-CC-PVTZ
  Basis Set: (AUG-CC-PVTZ AUX)
    Blend: AUG-CC-PVTZ-JKFIT
	 Reference Energy          =    -774.2699345749549593 [Eh]
	 Singles Energy            =      -0.0000000000000000 [Eh]
	 Same-Spin Energy          =      -0.4601542196332943 [Eh]
	 Opposite-Spin Energy      =      -1.3685458909538695 [Eh]
	 Correlation Energy        =      -1.8287001105871639 [Eh]
	 Total Energy              =    -776.0986346855421516 [Eh]

	 ================> DF-SCS-MP2 Energies <==================
	-----------------------------------------------------------
	 SCS Same-Spin Scale       =       0.3333333333333333 [-]
	 SCS Opposite-Spin Scale   =       1.2000000000000000 [-]
	 SCS Same-Spin Energy      =      -0.1533847398777647 [Eh]
	 SCS Opposite-Spin Energy  =      -1.6422550691446434 [Eh]
	 SCS Correlation Energy    =      -1.7956398090224082 [Eh]
	 SCS Total Energy          =    -776.0655743839773777 [Eh]
	-----------------------------------------------------------

  Dipole Moment: [D]
     X:     0.9521      Y:     2.5709      Z:     0.0000     Total:     2.7415

*** Psi4 exiting successfully. Buy a developer a beer!
