                               Psi4 1.3.2 release

  ==> Input File <==

--------------------------------------------------------------------------
#psi4
#
memory 32 gb

molecule  {
0 1
  S        1.5510760    -1.0871590     0.0000010
  O       -1.4242190    -1.5655850    -0.0000010
  N       -2.0132560     0.6673690     0.0000000
  N        0.6809160     1.3479160    -0.0000010
  C        0.2854510     0.0833790     0.0000000
  C       -1.1339070    -0.3627170    -0.0000010
  C       -3.4470980     0.4588130     0.0000010
  C        2.6913180     0.1894230     0.0000000
  C        2.0463170     1.4081830     0.0000000
  H       -1.6187540     1.6018420     0.0000010
  H       -3.9049180     0.8972840    -0.8911940
  H       -3.9049160     0.8972760     0.8912010
  H       -3.6178680    -0.6175520    -0.0000030
  H        3.5596622     0.0327697     0.0000008
  H        2.5404020     2.3736430     0.0000000
units angstrom
no_reorient  #important for SAPT in psi4, default
symmetry c1  #important for SAPT in psi4, default
}

set PROPERTIES_ORIGIN ["COM"]
properties('MP2/aug-cc-pvtz', properties = ['dipole'])
--------------------------------------------------------------------------

    Molecular point group: c1
  Charge       = 0
  Multiplicity = 1
  Basis Set: AUG-CC-PVTZ
    Blend: AUG-CC-PVTZ
  Basis Set: (AUG-CC-PVTZ AUX)
    Blend: AUG-CC-PVTZ-JKFIT

    Orbital Energies [Eh]
    ---------------------

    Doubly Occupied:

       1A    -92.012174     2A    -20.529238     3A    -15.596462
       4A    -15.593860     5A    -11.369324     6A    -11.324755
       7A    -11.285004     8A    -11.263773     9A    -11.261062
      10A     -9.012127    11A     -6.692850    12A     -6.692317
      13A     -6.691708    14A     -1.384212    15A     -1.295956
      16A     -1.237990    17A     -1.088984    18A     -1.038197
      19A     -0.963064    20A     -0.855977    21A     -0.829117
      22A     -0.777620    23A     -0.731997    24A     -0.659172
      25A     -0.655404    26A     -0.633601    27A     -0.605376
      28A     -0.584261    29A     -0.577486    30A     -0.552153
      31A     -0.532130    32A     -0.517601    33A     -0.466404
      34A     -0.436651    35A     -0.408585    36A     -0.392486
      37A     -0.348767

  @DF-RHF Final Energy:  -774.24055590138141

   => Energetics <=

    Nuclear Repulsion Energy =            506.0793241258863873
    One-Electron Energy =               -2066.8440653122565891
    Two-Electron Energy =                 786.5241852849887891
    Total Energy =                       -774.2405559013814127
  Basis Set: (AUG-CC-PVTZ AUX)
    Blend: AUG-CC-PVTZ-RI
    Molecular point group: c1

    Geometry (in Angstrom), charge = 0, multiplicity = 1:

       Center              X                  Y                   Z               Mass
    ------------   -----------------  -----------------  -----------------  -----------------
         S            1.505602010520    -1.051747608552     0.000000944941    31.972071174400
         O           -1.469692989480    -1.530173608552    -0.000001055059    15.994914619570
         N           -2.058729989480     0.702780391448    -0.000000055059    14.003074004430
         N            0.635442010520     1.383327391448    -0.000001055059    14.003074004430
         C            0.239977010520     0.118790391448    -0.000000055059    12.000000000000
         C           -1.179380989480    -0.327305608552    -0.000001055059    12.000000000000
         C           -3.492571989480     0.494224391448     0.000000944941    12.000000000000
         C            2.645844010520     0.224834391448    -0.000000055059    12.000000000000
         C            2.000843010520     1.443594391448    -0.000000055059    12.000000000000
         H           -1.664227989480     1.637253391448     0.000000944941     1.007825032230
         H           -3.950391989480     0.932695391448    -0.891194055059     1.007825032230
         H           -3.950389989480     0.932687391448     0.891200944941     1.007825032230
         H           -3.663341989480    -0.582140608552    -0.000003055059     1.007825032230
         H            3.514188210520     0.068181091448     0.000000744941     1.007825032230
         H            2.494928010520     2.409054391448    -0.000000055059     1.007825032230

  Basis Set: AUG-CC-PVTZ
    Blend: AUG-CC-PVTZ
  Basis Set: (AUG-CC-PVTZ AUX)
    Blend: AUG-CC-PVTZ-JKFIT
	 Reference Energy          =    -774.2405559013814127 [Eh]
	 Singles Energy            =      -0.0000000000000000 [Eh]
	 Same-Spin Energy          =      -0.4585718547414076 [Eh]
	 Opposite-Spin Energy      =      -1.3689103347560678 [Eh]
	 Correlation Energy        =      -1.8274821894974753 [Eh]
	 Total Energy              =    -776.0680380908788720 [Eh]

	 ================> DF-SCS-MP2 Energies <==================
	-----------------------------------------------------------
	 SCS Same-Spin Scale       =       0.3333333333333333 [-]
	 SCS Opposite-Spin Scale   =       1.2000000000000000 [-]
	 SCS Same-Spin Energy      =      -0.1528572849138025 [Eh]
	 SCS Opposite-Spin Energy  =      -1.6426924017072813 [Eh]
	 SCS Correlation Energy    =      -1.7955496866210838 [Eh]
	 SCS Total Energy          =    -776.0361055880024423 [Eh]
	-----------------------------------------------------------

  Dipole Moment: [D]
     X:     1.0677      Y:     2.4653      Z:     0.0000     Total:     2.6865

*** Psi4 exiting successfully. Buy a developer a beer!
