                               Psi4 1.3.2 release

  ==> Input File <==

--------------------------------------------------------------------------
#psi4
#
memory 32 gb

molecule  {
0 1
  S        1.6296456    -0.9960221     0.0000009
  O       -1.4242190    -1.5655850    -0.0000010
  N       -2.0132560     0.6673690     0.0000000
  N        0.6809160     1.3479160    -0.0000010
  C        0.2854510     0.0833790     0.0000000
  C       -1.1339070    -0.3627170    -0.0000010
  C       -3.4470980     0.4588130     0.0000010
  C        2.6913180     0.1894230     0.0000000
  C        2.0463170     1.4081830     0.0000000
  H       -1.6187540     1.6018420     0.0000010
  H       -3.9049180     0.8972840    -0.8911940
  H       -3.9049160     0.8972760     0.8912010
  H       -3.6178680    -0.6175520    -0.0000030
  H        3.7564850    -0.0027380     0.0000010
  H        2.5404020     2.3736430     0.0000000
units angstrom
no_reorient  #important for SAPT in psi4, default
symmetry c1  #important for SAPT in psi4, default
}

set PROPERTIES_ORIGIN ["COM"]
properties('MP2/aug-cc-pvtz', properties = ['dipole'])
--------------------------------------------------------------------------

    Molecular point group: c1
  Charge       = 0
  Multiplicity = 1
  Basis Set: AUG-CC-PVTZ
    Blend: AUG-CC-PVTZ
  Basis Set: (AUG-CC-PVTZ AUX)
    Blend: AUG-CC-PVTZ-JKFIT

    Orbital Energies [Eh]
    ---------------------

    Doubly Occupied:

       1A    -92.009120     2A    -20.526741     3A    -15.597242
       4A    -15.592741     5A    -11.369172     6A    -11.318773
       7A    -11.282011     8A    -11.274888     9A    -11.263091
      10A     -9.012464    11A     -6.693522    12A     -6.692622
      13A     -6.691958    14A     -1.381980    15A     -1.302759
      16A     -1.237402    17A     -1.109186    18A     -1.031612
      19A     -0.958563    20A     -0.848192    21A     -0.803730
      22A     -0.778005    23A     -0.728382    24A     -0.658841
      25A     -0.650542    26A     -0.633175    27A     -0.597169
      28A     -0.589970    29A     -0.578204    30A     -0.551255
      31A     -0.534845    32A     -0.518046    33A     -0.463845
      34A     -0.435348    35A     -0.415706    36A     -0.394027
      37A     -0.343143

  @DF-RHF Final Energy:  -774.26763915055994

   => Energetics <=

    Nuclear Repulsion Energy =            507.4006768994931349
    One-Electron Energy =               -2069.6000869379790856
    Two-Electron Energy =                 787.9317708879259499
    Total Energy =                       -774.2676391505599440
  Basis Set: (AUG-CC-PVTZ AUX)
    Blend: AUG-CC-PVTZ-RI
    Molecular point group: c1

    Geometry (in Angstrom), charge = 0, multiplicity = 1:

       Center              X                  Y                   Z               Mass
    ------------   -----------------  -----------------  -----------------  -----------------
         S            1.565087015498    -0.980875799401     0.000000866034    31.972071174400
         O           -1.488777584502    -1.550438699401    -0.000001033966    15.994914619570
         N           -2.077814584502     0.682515300599    -0.000000033966    14.003074004430
         N            0.616357415498     1.363062300599    -0.000001033966    14.003074004430
         C            0.220892415498     0.098525300599    -0.000000033966    12.000000000000
         C           -1.198465584502    -0.347570699401    -0.000001033966    12.000000000000
         C           -3.511656584502     0.473959300599     0.000000966034    12.000000000000
         C            2.626759415498     0.204569300599    -0.000000033966    12.000000000000
         C            1.981758415498     1.423329300599    -0.000000033966    12.000000000000
         H           -1.683312584502     1.616988300599     0.000000966034     1.007825032230
         H           -3.969476584502     0.912430300599    -0.891194033966     1.007825032230
         H           -3.969474584502     0.912422300599     0.891200966034     1.007825032230
         H           -3.682426584502    -0.602405699401    -0.000003033966     1.007825032230
         H            3.691926415498     0.012408300599     0.000000966034     1.007825032230
         H            2.475843415498     2.388789300599    -0.000000033966     1.007825032230

  Basis Set: AUG-CC-PVTZ
    Blend: AUG-CC-PVTZ
  Basis Set: (AUG-CC-PVTZ AUX)
    Blend: AUG-CC-PVTZ-JKFIT
	 Reference Energy          =    -774.2676391505599440 [Eh]
	 Singles Energy            =      -0.0000000000000000 [Eh]
	 Same-Spin Energy          =      -0.4600668695917946 [Eh]
	 Opposite-Spin Energy      =      -1.3680941251200265 [Eh]
	 Correlation Energy        =      -1.8281609947118211 [Eh]
	 Total Energy              =    -776.0958001452717099 [Eh]

	 ================> DF-SCS-MP2 Energies <==================
	-----------------------------------------------------------
	 SCS Same-Spin Scale       =       0.3333333333333333 [-]
	 SCS Opposite-Spin Scale   =       1.2000000000000000 [-]
	 SCS Same-Spin Energy      =      -0.1533556231972649 [Eh]
	 SCS Opposite-Spin Energy  =      -1.6417129501440317 [Eh]
	 SCS Correlation Energy    =      -1.7950685733412965 [Eh]
	 SCS Total Energy          =    -776.0627077239012124 [Eh]
	-----------------------------------------------------------

  Dipole Moment: [D]
     X:     1.2876      Y:     2.4635      Z:     0.0000     Total:     2.7798

*** Psi4 exiting successfully. Buy a developer a beer!
