                               Psi4 1.3.2 release

  ==> Input File <==

--------------------------------------------------------------------------
#psi4
#
memory 32 gb

molecule  {
0 1
  S        1.5510760    -1.0871590     0.0000010
  O       -1.4242190    -1.5655850    -0.0000010
  N       -2.0132560     0.6673690     0.0000000
  N        0.5917430     1.3724219    -0.0000011
  C        0.2854510     0.0833790     0.0000000
  C       -1.1339070    -0.3627170    -0.0000010
  C       -3.4470980     0.4588130     0.0000010
  C        2.6913180     0.1894230     0.0000000
  C        2.0463170     1.4081830     0.0000000
  H       -1.6187540     1.6018420     0.0000010
  H       -3.9049180     0.8972840    -0.8911940
  H       -3.9049160     0.8972760     0.8912010
  H       -3.6178680    -0.6175520    -0.0000030
  H        3.7564850    -0.0027380     0.0000010
  H        2.5404020     2.3736430     0.0000000
units angstrom
no_reorient  #important for SAPT in psi4, default
symmetry c1  #important for SAPT in psi4, default
}

set PROPERTIES_ORIGIN ["COM"]
properties('MP2/aug-cc-pvtz', properties = ['dipole'])
--------------------------------------------------------------------------

    Molecular point group: c1
  Charge       = 0
  Multiplicity = 1
  Basis Set: AUG-CC-PVTZ
    Blend: AUG-CC-PVTZ
  Basis Set: (AUG-CC-PVTZ AUX)
    Blend: AUG-CC-PVTZ-JKFIT

    Orbital Energies [Eh]
    ---------------------

    Doubly Occupied:

       1A    -92.012533     2A    -20.528941     3A    -15.607160
       4A    -15.591991     5A    -11.367147     6A    -11.327881
       7A    -11.293584     8A    -11.285816     9A    -11.262849
      10A     -9.012712    11A     -6.693496    12A     -6.692868
      13A     -6.692161    14A     -1.383778    15A     -1.281859
      16A     -1.235176    17A     -1.085973    18A     -1.027956
      19A     -0.958798    20A     -0.847732    21A     -0.799901
      22A     -0.776233    23A     -0.714653    24A     -0.651400
      25A     -0.646869    26A     -0.632528    27A     -0.589818
      28A     -0.579903    29A     -0.569289    30A     -0.552051
      31A     -0.528515    32A     -0.521321    33A     -0.475712
      34A     -0.435784    35A     -0.409272    36A     -0.390294
      37A     -0.352069

  @DF-RHF Final Energy:  -774.26790432673988

   => Energetics <=

    Nuclear Repulsion Energy =            503.6627833368341953
    One-Electron Energy =               -2062.2293287377556226
    Two-Electron Energy =                 784.2986410741814325
    Total Energy =                       -774.2679043267398811
  Basis Set: (AUG-CC-PVTZ AUX)
    Blend: AUG-CC-PVTZ-RI
    Molecular point group: c1

    Geometry (in Angstrom), charge = 0, multiplicity = 1:

       Center              X                  Y                   Z               Mass
    ------------   -----------------  -----------------  -----------------  -----------------
         S            1.512997676991    -1.053911896685     0.000000953382    31.972071174400
         O           -1.462297323009    -1.532337896685    -0.000001046618    15.994914619570
         N           -2.051334323009     0.700616103315    -0.000000046618    14.003074004430
         N            0.553664676991     1.405669003315    -0.000001146618    14.003074004430
         C            0.247372676991     0.116626103315    -0.000000046618    12.000000000000
         C           -1.171985323009    -0.329469896685    -0.000001046618    12.000000000000
         C           -3.485176323009     0.492060103315     0.000000953382    12.000000000000
         C            2.653239676991     0.222670103315    -0.000000046618    12.000000000000
         C            2.008238676991     1.441430103315    -0.000000046618    12.000000000000
         H           -1.656832323009     1.635089103315     0.000000953382     1.007825032230
         H           -3.942996323009     0.930531103315    -0.891194046618     1.007825032230
         H           -3.942994323009     0.930523103315     0.891200953382     1.007825032230
         H           -3.655946323009    -0.584304896685    -0.000003046618     1.007825032230
         H            3.718406676991     0.030509103315     0.000000953382     1.007825032230
         H            2.502323676991     2.406890103315    -0.000000046618     1.007825032230

  Basis Set: AUG-CC-PVTZ
    Blend: AUG-CC-PVTZ
  Basis Set: (AUG-CC-PVTZ AUX)
    Blend: AUG-CC-PVTZ-JKFIT
	 Reference Energy          =    -774.2679043267398811 [Eh]
	 Singles Energy            =      -0.0000000000000000 [Eh]
	 Same-Spin Energy          =      -0.4579445939197637 [Eh]
	 Opposite-Spin Energy      =      -1.3706260139345918 [Eh]
	 Correlation Energy        =      -1.8285706078543555 [Eh]
	 Total Energy              =    -776.0964749345941982 [Eh]

	 ================> DF-SCS-MP2 Energies <==================
	-----------------------------------------------------------
	 SCS Same-Spin Scale       =       0.3333333333333333 [-]
	 SCS Opposite-Spin Scale   =       1.2000000000000000 [-]
	 SCS Same-Spin Energy      =      -0.1526481979732546 [Eh]
	 SCS Opposite-Spin Energy  =      -1.6447512167215101 [Eh]
	 SCS Correlation Energy    =      -1.7973994146947647 [Eh]
	 SCS Total Energy          =    -776.0653037414346045 [Eh]
	-----------------------------------------------------------

  Dipole Moment: [D]
     X:     1.2645      Y:     2.3741      Z:     0.0000     Total:     2.6898

*** Psi4 exiting successfully. Buy a developer a beer!
