                               Psi4 1.3.2 release

  ==> Input File <==

--------------------------------------------------------------------------
#psi4
#
memory 32 gb

molecule  {
0 1
  S        1.5510760    -1.0871590     0.0000010
  O       -1.4242190    -1.5655850    -0.0000010
  N       -2.0132560     0.6673690     0.0000000
  N        0.5465695     1.3823261    -0.0000012
  C        0.2854510     0.0833790     0.0000000
  C       -1.1339070    -0.3627170    -0.0000010
  C       -3.4470980     0.4588130     0.0000010
  C        2.6913180     0.1894230     0.0000000
  C        2.0463170     1.4081830     0.0000000
  H       -1.6187540     1.6018420     0.0000010
  H       -3.9049180     0.8972840    -0.8911940
  H       -3.9049160     0.8972760     0.8912010
  H       -3.6178680    -0.6175520    -0.0000030
  H        3.7564850    -0.0027380     0.0000010
  H        2.5404020     2.3736430     0.0000000
units angstrom
no_reorient  #important for SAPT in psi4, default
symmetry c1  #important for SAPT in psi4, default
}

set PROPERTIES_ORIGIN ["COM"]
properties('MP2/aug-cc-pvtz', properties = ['dipole'])
--------------------------------------------------------------------------

    Molecular point group: c1
  Charge       = 0
  Multiplicity = 1
  Basis Set: AUG-CC-PVTZ
    Blend: AUG-CC-PVTZ
  Basis Set: (AUG-CC-PVTZ AUX)
    Blend: AUG-CC-PVTZ-JKFIT

    Orbital Energies [Eh]
    ---------------------

    Doubly Occupied:

       1A    -92.012555     2A    -20.528611     3A    -15.611704
       4A    -15.590837     5A    -11.365921     6A    -11.329383
       7A    -11.297464     8A    -11.287492     9A    -11.262271
      10A     -9.012856    11A     -6.693673    12A     -6.692998
      13A     -6.692254    14A     -1.383428    15A     -1.276510
      16A     -1.233322    17A     -1.088858    18A     -1.023902
      19A     -0.958260    20A     -0.847520    21A     -0.798358
      22A     -0.775258    23A     -0.712480    24A     -0.650854
      25A     -0.644662    26A     -0.631939    27A     -0.583983
      28A     -0.578170    29A     -0.569747    30A     -0.552092
      31A     -0.526798    32A     -0.523364    33A     -0.478900
      34A     -0.434428    35A     -0.410073    36A     -0.389425
      37A     -0.353321

  @DF-RHF Final Energy:  -774.25935427044499

   => Energetics <=

    Nuclear Repulsion Energy =            503.1706932584064589
    One-Electron Energy =               -2061.2527462440839372
    Two-Electron Energy =                 783.8226987152323773
    Total Energy =                       -774.2593542704449874
  Basis Set: (AUG-CC-PVTZ AUX)
    Blend: AUG-CC-PVTZ-RI
    Molecular point group: c1

    Geometry (in Angstrom), charge = 0, multiplicity = 1:

       Center              X                  Y                   Z               Mass
    ------------   -----------------  -----------------  -----------------  -----------------
         S            1.517451750287    -1.054888443393     0.000000963242    31.972071174400
         O           -1.457843249713    -1.533314443393    -0.000001036758    15.994914619570
         N           -2.046880249713     0.699639556607    -0.000000036758    14.003074004430
         N            0.512945250287     1.414596656607    -0.000001236758    14.003074004430
         C            0.251826750287     0.115649556607    -0.000000036758    12.000000000000
         C           -1.167531249713    -0.330446443393    -0.000001036758    12.000000000000
         C           -3.480722249713     0.491083556607     0.000000963242    12.000000000000
         C            2.657693750287     0.221693556607    -0.000000036758    12.000000000000
         C            2.012692750287     1.440453556607    -0.000000036758    12.000000000000
         H           -1.652378249713     1.634112556607     0.000000963242     1.007825032230
         H           -3.938542249713     0.929554556607    -0.891194036758     1.007825032230
         H           -3.938540249713     0.929546556607     0.891200963242     1.007825032230
         H           -3.651492249713    -0.585281443393    -0.000003036758     1.007825032230
         H            3.722860750287     0.029532556607     0.000000963242     1.007825032230
         H            2.506777750287     2.405913556607    -0.000000036758     1.007825032230

  Basis Set: AUG-CC-PVTZ
    Blend: AUG-CC-PVTZ
  Basis Set: (AUG-CC-PVTZ AUX)
    Blend: AUG-CC-PVTZ-JKFIT
	 Reference Energy          =    -774.2593542704449874 [Eh]
	 Singles Energy            =      -0.0000000000000000 [Eh]
	 Same-Spin Energy          =      -0.4577040722291951 [Eh]
	 Opposite-Spin Energy      =      -1.3717982555391810 [Eh]
	 Correlation Energy        =      -1.8295023277683762 [Eh]
	 Total Energy              =    -776.0888565982133969 [Eh]

	 ================> DF-SCS-MP2 Energies <==================
	-----------------------------------------------------------
	 SCS Same-Spin Scale       =       0.3333333333333333 [-]
	 SCS Opposite-Spin Scale   =       1.2000000000000000 [-]
	 SCS Same-Spin Energy      =      -0.1525680240763984 [Eh]
	 SCS Opposite-Spin Energy  =      -1.6461579066470171 [Eh]
	 SCS Correlation Energy    =      -1.7987259307234154 [Eh]
	 SCS Total Energy          =    -776.0580802011684227 [Eh]
	-----------------------------------------------------------

  Dipole Moment: [D]
     X:     1.3312      Y:     2.3503      Z:     0.0000     Total:     2.7011

*** Psi4 exiting successfully. Buy a developer a beer!
