                               Psi4 1.3.2 release

  ==> Input File <==

--------------------------------------------------------------------------
#psi4
#
memory 32 gb

molecule  {
0 1
  S        1.5510760    -1.0871590     0.0000010
  O       -1.4242190    -1.5655850    -0.0000010
  N       -2.0132560     0.6673690     0.0000000
  N        0.6809160     1.3479160    -0.0000010
  C        0.3588657     0.0154800     0.0000001
  C       -1.1339070    -0.3627170    -0.0000010
  C       -3.4470980     0.4588130     0.0000010
  C        2.6913180     0.1894230     0.0000000
  C        2.0463170     1.4081830     0.0000000
  H       -1.6187540     1.6018420     0.0000010
  H       -3.9049180     0.8972840    -0.8911940
  H       -3.9049160     0.8972760     0.8912010
  H       -3.6178680    -0.6175520    -0.0000030
  H        3.7564850    -0.0027380     0.0000010
  H        2.5404020     2.3736430     0.0000000
units angstrom
no_reorient  #important for SAPT in psi4, default
symmetry c1  #important for SAPT in psi4, default
}

set PROPERTIES_ORIGIN ["COM"]
properties('MP2/aug-cc-pvtz', properties = ['dipole'])
--------------------------------------------------------------------------

    Molecular point group: c1
  Charge       = 0
  Multiplicity = 1
  Basis Set: AUG-CC-PVTZ
    Blend: AUG-CC-PVTZ
  Basis Set: (AUG-CC-PVTZ AUX)
    Blend: AUG-CC-PVTZ-JKFIT

    Orbital Energies [Eh]
    ---------------------

    Doubly Occupied:

       1A    -92.018908     2A    -20.525995     3A    -15.593377
       4A    -15.593360     5A    -11.370300     6A    -11.322401
       7A    -11.285064     8A    -11.276934     9A    -11.263582
      10A     -9.020837    11A     -6.701756    12A     -6.700946
      13A     -6.700324    14A     -1.381100    15A     -1.289136
      16A     -1.235757    17A     -1.092185    18A     -1.030934
      19A     -0.958571    20A     -0.837306    21A     -0.800629
      22A     -0.776349    23A     -0.720007    24A     -0.650625
      25A     -0.648415    26A     -0.631267    27A     -0.589652
      28A     -0.585001    29A     -0.572773    30A     -0.551242
      31A     -0.531595    32A     -0.522176    33A     -0.468901
      34A     -0.434923    35A     -0.406429    36A     -0.391672
      37A     -0.349640

  @DF-RHF Final Energy:  -774.26492358482574

   => Energetics <=

    Nuclear Repulsion Energy =            505.3960333896278598
    One-Electron Energy =               -2065.6617771296591854
    Two-Electron Energy =                 786.0008201552054743
    Total Energy =                       -774.2649235848257376
  Basis Set: (AUG-CC-PVTZ AUX)
    Blend: AUG-CC-PVTZ-RI
    Molecular point group: c1

    Geometry (in Angstrom), charge = 0, multiplicity = 1:

       Center              X                  Y                   Z               Mass
    ------------   -----------------  -----------------  -----------------  -----------------
         S            1.498002104124    -1.045758501062     0.000000935072    31.972071174400
         O           -1.477292895876    -1.524184501062    -0.000001064928    15.994914619570
         N           -2.066329895876     0.708769498938    -0.000000064928    14.003074004430
         N            0.627842104124     1.389316498938    -0.000001064928    14.003074004430
         C            0.305791804124     0.056880498938     0.000000035072    12.000000000000
         C           -1.186980895876    -0.321316501062    -0.000001064928    12.000000000000
         C           -3.500171895876     0.500213498938     0.000000935072    12.000000000000
         C            2.638244104124     0.230823498938    -0.000000064928    12.000000000000
         C            1.993243104124     1.449583498938    -0.000000064928    12.000000000000
         H           -1.671827895876     1.643242498938     0.000000935072     1.007825032230
         H           -3.957991895876     0.938684498938    -0.891194064928     1.007825032230
         H           -3.957989895876     0.938676498938     0.891200935072     1.007825032230
         H           -3.670941895876    -0.576151501062    -0.000003064928     1.007825032230
         H            3.703411104124     0.038662498938     0.000000935072     1.007825032230
         H            2.487328104124     2.415043498938    -0.000000064928     1.007825032230

  Basis Set: AUG-CC-PVTZ
    Blend: AUG-CC-PVTZ
  Basis Set: (AUG-CC-PVTZ AUX)
    Blend: AUG-CC-PVTZ-JKFIT
	 Reference Energy          =    -774.2649235848257376 [Eh]
	 Singles Energy            =      -0.0000000000000000 [Eh]
	 Same-Spin Energy          =      -0.4596739252754988 [Eh]
	 Opposite-Spin Energy      =      -1.3698527872198203 [Eh]
	 Correlation Energy        =      -1.8295267124953192 [Eh]
	 Total Energy              =    -776.0944502973210319 [Eh]

	 ================> DF-SCS-MP2 Energies <==================
	-----------------------------------------------------------
	 SCS Same-Spin Scale       =       0.3333333333333333 [-]
	 SCS Opposite-Spin Scale   =       1.2000000000000000 [-]
	 SCS Same-Spin Energy      =      -0.1532246417584996 [Eh]
	 SCS Opposite-Spin Energy  =      -1.6438233446637842 [Eh]
	 SCS Correlation Energy    =      -1.7970479864222839 [Eh]
	 SCS Total Energy          =    -776.0619715712480229 [Eh]
	-----------------------------------------------------------

  Dipole Moment: [D]
     X:     1.2555      Y:     2.2406      Z:     0.0000     Total:     2.5683

*** Psi4 exiting successfully. Buy a developer a beer!
