                               Psi4 1.3.2 release

  ==> Input File <==

--------------------------------------------------------------------------
#psi4
#
memory 32 gb

molecule  {
0 1
  S        1.5510760    -1.0871590     0.0000010
  O       -1.4242190    -1.5655850    -0.0000010
  N       -2.0132560     0.6673690     0.0000000
  N        0.6809160     1.3479160    -0.0000010
  C        0.2068814    -0.0077579     0.0000001
  C       -1.1339070    -0.3627170    -0.0000010
  C       -3.4470980     0.4588130     0.0000010
  C        2.6913180     0.1894230     0.0000000
  C        2.0463170     1.4081830     0.0000000
  H       -1.6187540     1.6018420     0.0000010
  H       -3.9049180     0.8972840    -0.8911940
  H       -3.9049160     0.8972760     0.8912010
  H       -3.6178680    -0.6175520    -0.0000030
  H        3.7564850    -0.0027380     0.0000010
  H        2.5404020     2.3736430     0.0000000
units angstrom
no_reorient  #important for SAPT in psi4, default
symmetry c1  #important for SAPT in psi4, default
}

set PROPERTIES_ORIGIN ["COM"]
properties('MP2/aug-cc-pvtz', properties = ['dipole'])
--------------------------------------------------------------------------

    Molecular point group: c1
  Charge       = 0
  Multiplicity = 1
  Basis Set: AUG-CC-PVTZ
    Blend: AUG-CC-PVTZ
  Basis Set: (AUG-CC-PVTZ AUX)
    Blend: AUG-CC-PVTZ-JKFIT

    Orbital Energies [Eh]
    ---------------------

    Doubly Occupied:

       1A    -92.023067     2A    -20.523774     3A    -15.605535
       4A    -15.591079     5A    -11.360023     6A    -11.325732
       7A    -11.289364     8A    -11.287911     9A    -11.262237
      10A     -9.021784    11A     -6.702408    12A     -6.702041
      13A     -6.701527    14A     -1.385623    15A     -1.269079
      16A     -1.235123    17A     -1.075067    18A     -1.049015
      19A     -0.959025    20A     -0.869133    21A     -0.793080
      22A     -0.777942    23A     -0.716685    24A     -0.658566
      25A     -0.651709    26A     -0.633839    27A     -0.596852
      28A     -0.579094    29A     -0.573605    30A     -0.550298
      31A     -0.528039    32A     -0.519003    33A     -0.450011
      34A     -0.443785    35A     -0.403330    36A     -0.389515
      37A     -0.345415

  @DF-RHF Final Energy:  -774.24934759438827

   => Energetics <=

    Nuclear Repulsion Energy =            504.6068192360386320
    One-Electron Energy =               -2064.0137032352999995
    Two-Electron Energy =                 785.1575364048732126
    Total Energy =                       -774.2493475943882686
  Basis Set: (AUG-CC-PVTZ AUX)
    Blend: AUG-CC-PVTZ-RI
    Molecular point group: c1

    Geometry (in Angstrom), charge = 0, multiplicity = 1:

       Center              X                  Y                   Z               Mass
    ------------   -----------------  -----------------  -----------------  -----------------
         S            1.510844031468    -1.043795012574     0.000000935072    31.972071174400
         O           -1.464450968532    -1.522221012574    -0.000001064928    15.994914619570
         N           -2.053487968532     0.710732987426    -0.000000064928    14.003074004430
         N            0.640684031468     1.391279987426    -0.000001064928    14.003074004430
         C            0.166649431468     0.035606087426     0.000000035072    12.000000000000
         C           -1.174138968532    -0.319353012574    -0.000001064928    12.000000000000
         C           -3.487329968532     0.502176987426     0.000000935072    12.000000000000
         C            2.651086031468     0.232786987426    -0.000000064928    12.000000000000
         C            2.006085031468     1.451546987426    -0.000000064928    12.000000000000
         H           -1.658985968532     1.645205987426     0.000000935072     1.007825032230
         H           -3.945149968532     0.940647987426    -0.891194064928     1.007825032230
         H           -3.945147968532     0.940639987426     0.891200935072     1.007825032230
         H           -3.658099968532    -0.574188012574    -0.000003064928     1.007825032230
         H            3.716253031468     0.040625987426     0.000000935072     1.007825032230
         H            2.500170031468     2.417006987426    -0.000000064928     1.007825032230

  Basis Set: AUG-CC-PVTZ
    Blend: AUG-CC-PVTZ
  Basis Set: (AUG-CC-PVTZ AUX)
    Blend: AUG-CC-PVTZ-JKFIT
	 Reference Energy          =    -774.2493475943882686 [Eh]
	 Singles Energy            =      -0.0000000000000000 [Eh]
	 Same-Spin Energy          =      -0.4629086558630204 [Eh]
	 Opposite-Spin Energy      =      -1.3756299488674053 [Eh]
	 Correlation Energy        =      -1.8385386047304257 [Eh]
	 Total Energy              =    -776.0878861991186568 [Eh]

	 ================> DF-SCS-MP2 Energies <==================
	-----------------------------------------------------------
	 SCS Same-Spin Scale       =       0.3333333333333333 [-]
	 SCS Opposite-Spin Scale   =       1.2000000000000000 [-]
	 SCS Same-Spin Energy      =      -0.1543028852876735 [Eh]
	 SCS Opposite-Spin Energy  =      -1.6507559386408863 [Eh]
	 SCS Correlation Energy    =      -1.8050588239285599 [Eh]
	 SCS Total Energy          =    -776.0544064183168302 [Eh]
	-----------------------------------------------------------

  Dipole Moment: [D]
     X:     1.4591      Y:     2.4330      Z:     0.0000     Total:     2.8370

*** Psi4 exiting successfully. Buy a developer a beer!
