                               Psi4 1.3.2 release

  ==> Input File <==

--------------------------------------------------------------------------
#psi4
#
memory 32 gb

molecule  {
0 1
  S        1.5510760    -1.0871590     0.0000010
  O       -1.5483626    -1.5286497    -0.0000011
  N       -2.0132560     0.6673690     0.0000000
  N        0.6809160     1.3479160    -0.0000010
  C        0.2854510     0.0833790     0.0000000
  C       -1.1339070    -0.3627170    -0.0000010
  C       -3.4470980     0.4588130     0.0000010
  C        2.6913180     0.1894230     0.0000000
  C        2.0463170     1.4081830     0.0000000
  H       -1.6187540     1.6018420     0.0000010
  H       -3.9049180     0.8972840    -0.8911940
  H       -3.9049160     0.8972760     0.8912010
  H       -3.6178680    -0.6175520    -0.0000030
  H        3.7564850    -0.0027380     0.0000010
  H        2.5404020     2.3736430     0.0000000
units angstrom
no_reorient  #important for SAPT in psi4, default
symmetry c1  #important for SAPT in psi4, default
}

set PROPERTIES_ORIGIN ["COM"]
properties('MP2/aug-cc-pvtz', properties = ['dipole'])
--------------------------------------------------------------------------

    Molecular point group: c1
  Charge       = 0
  Multiplicity = 1
  Basis Set: AUG-CC-PVTZ
    Blend: AUG-CC-PVTZ
  Basis Set: (AUG-CC-PVTZ AUX)
    Blend: AUG-CC-PVTZ-JKFIT

    Orbital Energies [Eh]
    ---------------------

    Doubly Occupied:

       1A    -92.016892     2A    -20.525675     3A    -15.601359
       4A    -15.586977     5A    -11.367922     6A    -11.330160
       7A    -11.288772     8A    -11.286572     9A    -11.258070
      10A     -9.016832    11A     -6.697542    12A     -6.697011
      13A     -6.696390    14A     -1.383916    15A     -1.299980
      16A     -1.229185    17A     -1.085047    18A     -1.039803
      19A     -0.957055    20A     -0.849167    21A     -0.808742
      22A     -0.773022    23A     -0.721638    24A     -0.656763
      25A     -0.647530    26A     -0.630743    27A     -0.600901
      28A     -0.585021    29A     -0.569590    30A     -0.545045
      31A     -0.531058    32A     -0.521439    33A     -0.468717
      34A     -0.435979    35A     -0.409554    36A     -0.389094
      37A     -0.352243

  @DF-RHF Final Energy:  -774.27303118250859

   => Energetics <=

    Nuclear Repulsion Energy =            504.2881899863821218
    One-Electron Energy =               -2063.3996271688165507
    Two-Electron Energy =                 784.8384059999258398
    Total Energy =                       -774.2730311825085892
  Basis Set: (AUG-CC-PVTZ AUX)
    Blend: AUG-CC-PVTZ-RI
    Molecular point group: c1

    Geometry (in Angstrom), charge = 0, multiplicity = 1:

       Center              X                  Y                   Z               Mass
    ------------   -----------------  -----------------  -----------------  -----------------
         S            1.518186873784    -1.055655446130     0.000000954784    31.972071174400
         O           -1.581251726216    -1.497146146130    -0.000001145216    15.994914619570
         N           -2.046145126216     0.698872553870    -0.000000045216    14.003074004430
         N            0.648026873784     1.379419553870    -0.000001045216    14.003074004430
         C            0.252561873784     0.114882553870    -0.000000045216    12.000000000000
         C           -1.166796126216    -0.331213446130    -0.000001045216    12.000000000000
         C           -3.479987126216     0.490316553870     0.000000954784    12.000000000000
         C            2.658428873784     0.220926553870    -0.000000045216    12.000000000000
         C            2.013427873784     1.439686553870    -0.000000045216    12.000000000000
         H           -1.651643126216     1.633345553870     0.000000954784     1.007825032230
         H           -3.937807126216     0.928787553870    -0.891194045216     1.007825032230
         H           -3.937805126216     0.928779553870     0.891200954784     1.007825032230
         H           -3.650757126216    -0.586048446130    -0.000003045216     1.007825032230
         H            3.723595873784     0.028765553870     0.000000954784     1.007825032230
         H            2.507512873784     2.405146553870    -0.000000045216     1.007825032230

  Basis Set: AUG-CC-PVTZ
    Blend: AUG-CC-PVTZ
  Basis Set: (AUG-CC-PVTZ AUX)
    Blend: AUG-CC-PVTZ-JKFIT
	 Reference Energy          =    -774.2730311825085892 [Eh]
	 Singles Energy            =      -0.0000000000000000 [Eh]
	 Same-Spin Energy          =      -0.4592398769571077 [Eh]
	 Opposite-Spin Energy      =      -1.3694807900851282 [Eh]
	 Correlation Energy        =      -1.8287206670422358 [Eh]
	 Total Energy              =    -776.1017518495508511 [Eh]

	 ================> DF-SCS-MP2 Energies <==================
	-----------------------------------------------------------
	 SCS Same-Spin Scale       =       0.3333333333333333 [-]
	 SCS Opposite-Spin Scale   =       1.2000000000000000 [-]
	 SCS Same-Spin Energy      =      -0.1530799589857025 [Eh]
	 SCS Opposite-Spin Energy  =      -1.6433769481021538 [Eh]
	 SCS Correlation Energy    =      -1.7964569070878564 [Eh]
	 SCS Total Energy          =    -776.0694880895964616 [Eh]
	-----------------------------------------------------------

  Dipole Moment: [D]
     X:     1.6068      Y:     2.3978      Z:     0.0000     Total:     2.8864

*** Psi4 exiting successfully. Buy a developer a beer!
