                               Psi4 1.3.2 release

  ==> Input File <==

--------------------------------------------------------------------------
#psi4
#
memory 32 gb

molecule  {
0 1
  S        1.6907615    -1.1993535     0.0000010
  O       -1.4242190    -1.5655850    -0.0000010
  N       -2.0132560     0.6673690     0.0000000
  N        0.6809160     1.3479160    -0.0000010
  C        0.2854510     0.0833790     0.0000000
  C       -1.1339070    -0.3627170    -0.0000010
  C       -3.4470980     0.4588130     0.0000010
  C        2.6913180     0.1894230     0.0000000
  C        2.0463170     1.4081830     0.0000000
  H       -1.6187540     1.6018420     0.0000010
  H       -3.9049180     0.8972840    -0.8911940
  H       -3.9049160     0.8972760     0.8912010
  H       -3.6178680    -0.6175520    -0.0000030
  H        3.7564850    -0.0027380     0.0000010
  H        2.5404020     2.3736430     0.0000000
units angstrom
no_reorient  #important for SAPT in psi4, default
symmetry c1  #important for SAPT in psi4, default
}

set PROPERTIES_ORIGIN ["COM"]
properties('MP2/aug-cc-pvtz', properties = ['dipole'])
--------------------------------------------------------------------------

    Molecular point group: c1
  Charge       = 0
  Multiplicity = 1
  Basis Set: AUG-CC-PVTZ
    Blend: AUG-CC-PVTZ
  Basis Set: (AUG-CC-PVTZ AUX)
    Blend: AUG-CC-PVTZ-JKFIT

    Orbital Energies [Eh]
    ---------------------

    Doubly Occupied:

       1A    -92.015234     2A    -20.529467     3A    -15.609316
       4A    -15.594836     5A    -11.370602     6A    -11.340060
       7A    -11.286935     8A    -11.284229     9A    -11.264446
      10A     -9.012341    11A     -6.693018    12A     -6.692131
      13A     -6.691700    14A     -1.383394    15A     -1.291932
      16A     -1.238247    17A     -1.076802    18A     -1.023257
      19A     -0.955479    20A     -0.852032    21A     -0.799190
      22A     -0.776250    23A     -0.719355    24A     -0.656390
      25A     -0.647335    26A     -0.633146    27A     -0.600323
      28A     -0.577375    29A     -0.552768    30A     -0.544285
      31A     -0.530487    32A     -0.524667    33A     -0.465218
      34A     -0.437003    35A     -0.414606    36A     -0.395472
      37A     -0.337593

  @DF-RHF Final Energy:  -774.25780883977018

   => Energetics <=

    Nuclear Repulsion Energy =            497.1148506180753657
    One-Electron Energy =               -2049.1114764761041442
    Two-Electron Energy =                 777.7388170182587146
    Total Energy =                       -774.2578088397701777
  Basis Set: (AUG-CC-PVTZ AUX)
    Blend: AUG-CC-PVTZ-RI
    Molecular point group: c1

    Geometry (in Angstrom), charge = 0, multiplicity = 1:

       Center              X                  Y                   Z               Mass
    ------------   -----------------  -----------------  -----------------  -----------------
         S            1.612444284678    -1.138432504655     0.000000943522    31.972071174400
         O           -1.502536215322    -1.504664004655    -0.000001056478    15.994914619570
         N           -2.091573215322     0.728289995345    -0.000000056478    14.003074004430
         N            0.602598784678     1.408836995345    -0.000001056478    14.003074004430
         C            0.207133784678     0.144299995345    -0.000000056478    12.000000000000
         C           -1.212224215322    -0.301796004655    -0.000001056478    12.000000000000
         C           -3.525415215322     0.519733995345     0.000000943522    12.000000000000
         C            2.613000784678     0.250343995345    -0.000000056478    12.000000000000
         C            1.967999784678     1.469103995345    -0.000000056478    12.000000000000
         H           -1.697071215322     1.662762995345     0.000000943522     1.007825032230
         H           -3.983235215322     0.958204995345    -0.891194056478     1.007825032230
         H           -3.983233215322     0.958196995345     0.891200943522     1.007825032230
         H           -3.696185215322    -0.556631004655    -0.000003056478     1.007825032230
         H            3.678167784678     0.058182995345     0.000000943522     1.007825032230
         H            2.462084784678     2.434563995345    -0.000000056478     1.007825032230

  Basis Set: AUG-CC-PVTZ
    Blend: AUG-CC-PVTZ
  Basis Set: (AUG-CC-PVTZ AUX)
    Blend: AUG-CC-PVTZ-JKFIT
	 Reference Energy          =    -774.2578088397701777 [Eh]
	 Singles Energy            =      -0.0000000000000000 [Eh]
	 Same-Spin Energy          =      -0.4587226025504097 [Eh]
	 Opposite-Spin Energy      =      -1.3727131433914361 [Eh]
	 Correlation Energy        =      -1.8314357459418458 [Eh]
	 Total Energy              =    -776.0892445857119810 [Eh]

	 ================> DF-SCS-MP2 Energies <==================
	-----------------------------------------------------------
	 SCS Same-Spin Scale       =       0.3333333333333333 [-]
	 SCS Opposite-Spin Scale   =       1.2000000000000000 [-]
	 SCS Same-Spin Energy      =      -0.1529075341834699 [Eh]
	 SCS Opposite-Spin Energy  =      -1.6472557720697234 [Eh]
	 SCS Correlation Energy    =      -1.8001633062531932 [Eh]
	 SCS Total Energy          =    -776.0579721460234168 [Eh]
	-----------------------------------------------------------

  Dipole Moment: [D]
     X:     0.9560      Y:     2.6034      Z:     0.0000     Total:     2.7734

*** Psi4 exiting successfully. Buy a developer a beer!
