                               Psi4 1.3.2 release

  ==> Input File <==

--------------------------------------------------------------------------
#psi4
#
memory 32 gb

molecule  {
0 1
  S        1.5510760    -1.0871590     0.0000010
  O       -1.4242190    -1.5655850    -0.0000010
  N       -2.0132560     0.6673690     0.0000000
  N        0.6809160     1.3479160    -0.0000010
  C        0.2854510     0.0833790     0.0000000
  C       -1.1339070    -0.3627170    -0.0000010
  C       -3.4470980     0.4588130     0.0000010
  C        2.6483910     0.1676552     0.0000000
  C        2.0463170     1.4081830     0.0000000
  H       -1.6187540     1.6018420     0.0000010
  H       -3.9049180     0.8972840    -0.8911940
  H       -3.9049160     0.8972760     0.8912010
  H       -3.6178680    -0.6175520    -0.0000030
  H        3.7564850    -0.0027380     0.0000010
  H        2.5404020     2.3736430     0.0000000
units angstrom
no_reorient  #important for SAPT in psi4, default
symmetry c1  #important for SAPT in psi4, default
}

set PROPERTIES_ORIGIN ["COM"]
properties('MP2/aug-cc-pvtz', properties = ['dipole'])
--------------------------------------------------------------------------

    Molecular point group: c1
  Charge       = 0
  Multiplicity = 1
  Basis Set: AUG-CC-PVTZ
    Blend: AUG-CC-PVTZ
  Basis Set: (AUG-CC-PVTZ AUX)
    Blend: AUG-CC-PVTZ-JKFIT

    Orbital Energies [Eh]
    ---------------------

    Doubly Occupied:

       1A    -92.013860     2A    -20.527915     3A    -15.596869
       4A    -15.592602     5A    -11.368011     6A    -11.321379
       7A    -11.283643     8A    -11.282208     9A    -11.263000
      10A     -9.014687    11A     -6.695464    12A     -6.694845
      13A     -6.694186    14A     -1.383097    15A     -1.297886
      16A     -1.237068    17A     -1.089646    18A     -1.034430
      19A     -0.958136    20A     -0.847098    21A     -0.800602
      22A     -0.777157    23A     -0.718577    24A     -0.655642
      25A     -0.647411    26A     -0.632938    27A     -0.596796
      28A     -0.585879    29A     -0.561644    30A     -0.551146
      31A     -0.532573    32A     -0.526654    33A     -0.465950
      34A     -0.436259    35A     -0.411115    36A     -0.393061
      37A     -0.345766

  @DF-RHF Final Energy:  -774.27334409325567

   => Energetics <=

    Nuclear Repulsion Energy =            505.9624971439124010
    One-Electron Energy =               -2066.8012886349474684
    Two-Electron Energy =                 786.5654473977792804
    Total Energy =                       -774.2733440932556732
  Basis Set: (AUG-CC-PVTZ AUX)
    Blend: AUG-CC-PVTZ-RI
    Molecular point group: c1

    Geometry (in Angstrom), charge = 0, multiplicity = 1:

       Center              X                  Y                   Z               Mass
    ------------   -----------------  -----------------  -----------------  -----------------
         S            1.507832406717    -1.049656361029     0.000000943522    31.972071174400
         O           -1.467462593283    -1.528082361029    -0.000001056478    15.994914619570
         N           -2.056499593283     0.704871638971    -0.000000056478    14.003074004430
         N            0.637672406717     1.385418638971    -0.000001056478    14.003074004430
         C            0.242207406717     0.120881638971    -0.000000056478    12.000000000000
         C           -1.177150593283    -0.325214361029    -0.000001056478    12.000000000000
         C           -3.490341593283     0.496315638971     0.000000943522    12.000000000000
         C            2.605147406717     0.205157838971    -0.000000056478    12.000000000000
         C            2.003073406717     1.445685638971    -0.000000056478    12.000000000000
         H           -1.661997593283     1.639344638971     0.000000943522     1.007825032230
         H           -3.948161593283     0.934786638971    -0.891194056478     1.007825032230
         H           -3.948159593283     0.934778638971     0.891200943522     1.007825032230
         H           -3.661111593283    -0.580049361029    -0.000003056478     1.007825032230
         H            3.713241406717     0.034764638971     0.000000943522     1.007825032230
         H            2.497158406717     2.411145638971    -0.000000056478     1.007825032230

  Basis Set: AUG-CC-PVTZ
    Blend: AUG-CC-PVTZ
  Basis Set: (AUG-CC-PVTZ AUX)
    Blend: AUG-CC-PVTZ-JKFIT
	 Reference Energy          =    -774.2733440932556732 [Eh]
	 Singles Energy            =      -0.0000000000000000 [Eh]
	 Same-Spin Energy          =      -0.4594906905679192 [Eh]
	 Opposite-Spin Energy      =      -1.3692418546343061 [Eh]
	 Correlation Energy        =      -1.8287325452022254 [Eh]
	 Total Energy              =    -776.1020766384579019 [Eh]

	 ================> DF-SCS-MP2 Energies <==================
	-----------------------------------------------------------
	 SCS Same-Spin Scale       =       0.3333333333333333 [-]
	 SCS Opposite-Spin Scale   =       1.2000000000000000 [-]
	 SCS Same-Spin Energy      =      -0.1531635635226397 [Eh]
	 SCS Opposite-Spin Energy  =      -1.6430902255611672 [Eh]
	 SCS Correlation Energy    =      -1.7962537890838068 [Eh]
	 SCS Total Energy          =    -776.0695978823395080 [Eh]
	-----------------------------------------------------------

  Dipole Moment: [D]
     X:     1.1535      Y:     2.4144      Z:     0.0000     Total:     2.6758

*** Psi4 exiting successfully. Buy a developer a beer!
