                               Psi4 1.3.2 release

  ==> Input File <==

--------------------------------------------------------------------------
#psi4
#
memory 32 gb

molecule  {
0 1
  S        1.5510760    -1.0871590     0.0000010
  O       -1.4242190    -1.5655850    -0.0000010
  N       -2.0132560     0.6673690     0.0000000
  N        0.6809160     1.3479160    -0.0000010
  C        0.2556031    -0.0120626     0.0000001
  C       -1.1339070    -0.3627170    -0.0000010
  C       -3.4470980     0.4588130     0.0000010
  C        2.6913180     0.1894230     0.0000000
  C        2.0463170     1.4081830     0.0000000
  H       -1.6187540     1.6018420     0.0000010
  H       -3.9049180     0.8972840    -0.8911940
  H       -3.9049160     0.8972760     0.8912010
  H       -3.6178680    -0.6175520    -0.0000030
  H        3.7564850    -0.0027380     0.0000010
  H        2.5404020     2.3736430     0.0000000
units angstrom
no_reorient  #important for SAPT in psi4, default
symmetry c1  #important for SAPT in psi4, default
}

set PROPERTIES_ORIGIN ["COM"]
properties('MP2/aug-cc-pvtz', properties = ['dipole'])
--------------------------------------------------------------------------

    Molecular point group: c1
  Charge       = 0
  Multiplicity = 1
  Basis Set: AUG-CC-PVTZ
    Blend: AUG-CC-PVTZ
  Basis Set: (AUG-CC-PVTZ AUX)
    Blend: AUG-CC-PVTZ-JKFIT

    Orbital Energies [Eh]
    ---------------------

    Doubly Occupied:

       1A    -92.022687     2A    -20.524454     3A    -15.601303
       4A    -15.592068     5A    -11.364050     6A    -11.324937
       7A    -11.287692     8A    -11.283885     9A    -11.262844
      10A     -9.022395    11A     -6.703096    12A     -6.702653
      13A     -6.702091    14A     -1.384268    15A     -1.272672
      16A     -1.235462    17A     -1.079894    18A     -1.042388
      19A     -0.959096    20A     -0.859643    21A     -0.794480
      22A     -0.777952    23A     -0.717380    24A     -0.655659
      25A     -0.650708    26A     -0.632872    27A     -0.593172
      28A     -0.580073    29A     -0.575906    30A     -0.550720
      31A     -0.529201    32A     -0.520490    33A     -0.455122
      34A     -0.442171    35A     -0.403958    36A     -0.390179
      37A     -0.346604

  @DF-RHF Final Energy:  -774.25886613426019

   => Energetics <=

    Nuclear Repulsion Energy =            504.8272756520474900
    One-Electron Energy =               -2064.4838346041724435
    Two-Electron Energy =                 785.3976928178647086
    Total Energy =                       -774.2588661342601881
  Basis Set: (AUG-CC-PVTZ AUX)
    Blend: AUG-CC-PVTZ-RI
    Molecular point group: c1

    Geometry (in Angstrom), charge = 0, multiplicity = 1:

       Center              X                  Y                   Z               Mass
    ------------   -----------------  -----------------  -----------------  -----------------
         S            1.506727286965    -1.043431286553     0.000000935072    31.972071174400
         O           -1.468567713035    -1.521857286553    -0.000001064928    15.994914619570
         N           -2.057604713035     0.711096713447    -0.000000064928    14.003074004430
         N            0.636567286965     1.391643713447    -0.000001064928    14.003074004430
         C            0.211254386965     0.031665113447     0.000000035072    12.000000000000
         C           -1.178255713035    -0.318989286553    -0.000001064928    12.000000000000
         C           -3.491446713035     0.502540713447     0.000000935072    12.000000000000
         C            2.646969286965     0.233150713447    -0.000000064928    12.000000000000
         C            2.001968286965     1.451910713447    -0.000000064928    12.000000000000
         H           -1.663102713035     1.645569713447     0.000000935072     1.007825032230
         H           -3.949266713035     0.941011713447    -0.891194064928     1.007825032230
         H           -3.949264713035     0.941003713447     0.891200935072     1.007825032230
         H           -3.662216713035    -0.573824286553    -0.000003064928     1.007825032230
         H            3.712136286965     0.040989713447     0.000000935072     1.007825032230
         H            2.496053286965     2.417370713447    -0.000000064928     1.007825032230

  Basis Set: AUG-CC-PVTZ
    Blend: AUG-CC-PVTZ
  Basis Set: (AUG-CC-PVTZ AUX)
    Blend: AUG-CC-PVTZ-JKFIT
	 Reference Energy          =    -774.2588661342601881 [Eh]
	 Singles Energy            =      -0.0000000000000000 [Eh]
	 Same-Spin Energy          =      -0.4618294980193297 [Eh]
	 Opposite-Spin Energy      =      -1.3735860374529889 [Eh]
	 Correlation Energy        =      -1.8354155354723185 [Eh]
	 Total Energy              =    -776.0942816697324815 [Eh]

	 ================> DF-SCS-MP2 Energies <==================
	-----------------------------------------------------------
	 SCS Same-Spin Scale       =       0.3333333333333333 [-]
	 SCS Opposite-Spin Scale   =       1.2000000000000000 [-]
	 SCS Same-Spin Energy      =      -0.1539431660064432 [Eh]
	 SCS Opposite-Spin Energy  =      -1.6483032449435866 [Eh]
	 SCS Correlation Energy    =      -1.8022464109500298 [Eh]
	 SCS Total Energy          =    -776.0611125452102215 [Eh]
	-----------------------------------------------------------

  Dipole Moment: [D]
     X:     1.4211      Y:     2.3669      Z:     0.0000     Total:     2.7608

*** Psi4 exiting successfully. Buy a developer a beer!
