                               Psi4 1.3.2 release

  ==> Input File <==

--------------------------------------------------------------------------
#psi4
#
memory 32 gb

molecule  {
0 1
  S        1.5510760    -1.0871590     0.0000010
  O       -1.4242190    -1.5655850    -0.0000010
  N       -2.0132560     0.6673690     0.0000000
  N        0.6821758     1.3240956    -0.0000010
  C        0.2854510     0.0833790     0.0000000
  C       -1.1339070    -0.3627170    -0.0000010
  C       -3.4470980     0.4588130     0.0000010
  C        2.6913180     0.1894230     0.0000000
  C        2.0463170     1.4081830     0.0000000
  H       -1.6187540     1.6018420     0.0000010
  H       -3.9049180     0.8972840    -0.8911940
  H       -3.9049160     0.8972760     0.8912010
  H       -3.6178680    -0.6175520    -0.0000030
  H        3.7564850    -0.0027380     0.0000010
  H        2.5404020     2.3736430     0.0000000
units angstrom
no_reorient  #important for SAPT in psi4, default
symmetry c1  #important for SAPT in psi4, default
}

set PROPERTIES_ORIGIN ["COM"]
properties('MP2/aug-cc-pvtz', properties = ['dipole'])
--------------------------------------------------------------------------

    Molecular point group: c1
  Charge       = 0
  Multiplicity = 1
  Basis Set: AUG-CC-PVTZ
    Blend: AUG-CC-PVTZ
  Basis Set: (AUG-CC-PVTZ AUX)
    Blend: AUG-CC-PVTZ-JKFIT

    Orbital Energies [Eh]
    ---------------------

    Doubly Occupied:

       1A    -92.010202     2A    -20.529237     3A    -15.594023
       4A    -15.593882     5A    -11.369082     6A    -11.321753
       7A    -11.285004     8A    -11.282835     9A    -11.263809
      10A     -9.010329    11A     -6.691041    12A     -6.690524
      13A     -6.689864    14A     -1.384327    15A     -1.302050
      16A     -1.238092    17A     -1.080849    18A     -1.036771
      19A     -0.960481    20A     -0.847772    21A     -0.807648
      22A     -0.777547    23A     -0.718335    24A     -0.657934
      25A     -0.650613    26A     -0.634027    27A     -0.601364
      28A     -0.586509    29A     -0.568272    30A     -0.552109
      31A     -0.532474    32A     -0.516931    33A     -0.465505
      34A     -0.434316    35A     -0.408985    36A     -0.392571
      37A     -0.349515

  @DF-RHF Final Energy:  -774.27824905895420

   => Energetics <=

    Nuclear Repulsion Energy =            505.4855001216010351
    One-Electron Energy =               -2065.8543317661547007
    Two-Electron Energy =                 786.0905825855994635
    Total Energy =                       -774.2782490589542022
  Basis Set: (AUG-CC-PVTZ AUX)
    Blend: AUG-CC-PVTZ-RI
    Molecular point group: c1

    Geometry (in Angstrom), charge = 0, multiplicity = 1:

       Center              X                  Y                   Z               Mass
    ------------   -----------------  -----------------  -----------------  -----------------
         S            1.504081070585    -1.049146959669     0.000000943522    31.972071174400
         O           -1.471213929415    -1.527572959669    -0.000001056478    15.994914619570
         N           -2.060250929415     0.705381040331    -0.000000056478    14.003074004430
         N            0.635180870585     1.362107640331    -0.000001056478    14.003074004430
         C            0.238456070585     0.121391040331    -0.000000056478    12.000000000000
         C           -1.180901929415    -0.324704959669    -0.000001056478    12.000000000000
         C           -3.494092929415     0.496825040331     0.000000943522    12.000000000000
         C            2.644323070585     0.227435040331    -0.000000056478    12.000000000000
         C            1.999322070585     1.446195040331    -0.000000056478    12.000000000000
         H           -1.665748929415     1.639854040331     0.000000943522     1.007825032230
         H           -3.951912929415     0.935296040331    -0.891194056478     1.007825032230
         H           -3.951910929415     0.935288040331     0.891200943522     1.007825032230
         H           -3.664862929415    -0.579539959669    -0.000003056478     1.007825032230
         H            3.709490070585     0.035274040331     0.000000943522     1.007825032230
         H            2.493407070585     2.411655040331    -0.000000056478     1.007825032230

  Basis Set: AUG-CC-PVTZ
    Blend: AUG-CC-PVTZ
  Basis Set: (AUG-CC-PVTZ AUX)
    Blend: AUG-CC-PVTZ-JKFIT
	 Reference Energy          =    -774.2782490589542022 [Eh]
	 Singles Energy            =      -0.0000000000000000 [Eh]
	 Same-Spin Energy          =      -0.4582459243067554 [Eh]
	 Opposite-Spin Energy      =      -1.3679228666199768 [Eh]
	 Correlation Energy        =      -1.8261687909267321 [Eh]
	 Total Energy              =    -776.1044178498809742 [Eh]

	 ================> DF-SCS-MP2 Energies <==================
	-----------------------------------------------------------
	 SCS Same-Spin Scale       =       0.3333333333333333 [-]
	 SCS Opposite-Spin Scale   =       1.2000000000000000 [-]
	 SCS Same-Spin Energy      =      -0.1527486414355851 [Eh]
	 SCS Opposite-Spin Energy  =      -1.6415074399439720 [Eh]
	 SCS Correlation Energy    =      -1.7942560813795572 [Eh]
	 SCS Total Energy          =    -776.0725051403337602 [Eh]
	-----------------------------------------------------------

  Dipole Moment: [D]
     X:     1.0818      Y:     2.5298      Z:     0.0000     Total:     2.7514

*** Psi4 exiting successfully. Buy a developer a beer!
