                               Psi4 1.3.2 release

  ==> Input File <==

--------------------------------------------------------------------------
#psi4
#
memory 32 gb

molecule  {
0 1
  S        1.5510760    -1.0871590     0.0000010
  O       -1.2968947    -1.5893414    -0.0000009
  N       -2.0132560     0.6673690     0.0000000
  N        0.6809160     1.3479160    -0.0000010
  C        0.2854510     0.0833790     0.0000000
  C       -1.1339070    -0.3627170    -0.0000010
  C       -3.4470980     0.4588130     0.0000010
  C        2.6913180     0.1894230     0.0000000
  C        2.0463170     1.4081830     0.0000000
  H       -1.6187540     1.6018420     0.0000010
  H       -3.9049180     0.8972840    -0.8911940
  H       -3.9049160     0.8972760     0.8912010
  H       -3.6178680    -0.6175520    -0.0000030
  H        3.7564850    -0.0027380     0.0000010
  H        2.5404020     2.3736430     0.0000000
units angstrom
no_reorient  #important for SAPT in psi4, default
symmetry c1  #important for SAPT in psi4, default
}

set PROPERTIES_ORIGIN ["COM"]
properties('MP2/aug-cc-pvtz', properties = ['dipole'])
--------------------------------------------------------------------------

    Molecular point group: c1
  Charge       = 0
  Multiplicity = 1
  Basis Set: AUG-CC-PVTZ
    Blend: AUG-CC-PVTZ
  Basis Set: (AUG-CC-PVTZ AUX)
    Blend: AUG-CC-PVTZ-JKFIT

    Orbital Energies [Eh]
    ---------------------

    Doubly Occupied:

       1A    -92.008406     2A    -20.532262     3A    -15.600516
       4A    -15.592337     5A    -11.371132     6A    -11.318772
       7A    -11.281164     8A    -11.278381     9A    -11.268933
      10A     -9.008267    11A     -6.688966    12A     -6.688433
      13A     -6.687802    14A     -1.386051    15A     -1.292036
      16A     -1.245806    17A     -1.077037    18A     -1.031805
      19A     -0.962486    20A     -0.846832    21A     -0.801087
      22A     -0.781744    23A     -0.715451    24A     -0.656090
      25A     -0.652367    26A     -0.636827    27A     -0.598827
      28A     -0.583934    29A     -0.565143    30A     -0.558514
      31A     -0.532764    32A     -0.514048    33A     -0.462992
      34A     -0.435658    35A     -0.410015    36A     -0.393238
      37A     -0.344191

  @DF-RHF Final Energy:  -774.27359833978380

   => Energetics <=

    Nuclear Repulsion Energy =            505.6936055969699737
    One-Electron Energy =               -2066.3137795745265066
    Two-Electron Energy =                 786.3465756377727303
    Total Energy =                       -774.2735983397838027
  Basis Set: (AUG-CC-PVTZ AUX)
    Blend: AUG-CC-PVTZ-RI
    Molecular point group: c1

    Geometry (in Angstrom), charge = 0, multiplicity = 1:

       Center              X                  Y                   Z               Mass
    ------------   -----------------  -----------------  -----------------  -----------------
         S            1.489865473903    -1.048820085016     0.000000932259    31.972071174400
         O           -1.358105226097    -1.551002485016    -0.000000967741    15.994914619570
         N           -2.074466526097     0.705707914984    -0.000000067741    14.003074004430
         N            0.619705473903     1.386254914984    -0.000001067741    14.003074004430
         C            0.224240473903     0.121717914984    -0.000000067741    12.000000000000
         C           -1.195117526097    -0.324378085016    -0.000001067741    12.000000000000
         C           -3.508308526097     0.497151914984     0.000000932259    12.000000000000
         C            2.630107473903     0.227761914984    -0.000000067741    12.000000000000
         C            1.985106473903     1.446521914984    -0.000000067741    12.000000000000
         H           -1.679964526097     1.640180914984     0.000000932259     1.007825032230
         H           -3.966128526097     0.935622914984    -0.891194067741     1.007825032230
         H           -3.966126526097     0.935614914984     0.891200932259     1.007825032230
         H           -3.679078526097    -0.579213085016    -0.000003067741     1.007825032230
         H            3.695274473903     0.035600914984     0.000000932259     1.007825032230
         H            2.479191473903     2.411981914984    -0.000000067741     1.007825032230

  Basis Set: AUG-CC-PVTZ
    Blend: AUG-CC-PVTZ
  Basis Set: (AUG-CC-PVTZ AUX)
    Blend: AUG-CC-PVTZ-JKFIT
	 Reference Energy          =    -774.2735983397838027 [Eh]
	 Singles Energy            =      -0.0000000000000000 [Eh]
	 Same-Spin Energy          =      -0.4587389529751145 [Eh]
	 Opposite-Spin Energy      =      -1.3691451382019046 [Eh]
	 Correlation Energy        =      -1.8278840911770191 [Eh]
	 Total Energy              =    -776.1014824309608002 [Eh]

	 ================> DF-SCS-MP2 Energies <==================
	-----------------------------------------------------------
	 SCS Same-Spin Scale       =       0.3333333333333333 [-]
	 SCS Opposite-Spin Scale   =       1.2000000000000000 [-]
	 SCS Same-Spin Energy      =      -0.1529129843250381 [Eh]
	 SCS Opposite-Spin Energy  =      -1.6429741658422856 [Eh]
	 SCS Correlation Energy    =      -1.7958871501673237 [Eh]
	 SCS Total Energy          =    -776.0694854899511483 [Eh]
	-----------------------------------------------------------

  Dipole Moment: [D]
     X:     0.6154      Y:     2.4602      Z:     0.0000     Total:     2.5360

*** Psi4 exiting successfully. Buy a developer a beer!
