                               Psi4 1.3.2 release

  ==> Input File <==

--------------------------------------------------------------------------
#psi4
#
memory 32 gb

molecule  {
0 1
  S        1.5510760    -1.0871590     0.0000010
  O       -1.4242190    -1.5655850    -0.0000010
  N       -2.0132560     0.6673690     0.0000000
  N        0.6809160     1.3479160    -0.0000010
  C        0.2854510     0.0833790     0.0000000
  C       -1.1339070    -0.3627170    -0.0000010
  C       -3.4470980     0.4588130     0.0000010
  C        2.6913180     0.1894230     0.0000000
  C        2.0463170     1.4081830     0.0000000
  H       -1.6187540     1.6018420     0.0000010
  H       -3.9049180     0.8972840    -0.8911940
  H       -3.9049160     0.8972760     0.8912010
  H       -3.6178680    -0.6175520    -0.0000030
  H        3.9533078    -0.0382457     0.0000012
  H        2.5404020     2.3736430     0.0000000
units angstrom
no_reorient  #important for SAPT in psi4, default
symmetry c1  #important for SAPT in psi4, default
}

set PROPERTIES_ORIGIN ["COM"]
properties('MP2/aug-cc-pvtz', properties = ['dipole'])
--------------------------------------------------------------------------

    Molecular point group: c1
  Charge       = 0
  Multiplicity = 1
  Basis Set: AUG-CC-PVTZ
    Blend: AUG-CC-PVTZ
  Basis Set: (AUG-CC-PVTZ AUX)
    Blend: AUG-CC-PVTZ-JKFIT

    Orbital Energies [Eh]
    ---------------------

    Doubly Occupied:

       1A    -92.014253     2A    -20.529493     3A    -15.598092
       4A    -15.594102     5A    -11.369699     6A    -11.325013
       7A    -11.301842     8A    -11.285692     9A    -11.263950
      10A     -9.014019    11A     -6.694700    12A     -6.694182
      13A     -6.693534    14A     -1.384511    15A     -1.296919
      16A     -1.238232    17A     -1.078477    18A     -1.035171
      19A     -0.958661    20A     -0.846996    21A     -0.791419
      22A     -0.777886    23A     -0.707315    24A     -0.655820
      25A     -0.642172    26A     -0.633900    27A     -0.595329
      28A     -0.585045    29A     -0.552681    30A     -0.546312
      31A     -0.532589    32A     -0.518510    33A     -0.466614
      34A     -0.437064    35A     -0.409057    36A     -0.392898
      37A     -0.348920

  @DF-RHF Final Energy:  -774.25349757382446

   => Energetics <=

    Nuclear Repulsion Energy =            503.8404606531023546
    One-Electron Energy =               -2062.5657767003249319
    Two-Electron Energy =                 784.4718184733981161
    Total Energy =                       -774.2534975738244611
  Basis Set: (AUG-CC-PVTZ AUX)
    Blend: AUG-CC-PVTZ-RI
    Molecular point group: c1

    Geometry (in Angstrom), charge = 0, multiplicity = 1:

       Center              X                  Y                   Z               Mass
    ------------   -----------------  -----------------  -----------------  -----------------
         S            1.502808561324    -1.051243658014     0.000000942103    31.972071174400
         O           -1.472486438676    -1.529669658014    -0.000001057897    15.994914619570
         N           -2.061523438676     0.703284341986    -0.000000057897    14.003074004430
         N            0.632648561324     1.383831341986    -0.000001057897    14.003074004430
         C            0.237183561324     0.119294341986    -0.000000057897    12.000000000000
         C           -1.182174438676    -0.326801658014    -0.000001057897    12.000000000000
         C           -3.495365438676     0.494728341986     0.000000942103    12.000000000000
         C            2.643050561324     0.225338341986    -0.000000057897    12.000000000000
         C            1.998049561324     1.444098341986    -0.000000057897    12.000000000000
         H           -1.667021438676     1.637757341986     0.000000942103     1.007825032230
         H           -3.953185438676     0.933199341986    -0.891194057897     1.007825032230
         H           -3.953183438676     0.933191341986     0.891200942103     1.007825032230
         H           -3.666135438676    -0.581636658014    -0.000003057897     1.007825032230
         H            3.905040361324    -0.002330358014     0.000001142103     1.007825032230
         H            2.492134561324     2.409558341986    -0.000000057897     1.007825032230

  Basis Set: AUG-CC-PVTZ
    Blend: AUG-CC-PVTZ
  Basis Set: (AUG-CC-PVTZ AUX)
    Blend: AUG-CC-PVTZ-JKFIT
	 Reference Energy          =    -774.2534975738244611 [Eh]
	 Singles Energy            =      -0.0000000000000000 [Eh]
	 Same-Spin Energy          =      -0.4594242538816745 [Eh]
	 Opposite-Spin Energy      =      -1.3710495119444683 [Eh]
	 Correlation Energy        =      -1.8304737658261430 [Eh]
	 Total Energy              =    -776.0839713396505886 [Eh]

	 ================> DF-SCS-MP2 Energies <==================
	-----------------------------------------------------------
	 SCS Same-Spin Scale       =       0.3333333333333333 [-]
	 SCS Opposite-Spin Scale   =       1.2000000000000000 [-]
	 SCS Same-Spin Energy      =      -0.1531414179605582 [Eh]
	 SCS Opposite-Spin Energy  =      -1.6452594143333619 [Eh]
	 SCS Correlation Energy    =      -1.7984008322939200 [Eh]
	 SCS Total Energy          =    -776.0518984061184256 [Eh]
	-----------------------------------------------------------

  Dipole Moment: [D]
     X:     1.1388      Y:     2.4369      Z:     0.0000     Total:     2.6899

*** Psi4 exiting successfully. Buy a developer a beer!
